Title
81305
    1CHL1    C3    1   3.082   3.464  10.250  0.0237 -0.1871  0.1239
    1CHL1    H3    2   3.156   3.386  10.224 -0.6217 -0.6639 -0.3133
    1CHL1    O3    3   3.067   3.471  10.392  0.1671  0.2287 -0.3287
    1CHL1   H3'    4   2.980   3.512  10.402  1.5529  3.5789 -0.8527
    1CHL1    C4    5   3.133   3.598  10.197 -0.6525  0.5600 -0.0014
    1CHL1   H4A    6   3.058   3.677  10.220 -0.2715  1.2108 -0.9202
    1CHL1   H4B    7   3.221   3.633  10.254 -1.7323  4.3647 -0.4075
    1CHL1    C5    8   3.152   3.613  10.042  0.0664  0.0357  0.3960
    1CHL1    C6    9   3.264   3.659   9.992 -0.3306 -0.4452  0.7961
    1CHL1    H6   10   3.351   3.684  10.053  0.6262 -1.0106 -0.3002
    1CHL1    C7   11   3.290   3.678   9.848 -0.5044  0.0055  0.1155
    1CHL1   H7A   12   3.349   3.770   9.827  1.4312 -1.5169 -1.4852
    1CHL1   H7B   13   3.359   3.597   9.816 -0.2828  0.8365 -1.6719
    1CHL1    C8   14   3.158   3.676   9.759 -0.0334  0.0302 -0.2351
    1CHL1    H8   15   3.102   3.769   9.781 -0.5130 -0.0167 -1.1982
    1CHL1   C14   16   3.190   3.658   9.609  0.6053 -0.2169  0.9871
    1CHL1   H14   17   3.243   3.560   9.604  0.5794 -0.2084  0.4595
    1CHL1   C15   18   3.286   3.758   9.539  0.1971 -0.0305 -0.2918
    1CHL1  H15A   19   3.254   3.855   9.583 -1.0624 -0.5676  0.0402
    1CHL1  H15B   20   3.390   3.725   9.559 -0.6350 -2.4893  0.4664
    1CHL1   C16   21   3.252   3.750   9.391  0.2868  0.6588 -1.0749
    1CHL1  H16A   22   3.222   3.852   9.360 -2.4047  0.9867  2.0435
    1CHL1  H16B   23   3.343   3.714   9.339  0.4698  1.3777 -1.2500
    1CHL1   C17   24   3.144   3.635   9.373  0.7641  0.0494  0.0026
    1CHL1   H17   25   3.199   3.539   9.368  2.8413  1.2299 -1.6832
    1CHL1   C13   26   3.069   3.637   9.510  0.0372 -0.1823 -0.0189
    1CHL1   C18   27   2.980   3.759   9.515  0.1055  0.1724  0.3995
    1CHL1  H18A   28   2.953   3.774   9.622 -2.4953 -1.5378  0.0793
    1CHL1  H18B   29   3.029   3.851   9.477  0.2108  0.6484  1.6505
    1CHL1  H18C   30   2.882   3.745   9.464  0.5573  0.4281 -0.5685
    1CHL1   C12   31   2.987   3.513   9.557 -0.2596 -0.2178  0.1020
    1CHL1  H12A   32   2.891   3.507   9.502 -0.1534 -0.5429 -0.0485
    1CHL1  H12B   33   3.046   3.420   9.540  0.3649 -0.2630  2.2458
    1CHL1   C11   34   2.947   3.529   9.708 -0.2099 -0.4077 -0.2149
    1CHL1  H11A   35   2.872   3.610   9.717 -0.3866 -0.0107 -3.8185
    1CHL1  H11B   36   2.902   3.435   9.748  1.5111 -1.2665 -0.1927
    1CHL1    C9   37   3.069   3.557   9.808  0.9408  0.0124 -0.3662
    1CHL1    H9   38   3.131   3.466   9.791  1.1349  0.1722 -0.5143
    1CHL1   C10   39   3.028   3.572   9.961  0.0236  0.5537 -0.2294
    1CHL1   C19   40   2.929   3.689   9.981  0.4491  0.2717 -0.3234
    1CHL1  H19A   41   2.896   3.695  10.087 -0.3420  1.5697 -0.6212
    1CHL1  H19B   42   2.976   3.785   9.952 -0.7012  1.5478  1.7679
    1CHL1  H19C   43   2.834   3.668   9.927 -0.2175 -1.7044  1.4562
    1CHL1    C1   44   2.963   3.440  10.015 -0.2307  0.4100 -0.2241
    1CHL1   H1A   45   2.864   3.425   9.967  0.0318 -0.7438 -0.4158
    1CHL1   H1B   46   3.025   3.353   9.985  0.4497  1.3244 -1.5754
    1CHL1    C2   47   2.942   3.428  10.171  0.0028 -0.1703 -1.0652
    1CHL1   H2A   48   2.907   3.326  10.200  0.1851 -0.2838 -1.2440
    1CHL1   H2B   49   2.864   3.499  10.205  0.2389  0.5041 -1.9202
    1CHL1   C20   50   3.059   3.647   9.252 -0.0242  0.7214 -0.6032
    1CHL1   H20   51   2.979   3.721   9.270 -4.8662 -4.1126  0.4762
    1CHL1   C21   52   2.989   3.517   9.212 -0.1416  0.2405 -0.2070
    1CHL1  H21A   53   3.056   3.430   9.202 -0.7438 -0.1075 -1.2982
    1CHL1  H21B   54   2.935   3.533   9.116 -0.6055  0.4329  0.0782
    1CHL1  H21C   55   2.915   3.494   9.292 -0.8600 -0.3526 -1.0247
    1CHL1   C22   56   3.140   3.701   9.128  0.1559  0.7129  0.1965
    1CHL1  H22A   57   3.161   3.808   9.153 -0.6998  0.9919 -0.2325
    1CHL1  H22B   58   3.235   3.648   9.106 -1.3662 -2.1042 -0.0234
    1CHL1   C23   59   3.070   3.703   8.985 -0.1286 -0.4766  0.1410
    1CHL1  H23A   60   3.048   3.601   8.949 -0.9498  0.3298 -1.7951
    1CHL1  H23B   61   2.974   3.759   8.990  0.2060  0.0761  0.4767
    1CHL1   C24   62   3.154   3.760   8.874  0.1592 -0.2669  1.1209
    1CHL1  H24A   63   3.156   3.867   8.901 -1.0667 -0.2324  1.1018
    1CHL1  H24B   64   3.256   3.717   8.888  1.3925  1.8491 -0.7770
    1CHL1   C25   65   3.109   3.739   8.730  0.1512  0.4314  0.4325
    1CHL1   H25   66   3.003   3.767   8.715  0.4749  2.1611  1.1319
    1CHL1   C26   67   3.208   3.815   8.642 -0.3904 -0.2176  0.2648
    1CHL1  H26A   68   3.168   3.810   8.538 -2.6567 -1.4745  1.1122
    1CHL1  H26B   69   3.217   3.924   8.661  1.2908 -0.1282 -0.8964
    1CHL1  H26C   70   3.311   3.774   8.636  0.0328  1.0079 -2.7991
    1CHL1   C27   71   3.122   3.588   8.691 -0.7365 -0.2033 -0.8336
    1CHL1  H27A   72   3.055   3.526   8.754 -0.6405  0.7575  0.2560
    1CHL1  H27B   73   3.097   3.568   8.585 -0.5899 -0.7297 -0.7698
    1CHL1  H27C   74   3.225   3.551   8.710 -1.6459 -3.1949 -1.2697
    2CHL1    C3   75   1.499   4.189   9.885  0.2151  0.3708  1.5412
    2CHL1    H3   76   1.520   4.292   9.848  3.0670 -0.7240 -0.2363
    2CHL1    O3   77   1.485   4.188  10.025 -0.2094  0.2833 -0.7032
    2CHL1   H3'   78   1.394   4.186  10.056  1.2941 -0.7462  4.7408
    2CHL1    C4   79   1.367   4.140   9.820  0.4555 -0.0366 -0.0861
    2CHL1   H4A   80   1.331   4.050   9.875 -0.3297  0.2422 -0.1323
    2CHL1   H4B   81   1.285   4.208   9.853  0.1305 -0.6650  0.4302
    2CHL1    C5   82   1.378   4.116   9.670  0.0504  0.6988  0.4163
    2CHL1    C6   83   1.313   4.182   9.577 -0.4052  0.5473 -0.0098
    2CHL1    H6   84   1.235   4.254   9.608 -1.0162  0.4294 -1.2086
    2CHL1    C7   85   1.301   4.140   9.433 -0.4854  0.2514 -0.3729
    2CHL1   H7A   86   1.198   4.139   9.392 -0.4386  1.4122 -0.5495
    2CHL1   H7B   87   1.354   4.215   9.370  0.3693  0.7798  0.9403
    2CHL1    C8   88   1.374   4.007   9.400  0.8306  0.2783  0.4629
    2CHL1    H8   89   1.315   3.917   9.429  0.1553 -0.3567 -2.4850
    2CHL1   C14   90   1.415   3.994   9.250  0.2458 -0.3083  0.3887
    2CHL1   H14   91   1.486   4.079   9.244  0.6884 -0.6220  1.1126
    2CHL1   C15   92   1.300   4.018   9.147 -0.2857  0.5534 -0.4130
    2CHL1  H15A   93   1.214   3.952   9.170 -0.0484 -0.4176 -2.1425
    2CHL1  H15B   94   1.275   4.123   9.124 -3.0711  0.6517  2.4269
    2CHL1   C16   95   1.356   3.954   9.018  0.7247  0.1020  0.0588
    2CHL1  H16A   96   1.294   3.867   8.988  0.9915  0.1323 -0.5870
    2CHL1  H16B   97   1.358   4.029   8.936  1.0586  1.2077  1.0454
    2CHL1   C17   98   1.499   3.906   9.057 -0.0967 -0.2208 -0.3335
    2CHL1   H17   99   1.569   3.990   9.039 -1.5503  0.7526 -1.8156
    2CHL1   C13  100   1.493   3.873   9.210 -0.9038  0.1358 -0.2049
    2CHL1   C18  101   1.425   3.742   9.236 -0.8689  0.1226 -0.5488
    2CHL1  H18A  102   1.410   3.730   9.345 -0.1962 -1.7314 -0.6216
    2CHL1  H18B  103   1.336   3.737   9.169  0.1876  1.2937 -2.1120
    2CHL1  H18C  104   1.490   3.659   9.200 -0.0097  1.3386 -1.9012
    2CHL1   C12  105   1.628   3.883   9.289 -0.3914  0.3102 -0.0524
    2CHL1  H12A  106   1.682   3.787   9.275  0.8261  1.0051 -0.2483
    2CHL1  H12B  107   1.695   3.962   9.249 -0.0338 -0.8792 -1.9054
    2CHL1   C11  108   1.596   3.891   9.439 -0.7266  0.6059  0.3265
    2CHL1  H11A  109   1.550   3.796   9.471  0.2905  0.4937  1.4946
    2CHL1  H11B  110   1.690   3.910   9.495 -1.6945  1.7424  1.6322
    2CHL1    C9  111   1.505   4.005   9.482  0.0587 -0.2718  0.3156
    2CHL1    H9  112   1.558   4.100   9.459  1.1693  0.1852  4.0027
    2CHL1   C10  113   1.486   4.014   9.639  0.6206  0.1093  0.0021
    2CHL1   C19  114   1.436   3.881   9.695 -0.4583  0.1819  0.3003
    2CHL1  H19A  115   1.516   3.804   9.687  0.5740  1.3676 -1.5456
    2CHL1  H19B  116   1.393   3.881   9.797  1.5628 -1.4464  1.2300
    2CHL1  H19C  117   1.360   3.842   9.624  0.3650 -1.2324  0.1609
    2CHL1    C1  118   1.620   4.055   9.705  0.2342 -0.1794 -0.5128
    2CHL1   H1A  119   1.692   3.974   9.681  1.2302  0.9939 -1.6220
    2CHL1   H1B  120   1.658   4.149   9.659 -1.5329  0.9827  0.2839
    2CHL1    C2  121   1.612   4.092   9.858 -0.2396  0.1924  1.2689
    2CHL1   H2A  122   1.710   4.133   9.888 -0.2528  0.0876  1.4575
    2CHL1   H2B  123   1.590   4.000   9.916 -1.3111 -0.4850 -0.1625
    2CHL1   C20  124   1.546   3.789   8.967 -0.1872 -0.7798  0.1006
    2CHL1   H20  125   1.477   3.703   8.984 -0.9647  0.0176  1.1122
    2CHL1   C21  126   1.693   3.754   8.990 -0.2235  0.7416 -0.1562
    2CHL1  H21A  127   1.701   3.692   9.081 -0.7641  2.3694  1.0491
    2CHL1  H21B  128   1.756   3.840   9.021  2.6232 -1.8913  1.9129
    2CHL1  H21C  129   1.750   3.705   8.908 -0.3210  1.6366 -0.7831
    2CHL1   C22  130   1.522   3.827   8.818 -0.2124 -0.0965  0.0963
    2CHL1  H22A  131   1.554   3.742   8.755  1.2654  1.5582 -1.5068
    2CHL1  H22B  132   1.412   3.833   8.801 -0.5736 -1.8548  1.5408
    2CHL1   C23  133   1.612   3.944   8.775 -0.2657  0.2125 -0.0250
    2CHL1  H23A  134   1.590   4.034   8.836  0.2235  0.9887 -0.9841
    2CHL1  H23B  135   1.719   3.921   8.794 -0.0362  1.5124  0.3198
    2CHL1   C24  136   1.587   3.991   8.629 -0.2451 -0.3565 -0.1143
    2CHL1  H24A  137   1.607   3.904   8.562  0.2997  0.0127 -0.4408
    2CHL1  H24B  138   1.478   4.014   8.630  0.1064  2.1210 -3.0441
    2CHL1   C25  139   1.656   4.122   8.577  0.5863 -0.6235 -0.2654
    2CHL1   H25  140   1.676   4.200   8.653 -0.5206  0.1516 -0.7500
    2CHL1   C26  141   1.792   4.090   8.518  1.0345 -0.4406  0.2769
    2CHL1  H26A  142   1.794   4.004   8.448  1.4000  0.7153 -1.1767
    2CHL1  H26B  143   1.823   4.183   8.466  0.2950  0.3194  1.1553
    2CHL1  H26C  144   1.861   4.068   8.603 -0.4740 -2.2494  1.1096
    2CHL1   C27  145   1.565   4.192   8.473  0.2175  0.6438  0.3253
    2CHL1  H27A  146   1.624   4.261   8.410 -1.6157  0.9363 -1.1513
    2CHL1  H27B  147   1.522   4.114   8.406  0.0071  2.5008 -1.7926
    2CHL1  H27C  148   1.483   4.240   8.531  0.6129  1.2208  0.4090
    3CHL1    C3  149   0.444   2.956  10.074 -0.7994 -0.2321  0.2137
    3CHL1    H3  150   0.370   3.037  10.054  2.8359  3.4283  0.2130
    3CHL1    O3  151   0.447   2.914  10.211  0.2583  0.0502  0.8233
    3CHL1   H3'  152   0.529   2.866  10.228  0.8403 -0.4029 -2.6509
    3CHL1    C4  153   0.395   2.848   9.984  0.3647  0.0418  0.1185
    3CHL1   H4A  154   0.466   2.766  10.010  0.5323 -0.4950 -1.8645
    3CHL1   H4B  155   0.291   2.823  10.013 -0.1282  1.3682 -0.4748
    3CHL1    C5  156   0.395   2.887   9.837 -0.6867 -0.0720 -0.1259
    3CHL1    C6  157   0.285   2.876   9.767 -0.5757 -0.9066 -0.0553
    3CHL1    H6  158   0.195   2.831   9.812 -1.9532 -0.0974 -1.8375
    3CHL1    C7  159   0.278   2.904   9.622 -0.5901 -0.3890  1.0517
    3CHL1   H7A  160   0.217   2.830   9.566  0.3611  0.1788 -0.8121
    3CHL1   H7B  161   0.227   3.001   9.601  0.5973 -0.5147 -3.4900
    3CHL1    C8  162   0.418   2.914   9.555 -0.8856  0.0368 -0.1459
    3CHL1    H8  163   0.462   2.813   9.542  1.6477  0.7722  1.8306
    3CHL1   C14  164   0.396   2.982   9.420  0.2894  0.9474 -0.8168
    3CHL1   H14  165   0.343   3.076   9.446 -0.5251  0.2122  0.2707
    3CHL1   C15  166   0.312   2.918   9.315  0.6655 -0.3241  0.6264
    3CHL1  H15A  167   0.353   2.816   9.300  1.8800  0.1454  0.6518
    3CHL1  H15B  168   0.202   2.903   9.327  0.2869  1.7112  0.1634
    3CHL1   C16  169   0.339   3.002   9.186  0.2214  0.2647  0.4200
    3CHL1  H16A  170   0.356   2.940   9.096 -0.7924  1.5266 -0.6767
    3CHL1  H16B  171   0.252   3.067   9.166 -1.2286 -2.2077 -1.9697
    3CHL1   C17  172   0.465   3.087   9.223 -0.2532  0.2618 -0.1358
    3CHL1   H17  173   0.426   3.185   9.259 -1.2747 -0.4020  0.6105
    3CHL1   C13  174   0.524   3.026   9.348 -0.5453 -0.4571  1.0278
    3CHL1   C18  175   0.603   2.899   9.306 -0.9763 -0.5984 -0.7451
    3CHL1  H18A  176   0.625   2.832   9.392  4.5548  2.6671  0.8643
    3CHL1  H18B  177   0.542   2.839   9.234 -1.7996  0.0520 -0.6030
    3CHL1  H18C  178   0.701   2.925   9.261 -1.0913 -1.7199 -1.7065
    3CHL1   C12  179   0.604   3.116   9.444  0.0129  0.5820  0.2492
    3CHL1  H12A  180   0.696   3.159   9.399 -0.4532  0.5406 -0.7598
    3CHL1  H12B  181   0.545   3.205   9.473  0.3126  0.3197  1.7715
    3CHL1   C11  182   0.640   3.040   9.579  0.1135 -0.2654  0.1418
    3CHL1  H11A  183   0.708   2.954   9.560  0.1731 -0.2467  0.2723
    3CHL1  H11B  184   0.694   3.112   9.644 -1.5447  0.4833  0.7241
    3CHL1    C9  185   0.510   3.005   9.644 -0.4109  0.4665  0.2295
    3CHL1    H9  186   0.456   3.100   9.662 -1.5653 -0.1899  0.3462
    3CHL1   C10  187   0.527   2.937   9.784 -0.8719  0.2508 -0.5633
    3CHL1   C19  188   0.623   2.816   9.781  0.0532 -0.5404  0.0001
    3CHL1  H19A  189   0.646   2.786   9.886  1.4389 -1.1658 -0.4554
    3CHL1  H19B  190   0.590   2.733   9.715  0.1284  0.9257 -1.9759
    3CHL1  H19C  191   0.721   2.845   9.736 -0.0280  0.1044  0.2251
    3CHL1    C1  192   0.581   3.053   9.875 -0.3070  0.0264  0.2441
    3CHL1   H1A  193   0.684   3.082   9.843 -0.8697 -1.5567 -3.5745
    3CHL1   H1B  194   0.521   3.146   9.870  2.3680  1.8603  0.6181
    3CHL1    C2  195   0.584   3.015  10.025  1.0259  0.5012  0.0500
    3CHL1   H2A  196   0.615   3.108  10.077  0.8918 -0.0657  1.1744
    3CHL1   H2B  197   0.665   2.944  10.050  0.6083 -0.7458 -1.8599
    3CHL1   C20  198   0.558   3.115   9.105 -0.3257 -0.5318  0.2989
    3CHL1   H20  199   0.602   3.020   9.067  0.1911 -0.9380  1.8176
    3CHL1   C21  200   0.684   3.198   9.144  0.0754 -0.4225  0.1286
    3CHL1  H21A  201   0.753   3.135   9.204  0.9175 -0.2180 -0.6070
    3CHL1  H21B  202   0.669   3.296   9.194 -0.0209  0.5407 -1.7207
    3CHL1  H21C  203   0.734   3.210   9.045  0.5004 -1.1228  0.2519
    3CHL1   C22  204   0.486   3.177   8.979  0.3476  0.8313  0.2178
    3CHL1  H22A  205   0.375   3.175   8.977  0.2876 -2.7935  0.5213
    3CHL1  H22B  206   0.533   3.278   8.979 -2.2873  2.1871  2.6499
    3CHL1   C23  207   0.528   3.103   8.847  0.1877  0.1541  0.5894
    3CHL1  H23A  208   0.638   3.087   8.844  0.2162  0.5094 -0.3577
    3CHL1  H23B  209   0.479   3.003   8.843 -0.5678  0.3793  2.8251
    3CHL1   C24  210   0.497   3.187   8.714 -0.2385  0.0331  0.1387
    3CHL1  H24A  211   0.388   3.210   8.708 -0.4498 -0.4126  1.7043
    3CHL1  H24B  212   0.545   3.286   8.727  0.6520 -0.2876 -0.5797
    3CHL1   C25  213   0.560   3.132   8.587 -0.2802  0.7483  0.1535
    3CHL1   H25  214   0.667   3.106   8.605 -0.7741 -1.2412  0.5254
    3CHL1   C26  215   0.494   3.001   8.528 -0.0702  0.3599  0.5693
    3CHL1  H26A  216   0.534   2.971   8.429  1.2091  3.0108  0.2094
    3CHL1  H26B  217   0.495   2.915   8.599  5.2622 -0.6425 -0.2761
    3CHL1  H26C  218   0.386   3.021   8.509  0.0236  0.8392  0.5281
    3CHL1   C27  219   0.550   3.248   8.484  0.2609 -0.1426 -0.3412
    3CHL1  H27A  220   0.442   3.273   8.477  0.3306  0.1552 -0.3789
    3CHL1  H27B  221   0.612   3.335   8.514  0.8849 -0.4285 -0.7677
    3CHL1  H27C  222   0.588   3.222   8.383 -3.7476 -0.5268 -1.9197
    4CHL1    C3  223   0.984   3.523  10.175  0.3158  0.0800  0.3550
    4CHL1    H3  224   0.900   3.596  10.182  1.1753  1.0276  1.0286
    4CHL1    O3  225   1.031   3.481  10.306 -0.2842  0.1373  0.2046
    4CHL1   H3'  226   1.109   3.536  10.320  0.7656 -0.8388 -1.5099
    4CHL1    C4  227   0.930   3.407  10.089  0.2404 -0.1008  0.4393
    4CHL1   H4A  228   1.015   3.341  10.062 -0.0629  0.5647 -2.5424
    4CHL1   H4B  229   0.854   3.353  10.150  0.0472  1.3945  1.5829
    4CHL1    C5  230   0.873   3.471   9.959 -0.0793 -0.8751 -0.0919
    4CHL1    C6  231   0.744   3.468   9.922 -0.0089  0.4019  0.2851
    4CHL1    H6  232   0.666   3.429   9.988 -2.1628  2.3689 -0.9453
    4CHL1    C7  233   0.692   3.508   9.787 -0.2799 -0.0599 -0.1840
    4CHL1   H7A  234   0.620   3.431   9.753 -1.0182 -0.6885  2.5199
    4CHL1   H7B  235   0.654   3.611   9.799 -0.7546 -0.3395  0.9204
    4CHL1    C8  236   0.809   3.512   9.683  0.4660  0.5391 -0.2460
    4CHL1    H8  237   0.855   3.412   9.670 -0.7626  0.0426 -0.9639
    4CHL1   C14  238   0.760   3.576   9.553  0.3513 -0.2692  0.0963
    4CHL1   H14  239   0.720   3.676   9.582  0.2440  0.0474 -1.0992
    4CHL1   C15  240   0.643   3.514   9.471  0.4018 -0.2777 -0.1998
    4CHL1  H15A  241   0.666   3.407   9.453 -0.0328 -0.5149  0.6030
    4CHL1  H15B  242   0.543   3.508   9.520 -0.0242 -1.7364 -1.1571
    4CHL1   C16  243   0.660   3.582   9.332  0.3290 -0.0171  0.3612
    4CHL1  H16A  244   0.662   3.510   9.248 -0.2392 -0.1819  0.4832
    4CHL1  H16B  245   0.575   3.653   9.323 -2.8133 -3.6625 -1.3179
    4CHL1   C17  246   0.794   3.664   9.332 -0.0598  0.5784 -0.3605
    4CHL1   H17  247   0.774   3.770   9.357  1.2830  0.4364  1.6002
    4CHL1   C13  248   0.868   3.608   9.446  0.3848 -0.4509 -0.3270
    4CHL1   C18  249   0.950   3.480   9.403  0.0197  0.0888 -0.1547
    4CHL1  H18A  250   1.031   3.498   9.330  0.5972  1.0961  0.7048
    4CHL1  H18B  251   0.984   3.426   9.494  0.2358  2.9604  1.6196
    4CHL1  H18C  252   0.883   3.411   9.348  1.1404 -2.0115  1.0125
    4CHL1   C12  253   0.956   3.714   9.520 -0.7273  0.2634  0.1201
    4CHL1  H12A  254   1.029   3.762   9.451 -0.3911  0.2016  0.4293
    4CHL1  H12B  255   0.893   3.797   9.556 -0.7141 -0.7644  2.7020
    4CHL1   C11  256   1.023   3.661   9.650  0.1659  0.6547 -0.3659
    4CHL1  H11A  257   1.092   3.585   9.608 -1.2843  0.5988 -2.8568
    4CHL1  H11B  258   1.072   3.753   9.688  0.1863  0.8811 -0.9372
    4CHL1    C9  259   0.916   3.600   9.747  0.4767  0.1540 -0.0149
    4CHL1    H9  260   0.872   3.689   9.797  3.1202  1.3441  0.3839
    4CHL1   C10  261   0.985   3.533   9.874  0.2041  0.1571  0.4626
    4CHL1   C19  262   1.084   3.427   9.818  0.2511  0.5388 -0.9176
    4CHL1  H19A  263   1.159   3.463   9.744 -0.6531  0.0971 -2.0728
    4CHL1  H19B  264   1.145   3.373   9.894  2.4898 -0.5783 -3.3178
    4CHL1  H19C  265   1.028   3.343   9.771 -1.2608  0.7009  0.5156
    4CHL1    C1  266   1.051   3.638   9.961  0.0980 -0.1217 -0.3224
    4CHL1   H1A  267   1.141   3.685   9.915  1.2406  0.0905  1.9769
    4CHL1   H1B  268   0.980   3.719   9.989  2.8262  2.5715 -0.6413
    4CHL1    C2  269   1.101   3.587  10.097 -0.2783  0.7960 -0.3426
    4CHL1   H2A  270   1.138   3.668  10.163 -1.6544 -0.0080  1.5003
    4CHL1   H2B  271   1.186   3.516  10.083 -0.0661  0.3265  2.6855
    4CHL1   C20  272   0.852   3.657   9.183 -0.5123  0.2407  0.1398
    4CHL1   H20  273   0.875   3.549   9.169 -1.3910 -0.2903  2.4548
    4CHL1   C21  274   0.985   3.739   9.188  0.1175 -0.0751  0.7585
    4CHL1  H21A  275   1.029   3.765   9.089 -0.1007  0.6608  0.8460
    4CHL1  H21B  276   1.066   3.695   9.249  1.6205 -1.0746 -1.7976
    4CHL1  H21C  277   0.969   3.840   9.232  0.7265 -0.0648  0.9575
    4CHL1   C22  278   0.757   3.720   9.079 -0.0034  0.1629 -0.1443
    4CHL1  H22A  279   0.651   3.716   9.112 -0.2334  0.6597 -0.7981
    4CHL1  H22B  280   0.796   3.823   9.066  1.3952 -0.2570  0.5337
    4CHL1   C23  281   0.756   3.647   8.943 -0.2879  0.4505 -0.4206
    4CHL1  H23A  282   0.858   3.647   8.898  0.3769 -0.0492  1.0148
    4CHL1  H23B  283   0.740   3.539   8.959  0.0162  0.4169 -0.3289
    4CHL1   C24  284   0.656   3.699   8.839  0.2496  0.4573 -0.1051
    4CHL1  H24A  285   0.565   3.700   8.902  0.5955 -0.0471  0.4132
    4CHL1  H24B  286   0.675   3.806   8.815  1.2291  0.6018  1.1874
    4CHL1   C25  287   0.651   3.631   8.699 -0.5782  0.2231 -0.3960
    4CHL1   H25  288   0.630   3.523   8.715 -2.2379  0.1944 -2.2969
    4CHL1   C26  289   0.524   3.666   8.622 -0.4707 -0.8228 -0.1118
    4CHL1  H26A  290   0.440   3.653   8.694  0.2513 -0.2087  0.8768
    4CHL1  H26B  291   0.525   3.775   8.598 -0.9393  0.3099  4.1067
    4CHL1  H26C  292   0.501   3.591   8.544  2.2431 -2.2278  0.2944
    4CHL1   C27  293   0.780   3.660   8.621  0.4058  0.4436 -0.6671
    4CHL1  H27A  294   0.809   3.767   8.631 -0.0452  0.3665  2.7985
    4CHL1  H27B  295   0.867   3.599   8.653 -0.0879  0.0787  0.0075
    4CHL1  H27C  296   0.780   3.636   8.513 -0.3088  0.1549 -0.6088
    5CHL1    C3  297   2.221   2.109  10.038  0.4574  0.9927 -0.4309
    5CHL1    H3  298   2.289   2.039   9.984 -0.4739  1.0938 -1.7783
    5CHL1    O3  299   2.261   2.124  10.172 -0.1434  0.0525 -0.0664
    5CHL1   H3'  300   2.183   2.158  10.217 -0.0517 -0.4694  0.4941
    5CHL1    C4  301   2.232   2.240   9.973  0.0232 -0.3589 -0.2720
    5CHL1   H4A  302   2.166   2.309  10.030 -0.1835 -1.0669  0.3658
    5CHL1   H4B  303   2.339   2.269   9.984  0.0916 -0.4264 -0.7323
    5CHL1    C5  304   2.195   2.235   9.821 -0.3260  0.2572  0.2545
    5CHL1    C6  305   2.285   2.274   9.729  0.5254  0.4397  0.1959
    5CHL1    H6  306   2.380   2.317   9.763  0.3300  1.2274 -0.2181
    5CHL1    C7  307   2.273   2.255   9.580  0.6743 -0.2394 -0.4932
    5CHL1   H7A  308   2.302   2.351   9.532  0.9449 -0.9577 -1.8122
    5CHL1   H7B  309   2.332   2.163   9.561 -0.3516 -1.0790  0.2173
    5CHL1    C8  310   2.122   2.214   9.541 -0.1291 -0.5364  0.3675
    5CHL1    H8  311   2.051   2.299   9.545 -0.9578 -1.2233  0.5275
    5CHL1   C14  312   2.119   2.149   9.398  0.1397  0.0060 -0.2645
    5CHL1   H14  313   2.187   2.061   9.403  0.6825  0.3338 -1.6537
    5CHL1   C15  314   2.175   2.232   9.285 -1.0582 -0.3803  0.2659
    5CHL1  H15A  315   2.130   2.333   9.278 -0.2655  0.2614  3.0677
    5CHL1  H15B  316   2.280   2.267   9.294 -1.5042  0.7320  1.4630
    5CHL1   C16  317   2.135   2.151   9.157  0.5314 -0.1817 -0.0006
    5CHL1  H16A  318   2.081   2.226   9.096 -1.2462  0.4379  2.2178
    5CHL1  H16B  319   2.222   2.106   9.103 -0.6222 -3.6438  0.7630
    5CHL1   C17  320   2.037   2.039   9.202 -1.2022  0.1402  0.2418
    5CHL1   H17  321   2.090   1.942   9.219  2.0200  1.8674  0.9006
    5CHL1   C13  322   1.986   2.088   9.344 -0.0805 -0.9450 -0.8908
    5CHL1   C18  323   1.895   2.213   9.314  0.1251  0.5663  0.0079
    5CHL1  H18A  324   1.794   2.174   9.288 -0.5221  2.4335 -0.4057
    5CHL1  H18B  325   1.884   2.273   9.406 -1.3710  0.6802 -0.2265
    5CHL1  H18C  326   1.923   2.276   9.227 -1.7315  0.8849 -0.3876
    5CHL1   C12  327   1.931   1.988   9.444 -0.9089  0.1100 -0.3672
    5CHL1  H12A  328   1.832   1.947   9.418 -0.4105 -0.6031 -1.2084
    5CHL1  H12B  329   2.001   1.902   9.450 -0.7564  0.2721  0.3067
    5CHL1   C11  330   1.933   2.045   9.591  0.7759 -0.6856  0.2860
    5CHL1  H11A  331   1.850   2.118   9.595  0.5202 -0.9075 -0.5679
    5CHL1  H11B  332   1.913   1.961   9.660  1.1877  0.8883  2.4009
    5CHL1    C9  333   2.066   2.110   9.639  1.1481  0.0299  0.6774
    5CHL1    H9  334   2.139   2.026   9.641 -1.0175 -1.9482  0.2435
    5CHL1   C10  335   2.057   2.162   9.784 -0.5474 -0.0703  0.2687
    5CHL1   C19  336   1.941   2.263   9.819 -0.5016  0.1088  0.3801
    5CHL1  H19A  337   1.932   2.301   9.923 -1.3322  1.9077 -0.3191
    5CHL1  H19B  338   1.945   2.344   9.744  2.6742  0.3109  0.6001
    5CHL1  H19C  339   1.848   2.209   9.791  0.6362 -1.5947 -0.2537
    5CHL1    C1  340   2.044   2.037   9.882 -0.6619 -0.0810  0.5166
    5CHL1   H1A  341   1.944   1.993   9.864 -0.1050 -1.0363 -0.3139
    5CHL1   H1B  342   2.112   1.953   9.856  0.2459  0.4423  1.1279
    5CHL1    C2  343   2.079   2.058  10.030  0.1978 -0.3229  0.1756
    5CHL1   H2A  344   2.072   1.959  10.081  0.6948 -0.5056 -0.1005
    5CHL1   H2B  345   2.007   2.129  10.075  1.6268  0.3711  1.4533
    5CHL1   C20  346   1.930   2.009   9.095  0.4255  0.2533 -0.2983
    5CHL1   H20  347   1.864   2.098   9.084  2.4237  1.8023 -0.3317
    5CHL1   C21  348   1.832   1.896   9.137  0.1858  0.0355  0.3970
    5CHL1  H21A  349   1.764   1.869   9.054  1.3211 -1.0770 -0.1924
    5CHL1  H21B  350   1.766   1.923   9.223  0.7767  0.0116  0.8608
    5CHL1  H21C  351   1.896   1.810   9.165  3.4965  2.1090 -0.2736
    5CHL1   C22  352   1.978   1.980   8.947  0.3389 -0.0650  0.1311
    5CHL1  H22A  353   2.081   2.021   8.936  0.9921 -1.8226 -0.6886
    5CHL1  H22B  354   1.983   1.872   8.925  2.0772  0.4429 -2.5029
    5CHL1   C23  355   1.895   2.066   8.847 -0.9166 -0.3453  0.2040
    5CHL1  H23A  356   1.788   2.086   8.868 -0.8972  0.5538 -0.5062
    5CHL1  H23B  357   1.939   2.167   8.857 -0.3202 -0.6776  1.0872
    5CHL1   C24  358   1.897   2.015   8.698 -0.0997 -0.0622 -0.1767
    5CHL1  H24A  359   1.997   1.992   8.657 -0.3812  0.9004 -1.4414
    5CHL1  H24B  360   1.843   1.920   8.682 -1.8958  0.4150  2.3768
    5CHL1   C25  361   1.825   2.106   8.591  0.0221 -0.3077 -0.1331
    5CHL1   H25  362   1.726   2.127   8.636  0.3199 -0.1928  0.4775
    5CHL1   C26  363   1.893   2.245   8.566 -0.3405  0.4051 -0.1107
    5CHL1  H26A  364   1.900   2.320   8.648  0.8848  1.8262 -1.4433
    5CHL1  H26B  365   1.995   2.217   8.530  1.1644  4.9607 -0.0791
    5CHL1  H26C  366   1.843   2.294   8.480 -1.4744 -0.8001 -0.1639
    5CHL1   C27  367   1.818   2.024   8.462 -0.0349  0.3782 -0.7257
    5CHL1  H27A  368   1.912   1.973   8.434 -0.7039  0.1896 -2.8609
    5CHL1  H27B  369   1.758   1.933   8.483  0.8658 -0.3792 -1.3575
    5CHL1  H27C  370   1.774   2.074   8.373 -0.2073 -1.9527 -2.0322
    6CHL1    C3  371   0.575   6.454  10.439  0.4352  0.0555  0.6529
    6CHL1    H3  372   0.476   6.505  10.443  0.3322  0.1180 -1.5479
    6CHL1    O3  373   0.624   6.447  10.568 -0.0517 -0.2586 -0.7252
    6CHL1   H3'  374   0.628   6.539  10.594 -1.3714  0.2039 -2.0284
    6CHL1    C4  375   0.563   6.305  10.389  0.0063  0.1277 -0.1226
    6CHL1   H4A  376   0.663   6.261  10.410 -1.0198 -2.5304 -0.3788
    6CHL1   H4B  377   0.484   6.258  10.453  0.6446  0.7770  1.1810
    6CHL1    C5  378   0.523   6.295  10.239  0.2307  0.6169  0.0535
    6CHL1    C6  379   0.419   6.216  10.192 -0.5393 -0.5380 -0.4169
    6CHL1    H6  380   0.361   6.168  10.273 -1.3894  1.8315  0.4546
    6CHL1    C7  381   0.393   6.195  10.045  0.3453 -0.5863 -0.4599
    6CHL1   H7A  382   0.379   6.086  10.033 -0.0980 -1.2694  4.3156
    6CHL1   H7B  383   0.298   6.241  10.011  1.1457  1.7707  0.3166
    6CHL1    C8  384   0.506   6.238   9.944  0.0123 -0.8701  0.3817
    6CHL1    H8  385   0.592   6.169   9.932 -0.0647 -0.7665 -0.7936
    6CHL1   C14  386   0.433   6.248   9.805 -0.6222  1.0537 -0.0962
    6CHL1   H14  387   0.358   6.325   9.833 -0.1227  0.7710  2.2017
    6CHL1   C15  388   0.367   6.130   9.750  0.9749  0.8397 -0.2267
    6CHL1  H15A  389   0.429   6.040   9.773 -0.1182  0.2532  0.4659
    6CHL1  H15B  390   0.268   6.111   9.795  1.6349  0.5386  1.1475
    6CHL1   C16  391   0.366   6.165   9.597  0.1739  0.5753  0.1085
    6CHL1  H16A  392   0.432   6.093   9.544 -1.7659 -0.5750 -0.8554
    6CHL1  H16B  393   0.261   6.159   9.562 -0.0232 -0.5040  0.8395
    6CHL1   C17  394   0.429   6.305   9.576  0.7468 -0.6885 -0.2965
    6CHL1   H17  395   0.355   6.385   9.597  1.6876  0.2646 -0.5530
    6CHL1   C13  396   0.519   6.313   9.696  0.1981  0.1001  0.2013
    6CHL1   C18  397   0.643   6.223   9.676 -0.2712  0.2292 -0.3401
    6CHL1  H18A  398   0.619   6.118   9.650 -0.0285 -0.0763  0.6253
    6CHL1  H18B  399   0.705   6.260   9.592 -0.7491  0.8694 -0.4214
    6CHL1  H18C  400   0.692   6.217   9.775  1.1007 -1.4992 -1.0797
    6CHL1   C12  401   0.562   6.451   9.735 -0.3105 -0.0818 -0.3699
    6CHL1  H12A  402   0.636   6.486   9.660 -0.2397 -0.8120 -0.6535
    6CHL1  H12B  403   0.476   6.521   9.733  0.0874  0.4708  0.8163
    6CHL1   C11  404   0.629   6.458   9.880  0.5914 -0.2811  0.0874
    6CHL1  H11A  405   0.732   6.417   9.872  0.5259 -0.4202 -0.0418
    6CHL1  H11B  406   0.647   6.565   9.905  1.6478  0.6404 -3.9343
    6CHL1    C9  407   0.554   6.376   9.995 -0.9317  0.3513  0.6052
    6CHL1    H9  408   0.457   6.425  10.021 -1.6093 -0.1414 -0.8559
    6CHL1   C10  409   0.615   6.374  10.143  0.2447  0.0554 -0.5876
    6CHL1   C19  410   0.755   6.311  10.142 -0.4680 -0.0455  0.1411
    6CHL1  H19A  411   0.742   6.203  10.116  0.5746 -0.1112 -0.1654
    6CHL1  H19B  412   0.817   6.354  10.060 -0.3468  0.1737  0.3493
    6CHL1  H19C  413   0.816   6.330  10.232 -1.0015  1.3944  0.2223
    6CHL1    C1  414   0.625   6.521  10.192 -0.0655 -0.1666 -0.0043
    6CHL1   H1A  415   0.689   6.588  10.131 -0.5773  0.1725 -0.1857
    6CHL1   H1B  416   0.525   6.568  10.176 -0.0524 -0.2883 -0.4536
    6CHL1    C2  417   0.658   6.541  10.344  0.4551  0.0287 -0.1809
    6CHL1   H2A  418   0.632   6.648  10.358 -1.3159 -0.4443  0.4841
    6CHL1   H2B  419   0.765   6.517  10.359  0.8671  1.7644 -0.1991
    6CHL1   C20  420   0.482   6.340   9.437 -0.4353 -1.1234 -0.0845
    6CHL1   H20  421   0.585   6.300   9.419  1.4251  2.1102  2.2346
    6CHL1   C21  422   0.494   6.493   9.414  0.4708 -0.1249 -0.2396
    6CHL1  H21A  423   0.517   6.519   9.309  1.4339 -1.8617 -0.5100
    6CHL1  H21B  424   0.584   6.531   9.467  2.1526 -1.4347 -2.0033
    6CHL1  H21C  425   0.407   6.547   9.457 -1.0544 -1.4813 -1.4357
    6CHL1   C22  426   0.400   6.282   9.323  0.4649  0.3843  0.3023
    6CHL1  H22A  427   0.392   6.172   9.337 -0.4303  0.3140 -0.6876
    6CHL1  H22B  428   0.300   6.331   9.323 -0.0394 -0.5514  2.1554
    6CHL1   C23  429   0.474   6.285   9.187  0.1305  0.4467 -0.1832
    6CHL1  H23A  430   0.480   6.389   9.149 -0.3039  1.0186  1.2657
    6CHL1  H23B  431   0.580   6.252   9.187  0.3784  1.1930 -1.1513
    6CHL1   C24  432   0.386   6.196   9.100 -0.2892 -0.3480 -0.1887
    6CHL1  H24A  433   0.370   6.090   9.128  0.7654 -0.4630  0.0366
    6CHL1  H24B  434   0.286   6.244   9.093  0.2274  0.9011  0.6650
    6CHL1   C25  435   0.432   6.181   8.953 -0.5130 -0.6966  0.0331
    6CHL1   H25  436   0.528   6.126   8.955 -1.2642 -2.1143 -0.7638
    6CHL1   C26  437   0.342   6.090   8.880  0.5828  0.2269  0.0580
    6CHL1  H26A  438   0.338   5.985   8.914  0.4403  0.0576 -0.4601
    6CHL1  H26B  439   0.236   6.119   8.899  0.8144  2.3980 -1.5222
    6CHL1  H26C  440   0.365   6.106   8.772  2.6063 -0.4242  0.3639
    6CHL1   C27  441   0.451   6.314   8.881  0.5254  0.3480 -0.0253
    6CHL1  H27A  442   0.483   6.311   8.774  1.8190  2.2325  0.2654
    6CHL1  H27B  443   0.360   6.378   8.887 -0.3945 -0.8771 -0.2675
    6CHL1  H27C  444   0.540   6.373   8.909  1.8953 -0.5983 -2.1579
    7CHL1    C3  445   1.594   0.899  10.268  0.0858  0.9104 -0.5992
    7CHL1    H3  446   1.697   0.859  10.267 -1.3193 -3.4291  1.7314
    7CHL1    O3  447   1.563   0.955  10.394 -0.0439 -0.4579 -0.4711
    7CHL1   H3'  448   1.633   1.020  10.408  1.1573 -1.1992 -2.6271
    7CHL1    C4  449   1.570   1.009  10.166  0.0017 -0.3502 -0.0534
    7CHL1   H4A  450   1.470   1.056  10.175 -0.1914 -0.4790 -1.3780
    7CHL1   H4B  451   1.641   1.092  10.188  0.0719 -0.1433 -1.0388
    7CHL1    C5  452   1.597   0.956  10.025 -0.2566 -0.6781  0.4867
    7CHL1    C6  453   1.683   1.025   9.944  0.0373  0.0297  0.1395
    7CHL1    H6  454   1.732   1.115   9.983  2.2900 -1.2551  0.4402
    7CHL1    C7  455   1.701   0.991   9.803 -0.6139  0.4094  0.1832
    7CHL1   H7A  456   1.691   1.079   9.735 -2.9283 -0.6166 -0.9349
    7CHL1   H7B  457   1.804   0.959   9.779 -0.1895  1.3501  0.7161
    7CHL1    C8  458   1.610   0.881   9.746 -0.0713  0.3151  0.0987
    7CHL1    H8  459   1.508   0.918   9.725  0.5902  1.4542 -1.1998
    7CHL1   C14  460   1.660   0.823   9.618  0.1296 -0.1139  0.7048
    7CHL1   H14  461   1.762   0.786   9.641 -0.4409 -2.0217  0.3732
    7CHL1   C15  462   1.681   0.909   9.498  0.1181 -0.1751  0.3290
    7CHL1  H15A  463   1.579   0.949   9.477 -1.5065 -4.0998 -0.2617
    7CHL1  H15B  464   1.745   0.995   9.523 -0.3590  0.1431  0.4754
    7CHL1   C16  465   1.716   0.819   9.383  0.1773 -0.0118  0.2807
    7CHL1  H16A  466   1.659   0.853   9.293  2.9751  2.2332 -0.8276
    7CHL1  H16B  467   1.822   0.837   9.355 -0.2708  2.9543  0.1533
    7CHL1   C17  468   1.685   0.674   9.433 -0.4571  0.0311  0.1152
    7CHL1   H17  469   1.780   0.633   9.474 -2.6497 -1.1511  4.6115
    7CHL1   C13  470   1.598   0.704   9.561  0.8414 -0.0749  0.0060
    7CHL1   C18  471   1.450   0.747   9.522 -0.0391 -0.2251 -0.0885
    7CHL1  H18A  472   1.403   0.647   9.509  3.1773 -1.9967  0.6521
    7CHL1  H18B  473   1.398   0.794   9.608  0.4327 -1.2600  0.7909
    7CHL1  H18C  474   1.444   0.803   9.427 -0.0012 -3.1723 -1.9600
    7CHL1   C12  475   1.597   0.591   9.668  0.6859 -0.4473 -0.3940
    7CHL1  H12A  476   1.532   0.507   9.636  0.2228  0.2237 -1.2676
    7CHL1  H12B  477   1.701   0.559   9.686 -0.2683 -3.0587  1.0842
    7CHL1   C11  478   1.530   0.642   9.799 -1.2647  0.0154 -0.4992
    7CHL1  H11A  479   1.421   0.652   9.777 -0.6885 -0.5780 -4.4408
    7CHL1  H11B  480   1.544   0.564   9.877 -0.3290 -1.1577 -1.7891
    7CHL1    C9  481   1.600   0.771   9.857  0.9245 -0.1244  0.2581
    7CHL1    H9  482   1.704   0.735   9.872  0.9471  0.2031  0.9321
    7CHL1   C10  483   1.533   0.821   9.986  0.4978 -0.3760  0.4298
    7CHL1   C19  484   1.380   0.850   9.966  0.1885 -0.2351 -0.4814
    7CHL1  H19A  485   1.360   0.915   9.879 -1.2123  1.4704  1.0382
    7CHL1  H19B  486   1.339   0.749   9.942 -0.3221 -0.3542  0.8116
    7CHL1  H19C  487   1.316   0.876  10.053 -0.1189  0.9788 -1.0562
    7CHL1    C1  488   1.551   0.719  10.102  0.1005  0.2183 -0.3257
    7CHL1   H1A  489   1.488   0.629  10.081 -0.6160  0.8696 -1.0890
    7CHL1   H1B  490   1.658   0.691  10.098 -0.1713 -0.8343 -3.4822
    7CHL1    C2  491   1.509   0.772  10.240 -0.4620  0.0052  1.1390
    7CHL1   H2A  492   1.524   0.700  10.324  0.9965 -0.0990  0.8088
    7CHL1   H2B  493   1.402   0.801  10.240 -0.3491  0.4986 -0.1317
    7CHL1   C20  494   1.623   0.580   9.329  0.3780 -0.1754  0.6187
    7CHL1   H20  495   1.516   0.608   9.321  0.5933  1.2087  2.1360
    7CHL1   C21  496   1.640   0.440   9.372  0.1686 -0.1210  0.4705
    7CHL1  H21A  497   1.748   0.412   9.374  0.7144  1.6420 -1.1260
    7CHL1  H21B  498   1.591   0.377   9.294 -1.2238  2.3807 -0.7989
    7CHL1  H21C  499   1.598   0.416   9.472 -0.0143  1.0174  0.6862
    7CHL1   C22  500   1.664   0.604   9.182  0.4526  0.2992  0.6450
    7CHL1  H22A  501   1.606   0.535   9.118  0.9811  0.7186 -0.3037
    7CHL1  H22B  502   1.639   0.710   9.157 -4.6287 -0.9829 -0.8451
    7CHL1   C23  503   1.815   0.575   9.147 -0.4557 -0.0002  0.4703
    7CHL1  H23A  504   1.865   0.670   9.175 -2.2453  1.1523 -0.1026
    7CHL1  H23B  505   1.855   0.478   9.185  1.7403  0.2489 -1.0025
    7CHL1   C24  506   1.823   0.557   8.994  1.3109  0.4542 -0.1658
    7CHL1  H24A  507   1.758   0.471   8.965  0.6815  0.5266  0.9767
    7CHL1  H24B  508   1.761   0.643   8.960  0.7068  1.0256  2.2004
    7CHL1   C25  509   1.969   0.550   8.936 -0.1823 -0.4564 -0.4841
    7CHL1   H25  510   2.029   0.622   8.995  3.7575 -3.5074 -0.3823
    7CHL1   C26  511   2.028   0.409   8.946  0.0030 -1.0090  0.5541
    7CHL1  H26A  512   1.976   0.346   9.021  1.6793 -2.2868  0.7103
    7CHL1  H26B  513   2.024   0.365   8.844 -0.1632  1.5317 -0.6085
    7CHL1  H26C  514   2.139   0.413   8.960  0.1094 -2.7881  0.4464
    7CHL1   C27  515   1.965   0.598   8.792 -0.2056  0.6137 -0.7080
    7CHL1  H27A  516   1.915   0.529   8.719  0.6026 -1.9331  1.0115
    7CHL1  H27B  517   1.912   0.694   8.774 -2.0978 -0.2497 -0.0526
    7CHL1  H27C  518   2.068   0.607   8.753  0.4468 -3.3759 -0.3736
    8CHL1    C3  519   2.069   1.352  10.271  0.4460 -0.4138  0.0347
    8CHL1    H3  520   2.105   1.457  10.269 -1.6449  0.3620  0.1252
    8CHL1    O3  521   2.055   1.322  10.408  0.1666  0.2164 -0.2123
    8CHL1   H3'  522   1.986   1.376  10.447  0.4845  2.1693 -2.1262
    8CHL1    C4  523   1.929   1.359  10.203 -0.0229  0.4434 -0.2048
    8CHL1   H4A  524   1.875   1.263  10.219 -1.8171  0.9691 -2.5507
    8CHL1   H4B  525   1.862   1.428  10.257  0.9836 -0.1004  1.8391
    8CHL1    C5  526   1.939   1.399  10.053 -0.0056  0.6144 -0.1758
    8CHL1    C6  527   1.864   1.499  10.011 -0.1917 -0.3183 -0.2604
    8CHL1    H6  528   1.797   1.551  10.082 -0.3906 -1.8864  0.7590
    8CHL1    C7  529   1.867   1.538   9.870 -0.1770 -0.2984  0.2131
    8CHL1   H7A  530   1.762   1.557   9.837 -1.0215 -3.0796  1.0901
    8CHL1   H7B  531   1.919   1.636   9.859  0.2567 -0.5980 -0.5273
    8CHL1    C8  532   1.930   1.432   9.774  0.1166 -0.0888 -0.5746
    8CHL1    H8  533   1.855   1.352   9.759 -0.5752  0.3196  0.5744
    8CHL1   C14  534   1.955   1.487   9.633  0.0639 -1.2702 -0.1149
    8CHL1   H14  535   2.020   1.576   9.643  0.5282 -1.6141 -0.0096
    8CHL1   C15  536   1.836   1.555   9.560 -0.6700  0.1464 -0.5774
    8CHL1  H15A  537   1.737   1.508   9.577  0.2345 -1.1185  1.5771
    8CHL1  H15B  538   1.834   1.660   9.597 -1.9654 -0.1493  0.2318
    8CHL1   C16  539   1.881   1.567   9.413 -0.4080 -0.5253 -0.2236
    8CHL1  H16A  540   1.801   1.519   9.353 -1.6697 -0.4675  1.3470
    8CHL1  H16B  541   1.898   1.669   9.374  1.5417 -1.2166 -1.3474
    8CHL1   C17  542   2.015   1.483   9.406 -0.0484  0.0919 -0.1419
    8CHL1   H17  543   2.104   1.548   9.416  1.3023 -1.8335  1.0819
    8CHL1   C13  544   2.024   1.393   9.530  0.6474  0.0106  0.2860
    8CHL1   C18  545   1.937   1.264   9.507 -0.0061  0.7498  0.2582
    8CHL1  H18A  546   1.918   1.214   9.604  3.3746 -0.3541  0.4571
    8CHL1  H18B  547   1.837   1.295   9.468 -0.0793 -0.3341 -0.4900
    8CHL1  H18C  548   1.985   1.189   9.441 -0.9368  2.1025 -2.1061
    8CHL1   C12  549   2.159   1.359   9.598  0.2824 -0.5398  0.0547
    8CHL1  H12A  550   2.211   1.290   9.528 -1.3162  0.8768 -2.7236
    8CHL1  H12B  551   2.226   1.447   9.610 -1.4100  0.5635  2.0226
    8CHL1   C11  552   2.152   1.302   9.741  0.2748  0.3394  0.2111
    8CHL1  H11A  553   2.108   1.201   9.729  2.2475 -0.7666  1.5657
    8CHL1  H11B  554   2.256   1.284   9.775  0.8903  0.8279 -1.3280
    8CHL1    C9  555   2.062   1.383   9.835  0.5956 -0.4909  0.6778
    8CHL1    H9  556   2.118   1.478   9.849 -0.0162 -0.3863  2.6847
    8CHL1   C10  557   2.047   1.319   9.974 -0.3730 -0.3622  0.2691
    8CHL1   C19  558   1.992   1.173   9.964 -0.4504 -0.5086 -0.5899
    8CHL1  H19A  559   1.905   1.169   9.895 -2.7487 -0.7761  2.1533
    8CHL1  H19B  560   2.076   1.108   9.933  0.0668 -0.1966  0.1319
    8CHL1  H19C  561   1.963   1.139  10.066 -0.2305  1.2789  0.1113
    8CHL1    C1  562   2.180   1.320  10.050  0.5799  0.5673 -0.0129
    8CHL1   H1A  563   2.263   1.272   9.992 -0.3544  0.6120 -1.4436
    8CHL1   H1B  564   2.220   1.424  10.056  0.5765  0.6950 -1.6750
    8CHL1    C2  565   2.169   1.259  10.195 -0.2572  0.0792  0.1557
    8CHL1   H2A  566   2.271   1.263  10.239 -0.5445  0.7347  0.7868
    8CHL1   H2B  567   2.137   1.152  10.196 -0.4773  0.1236 -0.9864
    8CHL1   C20  568   2.026   1.412   9.269 -0.7016 -0.4667  0.2511
    8CHL1   H20  569   1.949   1.331   9.264 -0.2404 -1.0433  1.7997
    8CHL1   C21  570   2.172   1.354   9.258 -0.0704 -0.4671  0.2616
    8CHL1  H21A  571   2.245   1.436   9.240 -0.9885  0.3245  0.0508
    8CHL1  H21B  572   2.183   1.288   9.169  0.5024 -0.6189  0.4438
    8CHL1  H21C  573   2.205   1.306   9.353  0.3117  1.4221  1.1211
    8CHL1   C22  574   1.993   1.507   9.150 -0.1655  0.6097 -0.3029
    8CHL1  H22A  575   1.887   1.535   9.164 -0.0102  0.5482  1.1383
    8CHL1  H22B  576   2.059   1.596   9.155  1.4981 -0.6050  0.3548
    8CHL1   C23  577   2.022   1.442   9.014 -0.2538  0.5230 -0.0974
    8CHL1  H23A  578   2.132   1.431   9.006 -0.2067  0.8672  0.0309
    8CHL1  H23B  579   1.970   1.344   9.013 -0.2111  0.4991  0.0592
    8CHL1   C24  580   1.958   1.527   8.900  0.3205  0.3729  0.1825
    8CHL1  H24A  581   1.849   1.529   8.918 -0.2556  3.2827 -2.7272
    8CHL1  H24B  582   1.999   1.631   8.907 -1.2987  1.0558 -0.1433
    8CHL1   C25  583   1.989   1.477   8.758  0.1076  0.7281 -0.3620
    8CHL1   H25  584   2.093   1.443   8.741  0.2379  1.0393 -0.1984
    8CHL1   C26  585   1.897   1.358   8.721 -0.2888 -0.5223 -0.1551
    8CHL1  H26A  586   1.918   1.270   8.786  0.0295  0.9366  1.7919
    8CHL1  H26B  587   1.789   1.375   8.738 -0.6912 -4.2017  2.0027
    8CHL1  H26C  588   1.918   1.332   8.615  0.0604  0.8289 -0.4304
    8CHL1   C27  589   1.962   1.591   8.652 -0.2963  0.5349 -0.5102
    8CHL1  H27A  590   1.858   1.628   8.649 -0.7986 -0.6938  0.6561
    8CHL1  H27B  591   2.024   1.681   8.674  1.8646 -0.9380 -0.2076
    8CHL1  H27C  592   1.988   1.561   8.548 -0.3997 -0.0137 -0.3802
    9CHL1    C3  593   6.478   6.589  10.306  0.0292 -0.1430  0.1909
    9CHL1    H3  594   6.582   6.556  10.288  0.0181 -1.0850  1.6995
    9CHL1    O3  595   6.443   6.572  10.438  0.4638  0.6068  0.0260
    9CHL1   H3'  596   6.375   6.505  10.433  0.5676  0.4881  0.1847
    9CHL1    C4  597   6.456   6.731  10.274 -0.1949 -0.0406 -0.3165
    9CHL1   H4A  598   6.349   6.748  10.299 -0.2636 -1.9365  0.8800
    9CHL1   H4B  599   6.527   6.794  10.331 -0.0286  0.2467 -0.8387
    9CHL1    C5  600   6.482   6.756  10.130 -0.1352  0.4871  0.3336
    9CHL1    C6  601   6.569   6.854  10.082  0.3469 -0.1530  0.2994
    9CHL1    H6  602   6.629   6.909  10.156  0.6230  2.0159 -1.4184
    9CHL1    C7  603   6.586   6.894   9.937  0.2118 -0.2770  0.3454
    9CHL1   H7A  604   6.584   7.005   9.937 -1.1781 -0.2461  2.2423
    9CHL1   H7B  605   6.690   6.869   9.909 -0.0312 -1.3215  0.3534
    9CHL1    C8  606   6.479   6.837   9.840  0.6953  0.0723  0.0575
    9CHL1    H8  607   6.383   6.892   9.849 -0.6535 -2.3552  1.8498
    9CHL1   C14  608   6.543   6.833   9.702  0.0047 -0.0296 -0.0981
    9CHL1   H14  609   6.619   6.753   9.715  0.2217 -0.2520 -2.2763
    9CHL1   C15  610   6.619   6.958   9.651  0.0805 -0.0242  0.1338
    9CHL1  H15A  611   6.565   7.048   9.686 -0.0694  0.5026 -1.3979
    9CHL1  H15B  612   6.726   6.956   9.680  0.3426  0.2881 -0.7785
    9CHL1   C16  613   6.606   6.937   9.503 -0.1264 -0.1053 -0.2641
    9CHL1  H16A  614   6.557   7.020   9.449 -0.2772 -1.1495 -1.8025
    9CHL1  H16B  615   6.707   6.936   9.459  0.2269  3.2759  0.1911
    9CHL1   C17  616   6.523   6.805   9.475  0.5994  0.2523  0.5869
    9CHL1   H17  617   6.598   6.722   9.468  0.2245 -0.0357 -0.0762
    9CHL1   C13  618   6.446   6.790   9.595  0.2926  0.3976 -0.1666
    9CHL1   C18  619   6.321   6.880   9.588  0.2663  0.0727  0.8246
    9CHL1  H18A  620   6.264   6.863   9.494  2.5503 -0.4205 -0.5562
    9CHL1  H18B  621   6.256   6.852   9.674  0.9416 -1.2024  0.9480
    9CHL1  H18C  622   6.350   6.987   9.597  0.3773 -0.0511  2.2033
    9CHL1   C12  623   6.416   6.643   9.632 -0.7497 -0.1647  0.1408
    9CHL1  H12A  624   6.344   6.615   9.552 -0.7844  1.2228 -0.3419
    9CHL1  H12B  625   6.503   6.575   9.625  1.1374  2.1119  0.3061
    9CHL1   C11  626   6.354   6.625   9.767  0.5082  0.3222 -0.9706
    9CHL1  H11A  627   6.249   6.661   9.760  0.6553  0.5827 -1.9180
    9CHL1  H11B  628   6.347   6.515   9.784 -2.4728  0.5631  0.0720
    9CHL1    C9  629   6.447   6.689   9.879  0.1963  0.1486  0.1203
    9CHL1    H9  630   6.548   6.642   9.874  0.1896  0.3185 -2.5252
    9CHL1   C10  631   6.392   6.675  10.024  0.2172  0.2034 -0.4017
    9CHL1   C19  632   6.237   6.703  10.016 -0.1030  0.3294  0.6407
    9CHL1  H19A  633   6.214   6.797   9.963 -1.1418  0.5729  1.4992
    9CHL1  H19B  634   6.192   6.614   9.967  1.0305  1.0925 -1.9448
    9CHL1  H19C  635   6.199   6.699  10.120 -0.4957 -0.9758  0.4599
    9CHL1    C1  636   6.416   6.525  10.071  0.5165 -0.5249  0.0897
    9CHL1   H1A  637   6.343   6.464  10.014 -1.5442  1.2700  0.6600
    9CHL1   H1B  638   6.525   6.512  10.052  1.1892 -0.0062  3.0927
    9CHL1    C2  639   6.384   6.496  10.221 -0.4462  1.0529  0.8018
    9CHL1   H2A  640   6.408   6.389  10.237  0.3677  1.2471  0.9763
    9CHL1   H2B  641   6.280   6.524  10.246 -1.5231 -1.4583 -0.6224
    9CHL1   C20  642   6.456   6.811   9.333  0.3591 -0.9531  0.1684
    9CHL1   H20  643   6.374   6.885   9.338  2.5430  1.7670 -1.3717
    9CHL1   C21  644   6.398   6.673   9.295  0.1858  0.2446 -0.6249
    9CHL1  H21A  645   6.328   6.633   9.372  2.0630 -0.6003  0.7242
    9CHL1  H21B  646   6.481   6.600   9.280  1.0729  0.9533  0.6509
    9CHL1  H21C  647   6.336   6.689   9.204 -0.5075  0.1807 -0.1763
    9CHL1   C22  648   6.550   6.864   9.226  0.9649 -0.6475  0.7058
    9CHL1  H22A  649   6.590   6.962   9.258 -0.3788  0.2529 -0.2681
    9CHL1  H22B  650   6.637   6.795   9.220  0.5222 -1.1185 -0.9077
    9CHL1   C23  651   6.503   6.865   9.074 -0.0211 -0.1062 -0.0878
    9CHL1  H23A  652   6.497   6.759   9.043 -1.3089 -0.0060 -0.2647
    9CHL1  H23B  653   6.409   6.924   9.066 -0.4075 -0.2894  2.3095
    9CHL1   C24  654   6.610   6.925   8.975  0.4637  1.2455  0.5541
    9CHL1  H24A  655   6.643   7.031   8.988  1.3558  0.8361  1.8890
    9CHL1  H24B  656   6.700   6.866   9.002  0.1703 -0.4008 -1.7728
    9CHL1   C25  657   6.568   6.893   8.829 -0.3615  0.3445  0.5858
    9CHL1   H25  658   6.457   6.885   8.826 -0.2418 -1.3870 -0.5780
    9CHL1   C26  659   6.613   6.999   8.734  0.3783  0.2057 -0.5187
    9CHL1  H26A  660   6.720   7.021   8.754  0.8661 -1.8271 -0.7590
    9CHL1  H26B  661   6.598   6.968   8.629  1.8558  1.7204 -1.2207
    9CHL1  H26C  662   6.559   7.094   8.758  1.9502  1.1729 -0.6489
    9CHL1   C27  663   6.615   6.751   8.775  0.4822  0.2298  0.0239
    9CHL1  H27A  664   6.564   6.731   8.679 -0.0765  0.2360  0.3152
    9CHL1  H27B  665   6.723   6.757   8.748  0.0238  0.1846 -1.9861
    9CHL1  H27C  666   6.583   6.675   8.849  1.1124 -0.4220 -0.3727
   10CHL1    C3  667   3.299   1.993   9.934 -0.3046  0.0228  0.9197
   10CHL1    H3  668   3.334   2.097   9.952  0.2297 -0.2265  1.3668
   10CHL1    O3  669   3.281   1.942  10.058 -0.2248 -0.2972  0.0690
   10CHL1   H3'  670   3.211   1.993  10.100  1.8014  0.9568  2.1340
   10CHL1    C4  671   3.168   1.993   9.859  0.0261 -0.2426  0.0513
   10CHL1   H4A  672   3.123   1.895   9.884 -0.8767  0.4885  1.4237
   10CHL1   H4B  673   3.112   2.073   9.912  4.4434  1.2736  2.9598
   10CHL1    C5  674   3.180   2.022   9.713 -0.3132  0.1769 -0.3240
   10CHL1    C6  675   3.104   2.116   9.657  0.4651 -0.0412  0.5311
   10CHL1    H6  676   3.026   2.150   9.727 -1.1714  0.0217 -1.2582
   10CHL1    C7  677   3.097   2.147   9.512  0.1331  0.8708 -0.5517
   10CHL1   H7A  678   2.993   2.151   9.474 -0.0830 -1.8644 -0.4146
   10CHL1   H7B  679   3.124   2.254   9.498 -0.4456  1.5091  2.4484
   10CHL1    C8  680   3.166   2.043   9.426 -0.2985  0.5193 -0.0766
   10CHL1    H8  681   3.109   1.951   9.402  2.5244 -0.2424 -5.1857
   10CHL1   C14  682   3.197   2.104   9.290 -0.3675 -0.6526 -0.0894
   10CHL1   H14  683   3.283   2.170   9.312 -0.3201 -0.0560 -1.9420
   10CHL1   C15  684   3.091   2.194   9.225  0.2516 -0.2802 -0.1334
   10CHL1  H15A  685   2.988   2.153   9.235 -0.9021  2.1490 -1.1712
   10CHL1  H15B  686   3.088   2.302   9.249 -2.6216 -0.1278 -0.8190
   10CHL1   C16  687   3.121   2.179   9.075 -0.2578 -0.8221  0.1671
   10CHL1  H16A  688   3.042   2.118   9.025 -3.1165  3.2368 -0.8729
   10CHL1  H16B  689   3.131   2.278   9.024 -0.0768  0.9275  3.3431
   10CHL1   C17  690   3.257   2.091   9.057 -0.5442 -0.0430 -0.1252
   10CHL1   H17  691   3.349   2.153   9.071 -0.5935  0.2562 -1.0230
   10CHL1   C13  692   3.254   2.007   9.189 -0.4392  0.0927  0.5271
   10CHL1   C18  693   3.153   1.889   9.168  0.0096  0.0287  1.1691
   10CHL1  H18A  694   3.185   1.824   9.084  0.2146  0.9300  0.5377
   10CHL1  H18B  695   3.146   1.822   9.256 -0.6189 -0.1306  1.0012
   10CHL1  H18C  696   3.055   1.940   9.156  1.1538  2.3891  1.1734
   10CHL1   C12  697   3.389   1.965   9.252 -0.5308  0.4400 -0.0538
   10CHL1  H12A  698   3.443   1.888   9.194  0.3057  1.4034 -0.5832
   10CHL1  H12B  699   3.454   2.055   9.255 -0.2522  0.2746 -0.9802
   10CHL1   C11  700   3.384   1.917   9.401  0.7958 -0.3970  0.2364
   10CHL1  H11A  701   3.355   1.810   9.395 -1.2515  0.1902 -2.2426
   10CHL1  H11B  702   3.488   1.921   9.438  0.7013  0.2595  0.4430
   10CHL1    C9  703   3.294   1.998   9.492  0.5289 -0.3219 -0.3248
   10CHL1    H9  704   3.362   2.085   9.504 -0.2597  0.3866 -0.8970
   10CHL1   C10  705   3.282   1.943   9.631  0.0363 -0.2315  0.4860
   10CHL1   C19  706   3.221   1.803   9.619 -0.1590 -0.1764  0.2487
   10CHL1  H19A  707   3.215   1.762   9.722  1.9588 -0.8926  0.1272
   10CHL1  H19B  708   3.121   1.813   9.571 -1.4558 -0.7708  2.6272
   10CHL1  H19C  709   3.289   1.739   9.560 -0.2508  0.3405 -0.4358
   10CHL1    C1  710   3.418   1.948   9.707  0.4872 -0.0678  0.3584
   10CHL1   H1A  711   3.478   1.870   9.655 -1.4300 -0.1936 -1.8087
   10CHL1   H1B  712   3.456   2.052   9.702  0.7455 -0.0043  2.5711
   10CHL1    C2  713   3.406   1.909   9.856  0.3469 -0.0698 -0.1864
   10CHL1   H2A  714   3.502   1.933   9.906  0.6506  0.1383 -0.8659
   10CHL1   H2B  715   3.383   1.802   9.872  0.2389 -0.5461 -3.0731
   10CHL1   C20  716   3.275   2.021   8.926  0.3194  0.5413  0.1621
   10CHL1   H20  717   3.193   1.947   8.910 -0.3644  1.3109  0.0030
   10CHL1   C21  718   3.415   1.949   8.915  0.7556  0.7338 -0.6014
   10CHL1  H21A  719   3.424   1.878   9.000  1.2452 -1.2851 -2.2801
   10CHL1  H21B  720   3.498   2.022   8.922 -0.5855  2.4959 -2.0854
   10CHL1  H21C  721   3.436   1.888   8.825  3.2775  0.4644  0.0814
   10CHL1   C22  722   3.261   2.118   8.803  0.0614 -0.3771 -0.3879
   10CHL1  H22A  723   3.157   2.156   8.811 -0.4615 -1.9632  1.2057
   10CHL1  H22B  724   3.327   2.207   8.814 -0.7579  0.3280 -0.9960
   10CHL1   C23  725   3.273   2.052   8.669 -0.2726 -0.3034 -0.4103
   10CHL1  H23A  726   3.379   2.020   8.664  0.2818  0.9995  1.6570
   10CHL1  H23B  727   3.226   1.952   8.678  0.6754 -1.1010 -3.2677
   10CHL1   C24  728   3.225   2.143   8.552 -0.3290 -0.1911 -0.0383
   10CHL1  H24A  729   3.115   2.154   8.556 -0.3433 -0.0115 -0.6942
   10CHL1  H24B  730   3.262   2.248   8.563 -0.9119 -0.1566  2.0059
   10CHL1   C25  731   3.266   2.090   8.413 -0.1771 -0.3938  0.1227
   10CHL1   H25  732   3.377   2.084   8.411 -0.1444 -1.3169  2.2969
   10CHL1   C26  733   3.213   1.952   8.375 -0.1892 -0.3226 -0.4797
   10CHL1  H26A  734   3.251   1.914   8.278 -1.2299  0.1131 -1.0728
   10CHL1  H26B  735   3.252   1.882   8.452  1.1748  0.9930  0.0810
   10CHL1  H26C  736   3.103   1.947   8.364 -0.0719  1.3116 -3.2045
   10CHL1   C27  737   3.217   2.198   8.314 -0.6845  0.0246 -0.2043
   10CHL1  H27A  738   3.108   2.208   8.293 -0.4072  2.5441 -0.7170
   10CHL1  H27B  739   3.262   2.291   8.355 -0.5153 -0.6558  1.2021
   10CHL1  H27C  740   3.264   2.163   8.219 -1.7187 -0.5941 -0.5167
   11CHL1    C3  741   0.110   1.855   9.980 -0.1669  0.2307  0.2792
   11CHL1    H3  742   0.011   1.805   9.976  0.3378 -1.0888  2.3374
   11CHL1    O3  743   0.160   1.820  10.108  0.0154 -0.2342  0.8403
   11CHL1   H3'  744   0.103   1.865  10.171  2.4366  2.1830  1.4787
   11CHL1    C4  745   0.213   1.806   9.880  0.5680 -0.5388 -0.2713
   11CHL1   H4A  746   0.312   1.852   9.898  0.8593  1.5717 -5.6322
   11CHL1   H4B  747   0.219   1.697   9.901 -1.1533 -0.6166  0.0087
   11CHL1    C5  748   0.168   1.839   9.739  0.4844 -1.0063  0.0819
   11CHL1    C6  749   0.168   1.743   9.653 -0.1851  0.6938  0.7421
   11CHL1    H6  750   0.190   1.638   9.674 -3.6810 -0.1765  0.6097
   11CHL1    C7  751   0.135   1.767   9.510  0.0669  0.3820  0.2105
   11CHL1   H7A  752   0.209   1.708   9.452  0.9179  1.6941 -0.0895
   11CHL1   H7B  753   0.035   1.733   9.476  0.2116  1.7226 -1.7499
   11CHL1    C8  754   0.133   1.915   9.468  0.1261 -0.6109 -0.2174
   11CHL1    H8  755   0.236   1.944   9.440  0.5983 -1.0049  1.0584
   11CHL1   C14  756   0.041   1.917   9.341 -0.3032 -0.5270  0.4323
   11CHL1   H14  757  -0.059   1.883   9.374 -0.9175  0.6654 -0.1270
   11CHL1   C15  758   0.067   1.828   9.220 -0.0502 -0.4237 -0.7745
   11CHL1  H15A  759   0.177   1.834   9.203  0.3582  3.0033  2.0976
   11CHL1  H15B  760   0.035   1.722   9.234 -3.0728  0.3719 -1.0193
   11CHL1   C16  761  -0.012   1.891   9.110 -0.6251  0.2039  0.4733
   11CHL1  H16A  762   0.061   1.905   9.028  1.5406  2.1587  2.5990
   11CHL1  H16B  763  -0.086   1.815   9.076 -0.8636  1.5500 -2.2626
   11CHL1   C17  764  -0.062   2.027   9.161  0.2851 -0.2386  0.5392
   11CHL1   H17  765  -0.165   2.009   9.199 -0.1061 -0.5267 -0.6138
   11CHL1   C13  766   0.029   2.058   9.277 -0.7019  0.1494 -0.9617
   11CHL1   C18  767   0.162   2.104   9.217  1.2906  0.2978 -0.0128
   11CHL1  H18A  768   0.193   2.036   9.135 -2.2889  0.0411 -1.3356
   11CHL1  H18B  769   0.151   2.208   9.180  0.0806  0.4924  0.8560
   11CHL1  H18C  770   0.241   2.104   9.295 -1.6562  0.7636  3.1950
   11CHL1   C12  771  -0.018   2.156   9.388  0.2970  0.4874  0.2485
   11CHL1  H12A  772  -0.022   2.264   9.361  1.0897  0.0648 -1.8032
   11CHL1  H12B  773  -0.122   2.136   9.421  1.6553 -0.7987  4.3141
   11CHL1   C11  774   0.069   2.141   9.521 -0.3059 -0.2588  0.9248
   11CHL1  H11A  775   0.173   2.174   9.501  0.8972 -3.4469  1.3355
   11CHL1  H11B  776   0.019   2.210   9.592  0.0608  1.3458 -0.3103
   11CHL1    C9  777   0.073   1.996   9.577 -0.5970 -1.3149  0.8974
   11CHL1    H9  778  -0.031   1.961   9.597 -0.0947 -2.8834  0.9590
   11CHL1   C10  779   0.142   1.983   9.709  0.0265  0.5244  0.5644
   11CHL1   C19  780   0.273   2.051   9.712 -0.0506 -0.0039 -0.3242
   11CHL1  H19A  781   0.268   2.161   9.698 -1.2887  0.4542  2.8564
   11CHL1  H19B  782   0.324   2.047   9.811 -0.2346  2.0414 -0.0921
   11CHL1  H19C  783   0.347   2.001   9.646 -0.1145  0.1761 -0.5323
   11CHL1    C1  784   0.048   2.036   9.820  0.0937 -0.3424  0.4042
   11CHL1   H1A  785   0.020   2.143   9.810 -0.8033 -0.6582 -0.7022
   11CHL1   H1B  786  -0.050   1.987   9.803  0.4904 -0.9095 -0.2833
   11CHL1    C2  787   0.085   2.006   9.964  0.4995  0.2157  0.1711
   11CHL1   H2A  788   0.012   2.042  10.039  2.4036  1.0931  1.6803
   11CHL1   H2B  789   0.184   2.039  10.000  0.5980 -0.1585  0.2537
   11CHL1   C20  790  -0.087   2.125   9.046  0.3728  0.3364  0.0973
   11CHL1   H20  791   0.010   2.156   9.002  2.2505 -3.0138  1.4564
   11CHL1   C21  792  -0.148   2.258   9.098  0.1983 -0.6515 -0.3967
   11CHL1  H21A  793  -0.093   2.309   9.181 -1.8494 -2.2440  2.0703
   11CHL1  H21B  794  -0.256   2.255   9.124 -0.2906 -1.7476 -2.4256
   11CHL1  H21C  795  -0.145   2.327   9.011  1.8231 -1.2194 -0.8343
   11CHL1   C22  796  -0.160   2.070   8.910  0.1087 -0.2371  0.3168
   11CHL1  H22A  797  -0.095   1.990   8.868  1.3952  1.6394 -1.5171
   11CHL1  H22B  798  -0.257   2.020   8.931 -0.9495  1.8038  0.5134
   11CHL1   C23  799  -0.175   2.174   8.802 -0.0838 -0.4058  0.0266
   11CHL1  H23A  800  -0.245   2.257   8.823 -2.0519 -1.6511 -1.2564
   11CHL1  H23B  801  -0.077   2.220   8.778  0.1945 -0.2682  1.3422
   11CHL1   C24  802  -0.220   2.120   8.664  0.0557  0.8836  0.0713
   11CHL1  H24A  803  -0.154   2.031   8.650 -0.6399  0.4197 -0.2966
   11CHL1  H24B  804  -0.323   2.082   8.683  0.3306 -0.5498 -1.1008
   11CHL1   C25  805  -0.216   2.219   8.545  0.2819  0.4088  0.0165
   11CHL1   H25  806  -0.273   2.310   8.572 -2.6310 -1.4738  0.6933
   11CHL1   C26  807  -0.069   2.260   8.512 -0.0589  0.6510  0.1655
   11CHL1  H26A  808  -0.062   2.304   8.410 -1.2272  1.4167  0.4027
   11CHL1  H26B  809  -0.036   2.330   8.592  1.5360 -0.6320  0.6921
   11CHL1  H26C  810  -0.011   2.165   8.515 -2.5560 -1.1394 -2.4889
   11CHL1   C27  811  -0.271   2.171   8.411 -0.0493  0.2237 -0.1611
   11CHL1  H27A  812  -0.277   2.258   8.342 -0.1162  2.3698  2.4060
   11CHL1  H27B  813  -0.220   2.086   8.359  0.3812 -0.6915  1.6681
   11CHL1  H27C  814  -0.376   2.140   8.430  0.0925  0.5788  1.2528
   12CHL1    C3  815   3.784   0.731  10.317 -0.1616  0.0568 -0.1759
   12CHL1    H3  816   3.767   0.836  10.285 -1.8427  0.3306  1.4339
   12CHL1    O3  817   3.826   0.724  10.447  0.2801  0.9585 -0.3777
   12CHL1   H3'  818   3.852   0.634  10.469  2.1178  2.3754  4.4562
   12CHL1    C4  819   3.654   0.649  10.288 -0.0371 -0.1159  0.0883
   12CHL1   H4A  820   3.659   0.540  10.309 -0.3391 -0.3927 -1.1669
   12CHL1   H4B  821   3.575   0.690  10.353  0.9039 -1.0351  1.8953
   12CHL1    C5  822   3.609   0.652  10.147 -0.2775  0.3071  0.1458
   12CHL1    C6  823   3.485   0.684  10.098 -0.4008  0.1919 -0.4664
   12CHL1    H6  824   3.407   0.703  10.172  2.0218 -1.6790  2.8453
   12CHL1    C7  825   3.447   0.690   9.950  0.6372 -0.7038 -0.1527
   12CHL1   H7A  826   3.345   0.650   9.936  1.2361 -2.2427 -0.3443
   12CHL1   H7B  827   3.437   0.799   9.931 -0.6232 -0.3699  2.1923
   12CHL1    C8  828   3.540   0.627   9.854  0.8973  0.5274 -0.1064
   12CHL1    H8  829   3.522   0.518   9.867  1.0105  0.5276  0.0498
   12CHL1   C14  830   3.518   0.676   9.716  0.2578 -0.2115  1.0255
   12CHL1   H14  831   3.554   0.781   9.716 -3.0769  1.0748  0.5259
   12CHL1   C15  832   3.374   0.680   9.669 -0.1836 -0.7883  1.1308
   12CHL1  H15A  833   3.329   0.580   9.685 -1.9288  0.0068  1.5066
   12CHL1  H15B  834   3.318   0.767   9.711  0.8843 -1.4616  4.2177
   12CHL1   C16  835   3.386   0.690   9.515 -0.3427 -0.0567 -0.1311
   12CHL1  H16A  836   3.323   0.606   9.477 -2.2058  0.3616  1.8053
   12CHL1  H16B  837   3.350   0.787   9.475 -0.5085  0.2865  0.8286
   12CHL1   C17  838   3.534   0.674   9.479 -0.5245  0.0004  0.0735
   12CHL1   H17  839   3.576   0.777   9.482  0.6339 -0.3736 -1.6000
   12CHL1   C13  840   3.597   0.605   9.603  0.1332  0.2066  0.0862
   12CHL1   C18  841   3.571   0.453   9.592  0.6788  0.4436  0.5217
   12CHL1  H18A  842   3.469   0.419   9.563  1.4201 -1.7796  0.3021
   12CHL1  H18B  843   3.638   0.413   9.513 -0.5809 -0.0464 -0.3336
   12CHL1  H18C  844   3.595   0.405   9.689  0.0557 -0.9813  0.0036
   12CHL1   C12  845   3.748   0.629   9.643 -0.4237 -0.4031 -0.0610
   12CHL1  H12A  846   3.813   0.578   9.568  1.3428  3.2172 -1.2121
   12CHL1  H12B  847   3.773   0.737   9.637  0.3228 -0.4791  1.4077
   12CHL1   C11  848   3.781   0.578   9.791  0.0711 -0.1645  0.6109
   12CHL1  H11A  849   3.769   0.468   9.797  1.5962 -0.3022  1.7290
   12CHL1  H11B  850   3.885   0.605   9.819 -0.3198 -1.0344  3.1329
   12CHL1    C9  851   3.688   0.643   9.894  0.5346  0.1339  0.6596
   12CHL1    H9  852   3.709   0.752   9.880  0.6260 -0.0012 -0.3707
   12CHL1   C10  853   3.717   0.610  10.044  0.3849  0.4901 -0.1089
   12CHL1   C19  854   3.738   0.455  10.049 -0.2962  0.1499 -0.7346
   12CHL1  H19A  855   3.761   0.430  10.155 -0.7067  2.3833 -0.0805
   12CHL1  H19B  856   3.657   0.396  10.002  2.3614 -1.4068 -3.8411
   12CHL1  H19C  857   3.826   0.421   9.989 -0.4384  1.0995 -1.4995
   12CHL1    C1  858   3.855   0.674  10.080  0.4349  0.3813  0.0793
   12CHL1   H1A  859   3.936   0.624  10.023 -1.2650 -1.4913 -0.7928
   12CHL1   H1B  860   3.859   0.778  10.041  0.9907  0.4097  0.2115
   12CHL1    C2  861   3.896   0.671  10.230 -0.0367  0.7507  0.3600
   12CHL1   H2A  862   3.994   0.720  10.251  0.8026 -0.8928  0.3730
   12CHL1   H2B  863   3.918   0.569  10.267  0.2225  0.7706  0.2597
   12CHL1   C20  864   3.554   0.607   9.334  0.5012 -0.1978  0.3269
   12CHL1   H20  865   3.516   0.502   9.330 -0.3969  0.1384 -0.1748
   12CHL1   C21  866   3.700   0.594   9.297  0.3116 -0.3124 -0.7114
   12CHL1  H21A  867   3.745   0.695   9.298 -0.1643 -0.0846  1.5514
   12CHL1  H21B  868   3.712   0.550   9.195  0.1510  0.9500 -1.2908
   12CHL1  H21C  869   3.754   0.528   9.368  1.2333  1.5154  0.3560
   12CHL1   C22  870   3.476   0.679   9.223  0.5654 -0.9013 -0.9516
   12CHL1  H22A  871   3.373   0.697   9.258  0.8978 -0.8398  0.0227
   12CHL1  H22B  872   3.521   0.780   9.220 -1.3372  0.0076  0.0104
   12CHL1   C23  873   3.479   0.625   9.085  0.2875  0.7930 -0.0086
   12CHL1  H23A  874   3.584   0.607   9.055 -0.1318 -0.4452 -0.8363
   12CHL1  H23B  875   3.411   0.537   9.084 -1.9098  2.3028  2.5434
   12CHL1   C24  876   3.416   0.725   8.996 -0.4411 -0.7839 -0.4200
   12CHL1  H24A  877   3.312   0.750   9.026 -0.3713  2.6824 -2.4830
   12CHL1  H24B  878   3.477   0.818   9.001 -1.1400 -0.1483 -2.4587
   12CHL1   C25  879   3.417   0.687   8.852  0.2840  0.3488  0.1879
   12CHL1   H25  880   3.522   0.667   8.822 -0.1900 -2.2438  0.0397
   12CHL1   C26  881   3.336   0.561   8.820  0.0895 -0.0334  0.9327
   12CHL1  H26A  882   3.386   0.480   8.877 -0.0836 -0.2483  0.7809
   12CHL1  H26B  883   3.233   0.569   8.862 -0.1731  2.5217 -0.0435
   12CHL1  H26C  884   3.333   0.549   8.709  2.2190 -0.0397  0.8427
   12CHL1   C27  885   3.366   0.800   8.763 -0.2703  0.0596 -0.2741
   12CHL1  H27A  886   3.266   0.834   8.797 -0.0531  1.1098 -0.6376
   12CHL1  H27B  887   3.430   0.891   8.765  0.9725 -0.7745 -0.9512
   12CHL1  H27C  888   3.368   0.767   8.657  0.5749  1.8864 -0.8736
   13CHL1    C3  889   1.997   3.667   9.670  0.2660 -0.1903 -0.2363
   13CHL1    H3  890   1.890   3.692   9.658  0.0160 -0.9954  0.1813
   13CHL1    O3  891   2.037   3.685   9.810 -0.2324 -0.2579  0.1690
   13CHL1   H3'  892   2.031   3.778   9.831  0.8016 -0.4189  1.2468
   13CHL1    C4  893   2.016   3.516   9.637  0.2794  0.3155  0.0092
   13CHL1   H4A  894   2.119   3.484   9.662  0.6837  1.7689  0.3057
   13CHL1   H4B  895   1.946   3.469   9.710  0.7904 -0.5953 -0.0866
   13CHL1    C5  896   1.973   3.491   9.497 -0.3587 -0.7962  0.2938
   13CHL1    C6  897   1.865   3.423   9.459  0.1625 -0.4004 -0.3278
   13CHL1    H6  898   1.787   3.381   9.525 -2.3062  0.6719 -2.3648
   13CHL1    C7  899   1.829   3.382   9.321  0.6526  0.0764 -0.4932
   13CHL1   H7A  900   1.795   3.277   9.319 -0.0538  0.2397  1.4815
   13CHL1   H7B  901   1.741   3.444   9.292  1.5642  0.8148 -1.7843
   13CHL1    C8  902   1.938   3.404   9.215  0.0071  0.1700 -0.0195
   13CHL1    H8  903   2.006   3.318   9.232  2.9966  2.0399 -1.5545
   13CHL1   C14  904   1.882   3.405   9.076  0.3372  0.0584  0.4590
   13CHL1   H14  905   1.805   3.484   9.063 -0.3269 -0.6722 -0.2455
   13CHL1   C15  906   1.793   3.291   9.029 -0.1407 -0.0098  0.3410
   13CHL1  H15A  907   1.826   3.188   9.058  0.1680 -0.2922 -0.9479
   13CHL1  H15B  908   1.689   3.305   9.063 -0.6112 -0.6233 -0.7901
   13CHL1   C16  909   1.812   3.299   8.878  0.2608  0.0240  0.2662
   13CHL1  H16A  910   1.850   3.205   8.832 -2.7971 -1.3007  0.1481
   13CHL1  H16B  911   1.716   3.321   8.827  1.0844  1.3935 -0.7353
   13CHL1   C17  912   1.915   3.418   8.846  0.8723  0.0979 -0.1174
   13CHL1   H17  913   1.862   3.516   8.840 -0.0567 -0.4345 -1.1735
   13CHL1   C13  914   1.995   3.430   8.967  0.4132  0.1822 -0.9026
   13CHL1   C18  915   2.104   3.313   8.971 -0.0625 -0.2975 -0.4550
   13CHL1  H18A  916   2.144   3.306   9.074  0.8246  0.1822 -0.7514
   13CHL1  H18B  917   2.058   3.214   8.952 -0.3063 -0.6526  1.7979
   13CHL1  H18C  918   2.188   3.326   8.898  1.9835  4.7306  2.2820
   13CHL1   C12  919   2.056   3.570   8.990  0.4357 -0.1001 -0.6011
   13CHL1  H12A  920   2.132   3.596   8.913  0.2546  0.4295 -0.6101
   13CHL1  H12B  921   1.981   3.652   8.988  2.6829  2.0760 -0.3828
   13CHL1   C11  922   2.113   3.569   9.131  0.3534 -0.7443  0.4773
   13CHL1  H11A  923   2.198   3.498   9.138  0.4509 -0.7508 -0.6228
   13CHL1  H11B  924   2.157   3.670   9.142 -0.6374 -0.0936 -1.3225
   13CHL1    C9  925   2.011   3.533   9.245  0.1272  0.2065  0.1935
   13CHL1    H9  926   1.931   3.610   9.240 -0.3209 -0.2812 -0.2884
   13CHL1   C10  927   2.055   3.561   9.394 -0.6045  0.1631  0.0963
   13CHL1   C19  928   2.189   3.492   9.401  0.0527  0.2094  0.7080
   13CHL1  H19A  929   2.190   3.387   9.365  0.3973 -0.0827  1.5376
   13CHL1  H19B  930   2.266   3.543   9.339  0.0374 -2.0447 -1.3011
   13CHL1  H19C  931   2.238   3.497   9.501 -0.0787  2.4294  0.7230
   13CHL1    C1  932   2.050   3.721   9.425 -0.3763  0.4353  0.0634
   13CHL1   H1A  933   2.110   3.776   9.349  1.2152 -2.3527 -0.8429
   13CHL1   H1B  934   1.946   3.756   9.414 -0.5914 -0.2031  0.0191
   13CHL1    C2  935   2.081   3.756   9.565  0.4817  0.0874 -0.1593
   13CHL1   H2A  936   2.053   3.862   9.585  0.5634  0.3562 -1.3891
   13CHL1   H2B  937   2.188   3.739   9.588  0.5286 -0.9885 -1.1143
   13CHL1   C20  938   1.981   3.395   8.706 -0.5070  0.3038 -0.8653
   13CHL1   H20  939   2.053   3.310   8.705  0.6019  1.2080 -1.4915
   13CHL1   C21  940   2.077   3.516   8.674  0.2256  0.7024 -0.1520
   13CHL1  H21A  941   2.019   3.609   8.690 -2.1492 -0.8704  0.9678
   13CHL1  H21B  942   2.108   3.510   8.567  1.2404 -2.4226  0.2029
   13CHL1  H21C  943   2.167   3.529   8.738  0.2984  0.1733 -0.1430
   13CHL1   C22  944   1.876   3.380   8.592  0.2577 -0.0925 -0.3195
   13CHL1  H22A  945   1.927   3.359   8.495 -1.8259 -1.0838 -1.2769
   13CHL1  H22B  946   1.811   3.293   8.618  0.8066 -0.0358  1.3180
   13CHL1   C23  947   1.792   3.510   8.553 -0.5742  0.8797 -0.2473
   13CHL1  H23A  948   1.717   3.530   8.632  0.9059 -1.5353  1.8970
   13CHL1  H23B  949   1.866   3.592   8.558  0.4331  0.0223 -0.6307
   13CHL1   C24  950   1.733   3.496   8.411 -0.0552 -0.3723  0.6896
   13CHL1  H24A  951   1.811   3.484   8.333  0.3025  0.6167  0.8791
   13CHL1  H24B  952   1.670   3.406   8.392  1.7888 -1.4046 -0.9296
   13CHL1   C25  953   1.648   3.620   8.375  0.0677  0.5426 -0.3533
   13CHL1   H25  954   1.583   3.635   8.463  0.7041  2.3395 -0.1577
   13CHL1   C26  955   1.733   3.739   8.336  0.2746 -0.2557  0.2621
   13CHL1  H26A  956   1.661   3.819   8.309 -1.0521 -1.1890  0.9413
   13CHL1  H26B  957   1.805   3.775   8.412  0.3829  0.8153 -0.3257
   13CHL1  H26C  958   1.791   3.722   8.243  1.4656  2.4119  0.4076
   13CHL1   C27  959   1.554   3.591   8.255  0.1354  0.4920  0.5174
   13CHL1  H27A  960   1.607   3.569   8.159  2.0502  0.9215  1.4282
   13CHL1  H27B  961   1.504   3.494   8.277  0.0249  0.6238  0.8536
   13CHL1  H27C  962   1.485   3.674   8.232  0.0761  0.5669  0.9628
   14CHL1    C3  963   1.148   6.024  10.206 -0.2671  0.0398  0.3961
   14CHL1    H3  964   1.094   5.928  10.212 -1.0437  0.4142 -0.4583
   14CHL1    O3  965   1.197   6.057  10.329  0.1988 -0.0586  0.1718
   14CHL1   H3'  966   1.224   6.148  10.314 -0.0660 -0.1561 -0.9978
   14CHL1    C4  967   1.275   5.991  10.116  0.7994 -0.0581 -0.4490
   14CHL1   H4A  968   1.349   6.074  10.118  0.9968 -0.2410  0.0368
   14CHL1   H4B  969   1.320   5.899  10.159 -0.9754 -1.0334 -0.5865
   14CHL1    C5  970   1.225   5.969   9.971  0.2795 -0.2431 -0.4121
   14CHL1    C6  971   1.259   5.854   9.908  0.0769  0.7964  0.1098
   14CHL1    H6  972   1.314   5.783   9.971 -0.5849  2.9137  3.2754
   14CHL1    C7  973   1.224   5.820   9.767 -0.2968  0.1706 -1.0552
   14CHL1   H7A  974   1.310   5.783   9.707 -0.3245 -0.3619 -0.7714
   14CHL1   H7B  975   1.159   5.730   9.761  0.9783 -0.7747 -1.2389
   14CHL1    C8  976   1.171   5.951   9.699 -0.2056  1.0040  0.5037
   14CHL1    H8  977   1.264   6.005   9.672  0.8969 -0.8965  0.3026
   14CHL1   C14  978   1.109   5.910   9.561  0.1165 -0.4391 -0.0832
   14CHL1   H14  979   1.022   5.852   9.597  0.0081  0.5938  1.4514
   14CHL1   C15  980   1.189   5.821   9.454 -0.6531 -0.1778  0.1861
   14CHL1  H15A  981   1.294   5.854   9.445 -0.2229 -1.7507 -0.9298
   14CHL1  H15B  982   1.182   5.714   9.484 -2.7718  0.0843  0.7841
   14CHL1   C16  983   1.115   5.850   9.318  0.1984  0.9314 -0.9229
   14CHL1  H16A  984   1.186   5.903   9.251  0.2018  0.6798 -1.1204
   14CHL1  H16B  985   1.078   5.757   9.270 -2.9620  2.5430 -1.8352
   14CHL1   C17  986   1.002   5.949   9.360 -0.5055 -0.1512 -0.2116
   14CHL1   H17  987   0.920   5.883   9.395 -1.0033  0.4669 -0.2104
   14CHL1   C13  988   1.056   6.025   9.483 -0.1595  0.3014  0.5214
   14CHL1   C18  989   1.175   6.120   9.440  0.2948  0.6350 -0.4231
   14CHL1  H18A  990   1.216   6.167   9.532 -2.3666  1.1736  0.5811
   14CHL1  H18B  991   1.255   6.075   9.378  2.2146  0.3079  2.1307
   14CHL1  H18C  992   1.119   6.196   9.380 -3.3080 -0.8954  0.7232
   14CHL1   C12  993   0.948   6.100   9.565 -0.6420  0.2220  0.6761
   14CHL1  H12A  994   0.902   6.183   9.507  0.9510  1.9139  1.7362
   14CHL1  H12B  995   0.866   6.029   9.589 -0.5781 -0.0966 -0.0211
   14CHL1   C11  996   1.004   6.148   9.695 -0.0159 -0.9078 -0.3574
   14CHL1  H11A  997   1.056   6.246   9.681  0.0617 -1.0036 -0.7386
   14CHL1  H11B  998   0.923   6.190   9.759  1.3089  1.6116 -0.1779
   14CHL1    C9  999   1.079   6.038   9.781  0.0711 -0.8219  0.2290
   14CHL1    H9 1000   0.993   5.974   9.811 -1.5586  0.6500 -1.0562
   14CHL1   C10 1001   1.136   6.089   9.908 -0.4275  0.5378  0.3867
   14CHL1   C19 1002   1.222   6.215   9.876  0.1373  0.2423 -0.3332
   14CHL1  H19A 1003   1.296   6.196   9.795 -0.5223  0.9337 -1.1170
   14CHL1  H19B 1004   1.151   6.299   9.862 -0.3101 -0.1645 -0.5520
   14CHL1  H19C 1005   1.269   6.246   9.972 -0.8992  1.2957 -0.1353
   14CHL1    C1 1006   1.022   6.114  10.005 -0.5634 -0.3922  0.2809
   14CHL1   H1A 1007   0.966   6.203   9.970 -2.4352 -1.3870  0.6154
   14CHL1   H1B 1008   0.944   6.034  10.008 -1.1939  0.0661 -2.0831
   14CHL1    C2 1009   1.064   6.143  10.146 -0.2927  0.2104 -0.4149
   14CHL1   H2A 1010   0.983   6.165  10.220  0.6829  0.1158  0.7228
   14CHL1   H2B 1011   1.114   6.242  10.140 -0.4618  0.3275  0.0527
   14CHL1   C20 1012   0.946   6.015   9.239 -0.1151 -0.0043 -0.0306
   14CHL1   H20 1013   1.023   6.072   9.184 -0.4008  0.4476  0.0346
   14CHL1   C21 1014   0.840   6.122   9.276 -0.1382 -0.0616 -0.4259
   14CHL1  H21A 1015   0.893   6.213   9.311  1.5430 -1.3708  0.5565
   14CHL1  H21B 1016   0.781   6.089   9.365 -1.0594 -2.4704 -1.8313
   14CHL1  H21C 1017   0.771   6.136   9.190  1.1812  0.4880 -1.4139
   14CHL1   C22 1018   0.887   5.923   9.137  0.9386  0.6782  0.3253
   14CHL1  H22A 1019   0.866   5.824   9.183 -0.3355 -1.1380 -3.7324
   14CHL1  H22B 1020   0.791   5.965   9.102  0.7066  0.2371  0.4142
   14CHL1   C23 1021   0.972   5.895   9.015 -0.7173  0.2342 -0.1490
   14CHL1  H23A 1022   1.069   5.873   9.064 -1.3018  1.4613  1.6349
   14CHL1  H23B 1023   0.942   5.809   8.951 -0.4757  2.1672 -3.0694
   14CHL1   C24 1024   0.971   6.005   8.914  0.4554 -0.3380  0.2765
   14CHL1  H24A 1025   0.997   6.101   8.964 -0.8468  0.1827 -0.0149
   14CHL1  H24B 1026   1.052   5.994   8.839  1.7846  3.2963  0.9684
   14CHL1   C25 1027   0.836   6.038   8.838 -0.5979 -0.0978 -0.2514
   14CHL1   H25 1028   0.754   6.046   8.912 -1.4063  1.7353 -1.2822
   14CHL1   C26 1029   0.827   6.179   8.786 -0.1437 -0.7456  0.1161
   14CHL1  H26A 1030   0.838   6.248   8.873  0.3184  0.3597 -0.7940
   14CHL1  H26B 1031   0.902   6.202   8.707  1.8208  0.2394  2.1678
   14CHL1  H26C 1032   0.722   6.187   8.750 -0.4283 -2.6576  0.4541
   14CHL1   C27 1033   0.807   5.940   8.722  1.2657 -0.6186  0.3570
   14CHL1  H27A 1034   0.718   5.973   8.662 -0.4125  0.5640  3.2829
   14CHL1  H27B 1035   0.900   5.932   8.662 -0.5058  1.7278 -3.0955
   14CHL1  H27C 1036   0.771   5.843   8.761 -0.4418 -0.2452 -0.1543
   15CHL1    C3 1037   2.344   5.715  10.167  0.4195 -0.1359  0.4219
   15CHL1    H3 1038   2.434   5.659  10.136  1.8829  2.1776  0.2876
   15CHL1    O3 1039   2.348   5.728  10.306  0.4703  0.0856  0.2844
   15CHL1   H3' 1040   2.300   5.650  10.334 -1.7585  1.8273  1.6217
   15CHL1    C4 1041   2.344   5.851  10.105  0.5923 -0.5133 -0.1613
   15CHL1   H4A 1042   2.257   5.903  10.150  0.5042 -0.9464  0.1794
   15CHL1   H4B 1043   2.433   5.905  10.144 -1.2626  2.1173  0.7284
   15CHL1    C5 1044   2.343   5.832   9.952  0.5117  0.3866  0.1185
   15CHL1    C6 1045   2.437   5.881   9.862 -0.0461 -0.4439 -1.2278
   15CHL1    H6 1046   2.509   5.949   9.909 -0.3963  0.4171 -1.9124
   15CHL1    C7 1047   2.435   5.876   9.710  0.4324  0.7209 -0.0922
   15CHL1   H7A 1048   2.456   5.978   9.670 -0.8322  1.4846  1.0662
   15CHL1   H7B 1049   2.520   5.809   9.689  0.2439  0.8967 -1.4948
   15CHL1    C8 1050   2.295   5.840   9.656  0.2296 -0.0457  0.3767
   15CHL1    H8 1051   2.225   5.925   9.672 -1.2499 -1.0709 -0.3587
   15CHL1   C14 1052   2.301   5.815   9.507  0.4293 -0.4520  0.1713
   15CHL1   H14 1053   2.373   5.730   9.508  1.0634  0.0770  0.3310
   15CHL1   C15 1054   2.358   5.915   9.406 -0.2482  0.0168 -0.9654
   15CHL1  H15A 1055   2.309   6.012   9.429  0.2701 -0.6108  3.8313
   15CHL1  H15B 1056   2.468   5.923   9.411 -0.2019 -0.6362 -0.8651
   15CHL1   C16 1057   2.310   5.857   9.272  0.5006  0.6113  0.2050
   15CHL1  H16A 1058   2.264   5.938   9.211 -0.2446 -0.1126 -0.2178
   15CHL1  H16B 1059   2.395   5.812   9.217  1.3477 -1.1603  2.7771
   15CHL1   C17 1060   2.198   5.745   9.298 -0.8882 -0.2591  0.2168
   15CHL1   H17 1061   2.256   5.651   9.289 -1.7162 -0.6051 -2.2567
   15CHL1   C13 1062   2.166   5.763   9.451 -0.4636 -0.3872  0.0643
   15CHL1   C18 1063   2.056   5.867   9.465 -0.4445 -0.0076  0.4512
   15CHL1  H18A 1064   1.960   5.823   9.430 -1.4145  0.7161  2.0763
   15CHL1  H18B 1065   2.038   5.902   9.569 -1.1646  0.7457  0.0946
   15CHL1  H18C 1066   2.073   5.953   9.396 -1.1942 -0.6364 -0.5468
   15CHL1   C12 1067   2.124   5.624   9.523 -0.0814 -0.6512  0.6205
   15CHL1  H12A 1068   2.019   5.606   9.491 -0.5291  2.9240 -0.3757
   15CHL1  H12B 1069   2.198   5.550   9.487  3.3869  1.1987  3.4283
   15CHL1   C11 1070   2.117   5.649   9.675 -0.2899  0.3471  0.7125
   15CHL1  H11A 1071   2.023   5.706   9.691 -1.2798 -1.4026  1.4023
   15CHL1  H11B 1072   2.104   5.550   9.725  2.0564 -0.3527  0.0443
   15CHL1    C9 1073   2.244   5.713   9.738  0.3586 -0.3194 -0.5486
   15CHL1    H9 1074   2.328   5.640   9.737  2.1468  1.5933  0.7077
   15CHL1   C10 1075   2.232   5.735   9.895 -0.1201 -0.5249  0.1192
   15CHL1   C19 1076   2.101   5.812   9.915  0.1138  0.4459 -0.7500
   15CHL1  H19A 1077   2.097   5.888   9.834  0.1625  1.6550  0.3582
   15CHL1  H19B 1078   2.021   5.735   9.903 -0.0274  0.4627  0.0292
   15CHL1  H19C 1079   2.098   5.859  10.015 -0.6689  0.4436 -0.7650
   15CHL1    C1 1080   2.229   5.611   9.977  0.4849 -0.0935  0.4185
   15CHL1   H1A 1081   2.140   5.555   9.942  0.0922  0.6022  0.2823
   15CHL1   H1B 1082   2.321   5.555   9.948  0.7485  2.1129 -3.9104
   15CHL1    C2 1083   2.220   5.640  10.129 -0.4833  0.5480 -0.1013
   15CHL1   H2A 1084   2.222   5.541  10.179  0.4091  1.7819  2.4420
   15CHL1   H2B 1085   2.132   5.694  10.171  0.7050  0.2140  3.0437
   15CHL1   C20 1086   2.084   5.741   9.195  0.6306  0.8364 -0.4798
   15CHL1   H20 1087   2.010   5.821   9.212 -0.7721 -0.5056 -0.0734
   15CHL1   C21 1088   2.002   5.608   9.203 -0.4485  0.2238  0.1084
   15CHL1  H21A 1089   1.938   5.583   9.115 -0.6519  1.3464 -0.0854
   15CHL1  H21B 1090   1.930   5.605   9.288  0.8670 -1.2734  1.2376
   15CHL1  H21C 1091   2.071   5.522   9.208 -0.0900  0.3776 -1.6250
   15CHL1   C22 1092   2.144   5.748   9.053  0.5299  0.1926  0.0069
   15CHL1  H22A 1093   2.050   5.752   8.993  0.7238  0.1796 -0.3029
   15CHL1  H22B 1094   2.194   5.847   9.042 -2.6177  1.7792 -1.2290
   15CHL1   C23 1095   2.236   5.631   9.006  0.4251 -0.6577 -0.4311
   15CHL1  H23A 1096   2.316   5.621   9.083  0.6287  2.0899 -0.2026
   15CHL1  H23B 1097   2.183   5.533   9.008 -0.8989  0.0535  0.1471
   15CHL1   C24 1098   2.293   5.656   8.869 -0.3165  0.4958  1.2366
   15CHL1  H24A 1099   2.212   5.667   8.794  0.8896 -0.6495 -0.3012
   15CHL1  H24B 1100   2.346   5.754   8.866  2.3512 -0.8486  1.3212
   15CHL1   C25 1101   2.392   5.547   8.814  0.1195  0.3790  0.8495
   15CHL1   H25 1102   2.491   5.567   8.860 -0.0476  0.4558  1.1821
   15CHL1   C26 1103   2.347   5.405   8.841 -0.1461 -0.2126 -0.3106
   15CHL1  H26A 1104   2.409   5.331   8.786 -1.6360 -0.7950 -1.2617
   15CHL1  H26B 1105   2.342   5.393   8.951 -0.5525 -0.9669 -0.4059
   15CHL1  H26C 1106   2.243   5.394   8.805 -0.8274 -1.1408  1.8525
   15CHL1   C27 1107   2.418   5.575   8.665 -0.1030  0.0256  0.8914
   15CHL1  H27A 1108   2.500   5.514   8.620 -1.0339 -0.6774  0.1109
   15CHL1  H27B 1109   2.324   5.577   8.607  0.8362 -1.2305 -0.7656
   15CHL1  H27C 1110   2.458   5.678   8.649  0.2313 -0.4141 -1.5490
   16CHL1    C3 1111   3.463   5.447  10.128 -0.0759  0.3544  0.5377
   16CHL1    H3 1112   3.571   5.425  10.115  0.0197  1.5259 -0.8881
   16CHL1    O3 1113   3.443   5.461  10.266  0.6052 -0.0548  0.0923
   16CHL1   H3' 1114   3.352   5.488  10.275 -0.1296 -1.7917 -1.5185
   16CHL1    C4 1115   3.440   5.583  10.058  0.7601 -0.3755 -0.4934
   16CHL1   H4A 1116   3.343   5.609  10.106  1.2449 -0.4735  0.5574
   16CHL1   H4B 1117   3.506   5.668  10.087 -0.4445  0.7363 -0.9088
   16CHL1    C5 1118   3.433   5.567   9.906  0.4100  0.5428  0.1011
   16CHL1    C6 1119   3.513   5.628   9.825 -0.9609 -0.0429  0.0381
   16CHL1    H6 1120   3.596   5.688   9.866 -2.8063  2.1781  0.7639
   16CHL1    C7 1121   3.504   5.637   9.679  0.7196  0.1809 -0.0870
   16CHL1   H7A 1122   3.507   5.743   9.646 -0.2801 -0.0236 -0.8855
   16CHL1   H7B 1123   3.595   5.596   9.629  0.1337  0.2109 -1.1995
   16CHL1    C8 1124   3.381   5.562   9.624  0.7970 -0.0469  0.6942
   16CHL1    H8 1125   3.294   5.629   9.632  2.0223  1.9972 -1.6686
   16CHL1   C14 1126   3.400   5.527   9.480 -0.2875  0.9454 -0.6643
   16CHL1   H14 1127   3.480   5.451   9.492 -1.4239  0.0156  1.4269
   16CHL1   C15 1128   3.452   5.640   9.384  0.0424  0.2569  0.3880
   16CHL1  H15A 1129   3.402   5.732   9.420  1.0635  0.7984  0.4460
   16CHL1  H15B 1130   3.562   5.654   9.391  0.2622 -1.3306  0.6196
   16CHL1   C16 1131   3.417   5.586   9.245  0.1803 -0.1968  0.2472
   16CHL1  H16A 1132   3.359   5.664   9.192  1.5138 -0.5430 -1.8160
   16CHL1  H16B 1133   3.506   5.540   9.198  0.6480 -1.5850  2.3372
   16CHL1   C17 1134   3.327   5.461   9.268  0.6041  0.3152 -0.1453
   16CHL1   H17 1135   3.401   5.379   9.279  0.5306  0.1579 -0.8175
   16CHL1   C13 1136   3.271   5.465   9.413  0.4714 -0.0480 -0.1178
   16CHL1   C18 1137   3.162   5.572   9.413 -0.6168  0.0540 -0.0019
   16CHL1  H18A 1138   3.194   5.670   9.371 -1.5401 -1.2261 -4.1439
   16CHL1  H18B 1139   3.073   5.542   9.353 -0.4480  1.6273 -1.1329
   16CHL1  H18C 1140   3.119   5.586   9.514  0.8008  0.6241  0.5430
   16CHL1   C12 1141   3.244   5.334   9.492  0.4061 -0.0634  0.1440
   16CHL1  H12A 1142   3.161   5.277   9.444  0.4931  0.3276 -0.4808
   16CHL1  H12B 1143   3.333   5.272   9.470  0.0502 -0.0050 -1.6081
   16CHL1   C11 1144   3.217   5.362   9.639  0.7995 -1.2997 -0.4216
   16CHL1  H11A 1145   3.121   5.417   9.648  0.2925 -1.8937 -1.9649
   16CHL1  H11B 1146   3.194   5.266   9.690 -0.3017 -1.5357 -1.3222
   16CHL1    C9 1147   3.340   5.434   9.706 -0.0778 -0.0465 -0.1411
   16CHL1    H9 1148   3.427   5.368   9.687 -1.1736 -1.8350  0.8307
   16CHL1   C10 1149   3.321   5.458   9.856 -0.3935  0.0482 -0.2980
   16CHL1   C19 1150   3.182   5.521   9.886 -0.0258  0.1092 -0.6333
   16CHL1  H19A 1151   3.157   5.605   9.818 -1.6798  0.9208  0.8908
   16CHL1  H19B 1152   3.102   5.447   9.865 -1.1380  1.6323 -2.0073
   16CHL1  H19C 1153   3.167   5.565   9.987 -0.1320  1.2637 -1.1356
   16CHL1    C1 1154   3.350   5.321   9.922 -0.7425 -0.5048 -0.3216
   16CHL1   H1A 1155   3.262   5.254   9.912 -2.0272  1.2939 -1.4545
   16CHL1   H1B 1156   3.442   5.273   9.881 -0.9029 -3.9131  2.7386
   16CHL1    C2 1157   3.363   5.333  10.078  0.1007  0.1595 -0.1694
   16CHL1   H2A 1158   3.379   5.234  10.126 -0.9444 -0.1564 -0.4587
   16CHL1   H2B 1159   3.263   5.369  10.108  0.3401 -0.3936  1.3542
   16CHL1   C20 1160   3.233   5.420   9.151  0.4041  0.1272 -0.9373
   16CHL1   H20 1161   3.153   5.495   9.134  0.0971 -0.5047 -2.4186
   16CHL1   C21 1162   3.169   5.282   9.185 -0.1502  0.2012 -0.3401
   16CHL1  H21A 1163   3.107   5.250   9.098  0.6142 -1.1880 -0.4061
   16CHL1  H21B 1164   3.092   5.273   9.265  0.6887  1.7954  0.6757
   16CHL1  H21C 1165   3.246   5.201   9.185  1.7938  1.9771 -0.0664
   16CHL1   C22 1166   3.310   5.411   9.014 -0.7764  0.4847 -0.2991
   16CHL1  H22A 1167   3.386   5.491   9.007  0.6422 -0.1135  4.6835
   16CHL1  H22B 1168   3.352   5.309   8.998 -1.9456 -0.0116 -0.3067
   16CHL1   C23 1169   3.203   5.426   8.900  0.0784 -0.2347 -0.0844
   16CHL1  H23A 1170   3.115   5.359   8.911 -1.0868  1.1419 -0.7206
   16CHL1  H23B 1171   3.163   5.529   8.908  0.2853 -0.1882  0.3630
   16CHL1   C24 1172   3.259   5.414   8.753 -0.0530 -0.0830 -0.5149
   16CHL1  H24A 1173   3.329   5.496   8.725  2.4381 -1.6272  0.8448
   16CHL1  H24B 1174   3.317   5.320   8.741 -0.7682 -0.7085  0.7835
   16CHL1   C25 1175   3.147   5.414   8.646  0.4353  0.0032  0.3206
   16CHL1   H25 1176   3.080   5.326   8.658  2.4133 -1.8566 -1.3230
   16CHL1   C26 1177   3.055   5.538   8.656  0.0771 -0.0198  0.9287
   16CHL1  H26A 1178   2.985   5.522   8.571  0.6271 -2.1390  0.8110
   16CHL1  H26B 1179   2.999   5.527   8.751 -1.8095 -2.2460 -0.3223
   16CHL1  H26C 1180   3.117   5.629   8.642  2.0503 -1.4776 -0.4327
   16CHL1   C27 1181   3.205   5.412   8.502  0.1660  0.1587 -0.0689
   16CHL1  H27A 1182   3.260   5.507   8.486 -0.3217  0.3835 -0.4508
   16CHL1  H27B 1183   3.283   5.339   8.472 -1.1877 -0.5679 -2.0190
   16CHL1  H27C 1184   3.132   5.386   8.423  1.1159 -2.3147 -0.2214
   17CHL1    C3 1185   4.513   6.280  10.250 -0.3669  0.0321 -0.0872
   17CHL1    H3 1186   4.403   6.291  10.249 -0.3993 -0.3318 -0.3461
   17CHL1    O3 1187   4.569   6.324  10.374 -0.3185 -0.7355 -0.4507
   17CHL1   H3' 1188   4.664   6.338  10.372 -0.4655  0.5425  0.2666
   17CHL1    C4 1189   4.544   6.129  10.228  0.3974  0.0559  0.8044
   17CHL1   H4A 1190   4.652   6.105  10.237  0.6325 -0.5431 -2.4495
   17CHL1   H4B 1191   4.491   6.084  10.315  0.2808  2.1415  1.8866
   17CHL1    C5 1192   4.494   6.086  10.092  0.5056  0.3170 -0.4443
   17CHL1    C6 1193   4.403   5.990  10.081  0.4399 -0.0761  0.4686
   17CHL1    H6 1194   4.357   5.939  10.166 -2.1743 -0.7738 -1.2446
   17CHL1    C7 1195   4.349   5.937   9.948 -0.0962 -0.0953  0.1889
   17CHL1   H7A 1196   4.345   5.826   9.952 -0.0178 -0.0801  0.8221
   17CHL1   H7B 1197   4.245   5.973   9.931 -0.7887 -1.7490  0.6362
   17CHL1    C8 1198   4.425   5.990   9.820  0.7436  0.4408 -0.2880
   17CHL1    H8 1199   4.508   5.917   9.820 -1.9672 -2.8781 -0.3219
   17CHL1   C14 1200   4.338   5.979   9.697  0.2508 -0.1606  0.3545
   17CHL1   H14 1201   4.242   6.030   9.721  0.3865  0.7006 -0.8792
   17CHL1   C15 1202   4.292   5.836   9.662  1.0048 -0.2478  0.2753
   17CHL1  H15A 1203   4.374   5.761   9.662  1.8868  0.6203  2.4433
   17CHL1  H15B 1204   4.207   5.798   9.724 -0.9808  1.4579 -1.2740
   17CHL1   C16 1205   4.244   5.868   9.519  0.3934  0.6676 -0.1099
   17CHL1  H16A 1206   4.298   5.792   9.459  0.1694  0.3891  0.0392
   17CHL1  H16B 1207   4.139   5.839   9.499  0.8734 -0.3145 -1.3242
   17CHL1   C17 1208   4.292   6.005   9.463 -0.2614 -0.0534 -0.0700
   17CHL1   H17 1209   4.207   6.074   9.477  0.4146  0.4067  2.1850
   17CHL1   C13 1210   4.397   6.044   9.571  1.3366  0.0517  0.0851
   17CHL1   C18 1211   4.525   5.968   9.542 -0.2750 -0.3098  1.1280
   17CHL1  H18A 1212   4.525   5.857   9.549  2.0685 -0.3514  1.1396
   17CHL1  H18B 1213   4.574   6.001   9.448 -2.0965 -1.2090 -0.2043
   17CHL1  H18C 1214   4.600   5.995   9.618  1.6406  2.5814 -1.5420
   17CHL1   C12 1215   4.413   6.200   9.605  0.3369  0.1788  0.0137
   17CHL1  H12A 1216   4.440   6.252   9.510 -0.6299  1.6059  0.4913
   17CHL1  H12B 1217   4.316   6.247   9.632 -0.2695 -2.1690  2.2911
   17CHL1   C11 1218   4.513   6.218   9.720  0.2544 -0.1165  0.5546
   17CHL1  H11A 1219   4.612   6.182   9.686  0.6886  0.6731  0.9725
   17CHL1  H11B 1220   4.516   6.327   9.740  0.1813 -0.2646  1.4260
   17CHL1    C9 1221   4.459   6.140   9.842 -0.0728  0.2939 -0.4300
   17CHL1    H9 1222   4.367   6.192   9.876 -0.9951 -1.2452 -0.4625
   17CHL1   C10 1223   4.549   6.166   9.969  0.2720 -0.1450  0.1921
   17CHL1   C19 1224   4.699   6.125   9.930 -0.2366  0.2634  0.0516
   17CHL1  H19A 1225   4.686   6.030   9.874  0.4377  0.2237 -0.0414
   17CHL1  H19B 1226   4.751   6.201   9.869  2.6800 -1.6970 -0.1422
   17CHL1  H19C 1227   4.768   6.099  10.014  1.5118 -0.5630 -1.5614
   17CHL1    C1 1228   4.533   6.317  10.004 -0.0244 -0.6176  0.5642
   17CHL1   H1A 1229   4.594   6.380   9.937 -1.4393 -0.8232 -1.0054
   17CHL1   H1B 1230   4.426   6.347   9.994  0.1672 -0.5667 -1.7414
   17CHL1    C2 1231   4.577   6.358  10.143  0.7545  0.3966  0.1289
   17CHL1   H2A 1232   4.557   6.466  10.162 -0.4541  0.5653 -1.8046
   17CHL1   H2B 1233   4.685   6.335  10.151  0.4960 -0.5900  0.9827
   17CHL1   C20 1234   4.337   5.993   9.312  0.6789 -0.0811  0.0694
   17CHL1   H20 1235   4.414   5.916   9.291 -0.2428 -0.4323 -2.4123
   17CHL1   C21 1236   4.396   6.124   9.270  0.3512 -0.1175 -0.3363
   17CHL1  H21A 1237   4.479   6.164   9.331  0.9106  0.2486 -1.3134
   17CHL1  H21B 1238   4.318   6.203   9.264 -0.5773 -0.7161  2.4872
   17CHL1  H21C 1239   4.439   6.109   9.168  0.8324 -2.3807  0.1379
   17CHL1   C22 1240   4.220   5.963   9.214 -0.1474  0.6233 -0.2187
   17CHL1  H22A 1241   4.153   5.885   9.257  0.4278  0.5248  0.5060
   17CHL1  H22B 1242   4.146   6.044   9.195 -4.8893 -2.8463  1.2295
   17CHL1   C23 1243   4.273   5.907   9.085 -0.8670  0.0793 -0.4116
   17CHL1  H23A 1244   4.339   5.982   9.035  1.7297 -1.6141  0.2509
   17CHL1  H23B 1245   4.330   5.818   9.120 -0.6555  0.6837  0.8452
   17CHL1   C24 1246   4.158   5.879   8.985  0.0855 -0.1316 -0.5693
   17CHL1  H24A 1247   4.078   5.821   9.036 -1.4346  0.8754 -1.7455
   17CHL1  H24B 1248   4.110   5.978   8.970 -0.4203 -0.3176 -0.1911
   17CHL1   C25 1249   4.196   5.815   8.854  0.0431  0.0569  0.3039
   17CHL1   H25 1250   4.266   5.733   8.882  0.3957  0.9306  2.1261
   17CHL1   C26 1251   4.074   5.751   8.789  0.1123 -0.8689 -0.3631
   17CHL1  H26A 1252   4.051   5.656   8.842 -1.1809  1.2442  3.1866
   17CHL1  H26B 1253   3.988   5.819   8.804 -0.6346 -1.5531 -1.3670
   17CHL1  H26C 1254   4.082   5.732   8.679 -3.0923  0.0534 -0.8460
   17CHL1   C27 1255   4.270   5.908   8.760 -0.5891 -0.8663  0.4655
   17CHL1  H27A 1256   4.368   5.943   8.796 -0.3802 -2.1321  1.1812
   17CHL1  H27B 1257   4.292   5.864   8.660  0.4546 -2.5396  1.3868
   17CHL1  H27C 1258   4.204   5.994   8.735  0.5519 -0.4253 -1.2201
   18CHL1    C3 1259   3.074   1.318  10.296 -0.4974  0.2831  0.5519
   18CHL1    H3 1260   3.003   1.233  10.301  0.2304 -0.4614 -1.1338
   18CHL1    O3 1261   3.098   1.367  10.424  0.1367  0.9387 -0.2655
   18CHL1   H3' 1262   3.034   1.319  10.476  0.2007  1.0043 -0.1266
   18CHL1    C4 1263   3.205   1.284  10.230 -0.0170  0.2719  0.3491
   18CHL1   H4A 1264   3.274   1.370  10.245 -1.2435  0.7973  3.7849
   18CHL1   H4B 1265   3.256   1.204  10.287  1.2082  0.0066 -1.0531
   18CHL1    C5 1266   3.182   1.248  10.081 -0.6145  0.1589 -0.6163
   18CHL1    C6 1267   3.226   1.127  10.033  0.3411 -0.3231 -0.0147
   18CHL1    H6 1268   3.286   1.062  10.098  4.3388  0.2936 -2.7493
   18CHL1    C7 1269   3.211   1.087   9.890 -0.0082 -0.9684 -0.1291
   18CHL1   H7A 1270   3.298   1.030   9.853 -0.1627 -0.8123 -0.7387
   18CHL1   H7B 1271   3.124   1.019   9.876  1.7558 -3.3355 -0.3658
   18CHL1    C8 1272   3.191   1.203   9.794 -0.1916 -0.6064 -0.6425
   18CHL1    H8 1273   3.280   1.268   9.783 -1.5652  1.2247 -1.4911
   18CHL1   C14 1274   3.151   1.155   9.656 -0.3856  0.2407 -0.4827
   18CHL1   H14 1275   3.063   1.093   9.681  0.4669 -0.5820  0.5438
   18CHL1   C15 1276   3.245   1.048   9.585 -0.3863  0.6881  0.0206
   18CHL1  H15A 1277   3.349   1.082   9.600 -0.1049 -0.3891  0.5949
   18CHL1  H15B 1278   3.234   0.953   9.641  2.9391 -0.0687 -0.4036
   18CHL1   C16 1279   3.205   1.062   9.428 -0.2458 -0.0682  0.3225
   18CHL1  H16A 1280   3.298   1.110   9.392  1.0207 -1.2705  1.8676
   18CHL1  H16B 1281   3.178   0.969   9.372 -0.2326 -0.0594  0.3021
   18CHL1   C17 1282   3.088   1.165   9.425  0.3741 -0.8460  0.6105
   18CHL1   H17 1283   2.996   1.106   9.446 -0.4643 -0.0127 -0.6405
   18CHL1   C13 1284   3.113   1.250   9.549 -0.6242 -0.1234  0.4585
   18CHL1   C18 1285   3.217   1.363   9.532 -0.1360 -0.2698 -0.4861
   18CHL1  H18A 1286   3.307   1.315   9.487  1.2531  2.4664 -0.8257
   18CHL1  H18B 1287   3.184   1.452   9.474 -0.0010  0.7810  0.9993
   18CHL1  H18C 1288   3.242   1.407   9.630  0.4560  2.6882 -1.8778
   18CHL1   C12 1289   2.989   1.321   9.603 -0.0109  0.1185  0.4487
   18CHL1  H12A 1290   2.958   1.403   9.535  0.8019  1.3455  1.5122
   18CHL1  H12B 1291   2.907   1.246   9.609  0.8048 -0.8777 -0.5331
   18CHL1   C11 1292   3.014   1.384   9.744 -0.3222 -0.4503 -0.6665
   18CHL1  H11A 1293   3.076   1.475   9.733 -1.9729  0.5262 -2.9201
   18CHL1  H11B 1294   2.915   1.425   9.773  0.8787  0.7780  1.9794
   18CHL1    C9 1295   3.063   1.282   9.851  0.9805  0.2691  0.6784
   18CHL1    H9 1296   2.980   1.209   9.862 -0.7142  2.1863  1.1442
   18CHL1   C10 1297   3.090   1.339   9.991  0.4026 -0.4013  0.0093
   18CHL1   C19 1298   3.176   1.472   9.981 -0.8824  0.0094  0.0589
   18CHL1  H19A 1299   3.214   1.524  10.071  2.2924 -0.4142 -0.9098
   18CHL1  H19B 1300   3.273   1.450   9.932 -0.3115 -1.4693  1.7460
   18CHL1  H19C 1301   3.120   1.547   9.921 -1.1755 -0.7488 -0.6557
   18CHL1    C1 1302   2.964   1.364  10.070 -0.1393 -0.3051 -0.4285
   18CHL1   H1A 1303   2.876   1.413  10.025 -1.9350 -1.9278  1.1383
   18CHL1   H1B 1304   2.912   1.266  10.074  0.3693 -0.6090 -0.9971
   18CHL1    C2 1305   2.983   1.415  10.215  0.2996  0.1911  0.4178
   18CHL1   H2A 1306   2.883   1.424  10.262  0.2238 -0.7427  0.4687
   18CHL1   H2B 1307   3.026   1.517  10.210 -0.4079  0.4960  0.5545
   18CHL1   C20 1308   3.086   1.225   9.283  0.3993 -0.2438  0.1688
   18CHL1   H20 1309   3.164   1.302   9.266 -1.8029  1.3118 -5.1136
   18CHL1   C21 1310   2.950   1.302   9.273 -0.1209  0.4818  0.1217
   18CHL1  H21A 1311   2.862   1.253   9.321 -0.0312 -0.3305 -0.5172
   18CHL1  H21B 1312   2.925   1.331   9.169 -0.3147  3.3141  0.8595
   18CHL1  H21C 1313   2.963   1.395   9.332 -0.7394  0.8498 -0.3030
   18CHL1   C22 1314   3.099   1.127   9.159  0.2055 -0.3411  0.2177
   18CHL1  H22A 1315   3.092   1.198   9.074  0.4705  0.1501  0.6056
   18CHL1  H22B 1316   3.199   1.079   9.161  0.9652  1.1592 -0.3718
   18CHL1   C23 1317   2.986   1.024   9.147 -0.3666  0.3912  0.1739
   18CHL1  H23A 1318   2.961   0.987   9.249 -0.7274  1.1469  0.3660
   18CHL1  H23B 1319   2.892   1.075   9.116 -2.0127 -2.2483  0.5244
   18CHL1   C24 1320   3.010   0.903   9.053 -0.1837 -1.1816  0.0155
   18CHL1  H24A 1321   3.059   0.943   8.962  0.5447  1.5702  1.4832
   18CHL1  H24B 1322   3.089   0.844   9.104  1.0090  0.2885 -0.0293
   18CHL1   C25 1323   2.883   0.827   9.016  0.3214  0.0973  0.5457
   18CHL1   H25 1324   2.846   0.759   9.095  0.3548  0.0147  0.4908
   18CHL1   C26 1325   2.766   0.906   8.973 -0.1375  0.1203 -0.4898
   18CHL1  H26A 1326   2.716   0.961   9.055 -0.4726 -1.8810  0.7375
   18CHL1  H26B 1327   2.799   0.990   8.909  1.2880  0.4826  0.6873
   18CHL1  H26C 1328   2.693   0.838   8.923 -0.0374  1.0213 -1.9086
   18CHL1   C27 1329   2.908   0.731   8.889  0.1848  0.3852  0.5980
   18CHL1  H27A 1330   2.821   0.663   8.874 -0.1657  0.6954  1.1707
   18CHL1  H27B 1331   2.917   0.801   8.803 -0.4691  1.0183  1.0371
   18CHL1  H27C 1332   2.992   0.661   8.906 -0.5185 -0.3656  1.0781
   19CHL1    C3 1333   1.676   5.456  10.149 -0.0105 -0.0358 -0.3334
   19CHL1    H3 1334   1.660   5.348  10.130 -1.2223  0.2294 -0.9370
   19CHL1    O3 1335   1.704   5.485  10.285  0.4811 -0.4363 -0.1391
   19CHL1   H3' 1336   1.706   5.581  10.284 -2.0233 -0.2615  1.4683
   19CHL1    C4 1337   1.781   5.514  10.061  0.5806 -0.2027 -0.5237
   19CHL1   H4A 1338   1.768   5.624  10.076  0.5936 -0.2214 -0.3720
   19CHL1   H4B 1339   1.878   5.477  10.100 -0.0511 -2.7606 -1.2150
   19CHL1    C5 1340   1.761   5.476   9.922  0.0755 -0.7073  0.0045
   19CHL1    C6 1341   1.858   5.416   9.850 -0.4926  0.2265  0.1711
   19CHL1    H6 1342   1.962   5.404   9.885  0.6429  1.4157 -2.4982
   19CHL1    C7 1343   1.838   5.382   9.707  0.1651  0.0704 -0.5878
   19CHL1   H7A 1344   1.937   5.410   9.667 -0.0512  0.5563 -0.7849
   19CHL1   H7B 1345   1.837   5.272   9.695  0.6753  0.2194 -2.1931
   19CHL1    C8 1346   1.718   5.455   9.639 -0.2255 -0.0248 -0.2942
   19CHL1    H8 1347   1.763   5.555   9.624 -1.5218  0.8279  1.1903
   19CHL1   C14 1348   1.684   5.377   9.515 -0.2683  0.2735  0.0011
   19CHL1   H14 1349   1.637   5.281   9.546 -1.6502  1.3697  1.4156
   19CHL1   C15 1350   1.803   5.355   9.416  0.8810  0.0747  0.3975
   19CHL1  H15A 1351   1.874   5.441   9.419  0.9552 -0.0140  3.0059
   19CHL1  H15B 1352   1.855   5.263   9.451 -0.4915 -0.5870  0.7648
   19CHL1   C16 1353   1.726   5.336   9.281  0.1582 -0.9722  0.0873
   19CHL1  H16A 1354   1.777   5.400   9.207  1.9930  1.7377  3.4004
   19CHL1  H16B 1355   1.727   5.232   9.243 -1.8716 -0.6766 -0.9104
   19CHL1   C17 1356   1.576   5.367   9.300 -0.4695 -0.0559  0.0435
   19CHL1   H17 1357   1.529   5.269   9.324 -2.3364  0.0893 -2.5492
   19CHL1   C13 1358   1.575   5.448   9.429  0.3976 -0.5258  0.0582
   19CHL1   C18 1359   1.622   5.594   9.404 -0.3800 -0.3484  0.0741
   19CHL1  H18A 1360   1.556   5.648   9.333 -0.3176  0.5853  0.7107
   19CHL1  H18B 1361   1.653   5.657   9.490  3.5596 -1.6822 -0.1328
   19CHL1  H18C 1362   1.726   5.587   9.364 -0.7557  2.1203 -1.5822
   19CHL1   C12 1363   1.452   5.456   9.526  0.0015 -0.3829  0.7071
   19CHL1  H12A 1364   1.382   5.528   9.480 -0.5993 -1.1886  0.3281
   19CHL1  H12B 1365   1.403   5.356   9.525 -0.6691 -0.0569  0.4917
   19CHL1   C11 1366   1.472   5.503   9.664  0.0489 -0.1716  0.2313
   19CHL1  H11A 1367   1.477   5.611   9.638  1.7249 -0.4751 -0.7902
   19CHL1  H11B 1368   1.383   5.475   9.726  0.1540  0.7077  0.8049
   19CHL1    C9 1369   1.601   5.451   9.730  0.4294  1.0527 -0.1094
   19CHL1    H9 1370   1.579   5.344   9.751  2.0809  0.7580  0.2790
   19CHL1   C10 1371   1.619   5.514   9.864  0.0672  0.1469  0.1378
   19CHL1   C19 1372   1.613   5.669   9.852  0.1287 -0.1205  0.6421
   19CHL1  H19A 1373   1.689   5.702   9.778  0.0450 -1.8928 -0.2698
   19CHL1  H19B 1374   1.506   5.698   9.842  0.4085  0.2058 -2.4361
   19CHL1  H19C 1375   1.648   5.716   9.946  1.2645  0.2983  0.0315
   19CHL1    C1 1376   1.506   5.466   9.970  0.1428  0.2852 -0.0045
   19CHL1   H1A 1377   1.408   5.502   9.931 -0.2039 -1.6957 -1.1182
   19CHL1   H1B 1378   1.501   5.355   9.979 -1.6177  0.4268  1.5471
   19CHL1    C2 1379   1.535   5.514  10.111 -0.1170 -0.5083 -0.3836
   19CHL1   H2A 1380   1.458   5.478  10.182 -0.9473  1.9065  0.0232
   19CHL1   H2B 1381   1.522   5.623  10.126  0.2370 -0.7049  1.5521
   19CHL1   C20 1382   1.503   5.414   9.171 -0.9306 -0.2524 -0.0754
   19CHL1   H20 1383   1.552   5.502   9.124 -0.6798 -1.7273 -2.8076
   19CHL1   C21 1384   1.364   5.452   9.204  0.3173  0.6221  0.7697
   19CHL1  H21A 1385   1.316   5.368   9.260  0.2857 -0.6127 -1.0217
   19CHL1  H21B 1386   1.300   5.468   9.116  1.2793 -0.3725 -0.1459
   19CHL1  H21C 1387   1.349   5.540   9.270 -2.5744 -0.4230  1.6722
   19CHL1   C22 1388   1.499   5.306   9.066 -0.1515  0.2828  0.1303
   19CHL1  H22A 1389   1.593   5.247   9.061 -1.8943 -3.1584  3.2976
   19CHL1  H22B 1390   1.417   5.233   9.082 -2.1256  2.2508 -0.4814
   19CHL1   C23 1391   1.458   5.358   8.928 -0.5713  0.2117  0.1667
   19CHL1  H23A 1392   1.361   5.412   8.922 -0.0278  1.1355 -0.8025
   19CHL1  H23B 1393   1.531   5.423   8.876  0.1405 -1.8897 -1.5975
   19CHL1   C24 1394   1.450   5.242   8.821 -0.3195 -0.7622 -0.2805
   19CHL1  H24A 1395   1.551   5.196   8.814  0.6584  1.3157 -0.3318
   19CHL1  H24B 1396   1.393   5.161   8.872 -1.1167  0.4175  0.7575
   19CHL1   C25 1397   1.385   5.271   8.687  0.4607  0.4971 -0.6811
   19CHL1   H25 1398   1.448   5.342   8.629 -0.9659  0.2145 -2.6875
   19CHL1   C26 1399   1.375   5.144   8.603  0.0533 -0.2118 -0.2708
   19CHL1  H26A 1400   1.319   5.181   8.514 -1.8343  0.3011  1.0587
   19CHL1  H26B 1401   1.474   5.115   8.564  0.4196  0.8298 -0.1634
   19CHL1  H26C 1402   1.313   5.064   8.648  0.7516 -0.2934  0.5566
   19CHL1   C27 1403   1.238   5.334   8.699  0.1129  0.3375 -0.5002
   19CHL1  H27A 1404   1.176   5.273   8.769  0.0931  1.1347  0.1939
   19CHL1  H27B 1405   1.245   5.437   8.741  0.8019  0.3870 -0.7241
   19CHL1  H27C 1406   1.191   5.327   8.598 -1.6120  2.6912  0.0434
   20CHL1    C3 1407   3.454   5.944  10.339  0.0091  0.6095  0.1347
   20CHL1    H3 1408   3.469   5.840  10.301 -0.1882  0.0562  1.4986
   20CHL1    O3 1409   3.522   5.970  10.458 -0.1191 -0.5942 -0.2245
   20CHL1   H3' 1410   3.527   6.066  10.459  0.5048 -0.5643 -2.0834
   20CHL1    C4 1411   3.495   6.045  10.238 -0.0729  0.7874 -0.9697
   20CHL1   H4A 1412   3.473   6.150  10.269  0.0458  0.2608  0.9799
   20CHL1   H4B 1413   3.604   6.032  10.227  0.2092  0.3709  1.7152
   20CHL1    C5 1414   3.435   6.022  10.104  0.5465  0.2310 -0.2377
   20CHL1    C6 1415   3.505   6.005   9.996  0.1127  0.2519 -0.6177
   20CHL1    H6 1416   3.615   6.014   9.989  0.2754 -0.2965  0.8399
   20CHL1    C7 1417   3.436   5.982   9.867 -0.5199 -0.0384  0.5645
   20CHL1   H7A 1418   3.491   6.048   9.796  0.5850 -0.4952  0.9676
   20CHL1   H7B 1419   3.463   5.884   9.823  0.4549  0.8929 -1.0345
   20CHL1    C8 1420   3.284   6.018   9.859 -0.5502 -0.6249  0.1541
   20CHL1    H8 1421   3.280   6.129   9.859 -3.0371 -0.6451 -1.1111
   20CHL1   C14 1422   3.229   5.966   9.730  0.6729 -0.1731 -0.0318
   20CHL1   H14 1423   3.251   5.857   9.725  3.9404  0.3285  1.2330
   20CHL1   C15 1424   3.293   6.019   9.596 -0.6912  0.2781 -0.1124
   20CHL1  H15A 1425   3.314   6.126   9.619  0.4806  0.1891 -0.6647
   20CHL1  H15B 1426   3.389   5.968   9.570 -0.6165  0.6942 -0.6770
   20CHL1   C16 1427   3.191   6.000   9.484  0.1322  0.3696 -0.3846
   20CHL1  H16A 1428   3.181   6.105   9.449 -0.0307  1.7182  3.3018
   20CHL1  H16B 1429   3.227   5.949   9.392 -1.8037  1.8970 -2.1015
   20CHL1   C17 1430   3.069   5.950   9.561  0.3278  1.2587  0.7187
   20CHL1   H17 1431   3.073   5.839   9.566  1.0347  1.3036  1.2331
   20CHL1   C13 1432   3.077   5.998   9.711 -0.3004  0.1062  0.7595
   20CHL1   C18 1433   3.042   6.149   9.716 -0.3113 -0.3206  0.2820
   20CHL1  H18A 1434   3.082   6.203   9.805  0.3707  2.2593 -1.4703
   20CHL1  H18B 1435   3.089   6.194   9.627 -1.9882  0.0755 -0.4469
   20CHL1  H18C 1436   2.932   6.150   9.697 -0.6079  0.5431  1.8244
   20CHL1   C12 1437   3.013   5.914   9.821 -0.3596 -0.2085 -0.0904
   20CHL1  H12A 1438   2.904   5.936   9.823 -0.1732  1.1871 -1.9133
   20CHL1  H12B 1439   3.018   5.805   9.805 -1.3595 -0.3489  0.5196
   20CHL1   C11 1440   3.064   5.952   9.960 -0.4040 -0.4513 -0.9396
   20CHL1  H11A 1441   3.019   6.053   9.976  1.2987  0.0071  1.6130
   20CHL1  H11B 1442   3.017   5.884  10.034  2.8761 -0.2926  1.5333
   20CHL1    C9 1443   3.218   5.956   9.978 -0.4829 -0.2257 -0.4166
   20CHL1    H9 1444   3.244   5.848   9.972 -1.3276 -0.4384 -0.3029
   20CHL1   C10 1445   3.280   6.012  10.114  0.4684 -0.1387 -0.8624
   20CHL1   C19 1446   3.215   6.154  10.139  0.2292 -0.3417 -0.3288
   20CHL1  H19A 1447   3.243   6.222  10.055  1.4231 -1.2140 -0.6654
   20CHL1  H19B 1448   3.106   6.137  10.149  0.2502  0.3604  1.2150
   20CHL1  H19C 1449   3.257   6.200  10.230  0.6034  0.5715 -0.9447
   20CHL1    C1 1450   3.222   5.926  10.231  0.1297 -0.7486 -0.0543
   20CHL1   H1A 1451   3.115   5.931  10.260  1.1646 -0.2977  4.3774
   20CHL1   H1B 1452   3.241   5.820  10.203 -0.5094 -0.6159 -1.0430
   20CHL1    C2 1453   3.300   5.955  10.359 -0.0540 -0.4291  0.1438
   20CHL1   H2A 1454   3.276   5.885  10.442  1.5399 -1.4583 -0.2274
   20CHL1   H2B 1455   3.277   6.058  10.394  0.7403 -0.3587  0.4753
   20CHL1   C20 1456   2.942   5.974   9.472  0.1638  0.3931  0.1016
   20CHL1   H20 1457   2.911   6.081   9.463 -1.3543  0.1270  1.6442
   20CHL1   C21 1458   2.827   5.911   9.545 -0.2778 -0.2695  0.1217
   20CHL1  H21A 1459   2.738   5.936   9.483 -0.1634 -1.4985 -0.5625
   20CHL1  H21B 1460   2.809   5.964   9.641 -2.2283 -0.9448  0.1625
   20CHL1  H21C 1461   2.844   5.803   9.560  1.8316  0.0424  0.2975
   20CHL1   C22 1462   2.954   5.915   9.325 -0.0641 -0.6654  0.3967
   20CHL1  H22A 1463   3.038   5.961   9.269  1.1953 -0.8907  2.0277
   20CHL1  H22B 1464   2.984   5.810   9.343  0.2947 -0.6466 -0.0503
   20CHL1   C23 1465   2.832   5.933   9.239  1.0463  0.1935  0.0237
   20CHL1  H23A 1466   2.738   5.899   9.287  1.4294 -1.4717 -0.3524
   20CHL1  H23B 1467   2.834   6.043   9.224  1.8094  0.1969  0.1087
   20CHL1   C24 1468   2.849   5.850   9.108 -0.1816 -0.2885  0.0537
   20CHL1  H24A 1469   2.956   5.858   9.080 -0.5343 -1.3892 -1.7888
   20CHL1  H24B 1470   2.823   5.745   9.135 -3.2076 -0.3064 -2.2753
   20CHL1   C25 1471   2.765   5.902   8.990  0.7518  0.4470  0.1924
   20CHL1   H25 1472   2.796   6.005   8.962 -2.0434  1.0286 -1.1680
   20CHL1   C26 1473   2.777   5.802   8.875  0.0495 -0.1134 -0.1625
   20CHL1  H26A 1474   2.883   5.809   8.843  1.2323  1.0854  3.5280
   20CHL1  H26B 1475   2.733   5.702   8.897  0.6515 -0.1856  0.7475
   20CHL1  H26C 1476   2.718   5.829   8.785 -2.7982  0.3114  1.7046
   20CHL1   C27 1477   2.612   5.902   9.026  0.0462  0.1090 -0.3170
   20CHL1  H27A 1478   2.594   5.988   9.094  1.3145 -0.3914  0.6890
   20CHL1  H27B 1479   2.543   5.913   8.940 -2.6986 -0.4574  1.6929
   20CHL1  H27C 1480   2.583   5.813   9.086 -2.3573 -0.0290 -1.5586
   21CHL1    C3 1481   2.668   1.015  10.349  0.3576 -0.4517 -0.1259
   21CHL1    H3 1482   2.768   1.063  10.338  0.0192  0.3739  0.2635
   21CHL1    O3 1483   2.640   0.986  10.484 -0.1997  0.0958 -0.0623
   21CHL1   H3' 1484   2.557   0.938  10.477  0.5669 -1.1341 -1.1218
   21CHL1    C4 1485   2.557   1.108  10.292 -0.3853  0.4376 -0.8021
   21CHL1   H4A 1486   2.463   1.057  10.322  1.4575 -1.6115  2.0695
   21CHL1   H4B 1487   2.570   1.198  10.356  0.7086 -1.3199  1.6376
   21CHL1    C5 1488   2.577   1.142  10.146 -0.9509 -0.3974 -0.1582
   21CHL1    C6 1489   2.593   1.262  10.104  0.6231  0.2317  0.2836
   21CHL1    H6 1490   2.599   1.353  10.166 -0.3857  2.9148 -3.2540
   21CHL1    C7 1491   2.600   1.289   9.955 -0.3883 -1.1987  0.1391
   21CHL1   H7A 1492   2.513   1.356   9.940 -0.8686 -1.8523 -0.0677
   21CHL1   H7B 1493   2.693   1.338   9.920  0.8007 -0.9628  3.3057
   21CHL1    C8 1494   2.561   1.171   9.858  0.4252 -0.3963 -0.2889
   21CHL1    H8 1495   2.452   1.150   9.861  0.5682 -1.3801 -1.5072
   21CHL1   C14 1496   2.606   1.208   9.714  0.1655 -0.0658 -0.1015
   21CHL1   H14 1497   2.717   1.221   9.715 -0.0138  1.7643  1.8940
   21CHL1   C15 1498   2.546   1.342   9.656  1.0661  0.2725  0.3429
   21CHL1  H15A 1499   2.435   1.351   9.658  0.8755 -1.6728  0.7994
   21CHL1  H15B 1500   2.588   1.439   9.693  1.7007 -0.1201  0.6725
   21CHL1   C16 1501   2.573   1.324   9.502 -0.8137 -0.9528  0.0383
   21CHL1  H16A 1502   2.479   1.336   9.444 -1.2991 -1.0195  0.7991
   21CHL1  H16B 1503   2.647   1.398   9.466 -0.7329 -1.5400 -1.0541
   21CHL1   C17 1504   2.617   1.174   9.472 -0.0063  0.7275 -1.2261
   21CHL1   H17 1505   2.728   1.165   9.469  0.0330  0.1756  0.7664
   21CHL1   C13 1506   2.583   1.098   9.608 -0.0428  0.6951  0.4889
   21CHL1   C18 1507   2.434   1.039   9.607  0.3096  0.1867 -0.3935
   21CHL1  H18A 1508   2.404   1.007   9.709 -2.9203 -3.3266 -2.1679
   21CHL1  H18B 1509   2.361   1.118   9.578  2.9422  2.6605 -0.7438
   21CHL1  H18C 1510   2.421   0.949   9.543  0.3069 -0.2067  0.1499
   21CHL1   C12 1511   2.683   0.988   9.656 -0.3067 -0.6411 -0.8320
   21CHL1  H12A 1512   2.677   0.906   9.581  2.4958 -1.0183 -0.7264
   21CHL1  H12B 1513   2.786   1.030   9.659 -0.1248 -1.1259 -0.1750
   21CHL1   C11 1514   2.652   0.942   9.798  0.5491  0.3620  0.1358
   21CHL1  H11A 1515   2.558   0.883   9.799  0.2547  0.8057 -0.5950
   21CHL1  H11B 1516   2.737   0.877   9.826  0.4935  0.0710 -0.3723
   21CHL1    C9 1517   2.640   1.051   9.907  0.3181 -0.0331 -0.1145
   21CHL1    H9 1518   2.746   1.081   9.918  0.4257 -0.2426 -0.5654
   21CHL1   C10 1519   2.586   1.020  10.055 -0.5277  0.5173  0.0664
   21CHL1   C19 1520   2.441   0.957  10.050 -0.0296  0.1116  0.1052
   21CHL1  H19A 1521   2.428   0.925  10.156  2.3196  0.0869  0.4515
   21CHL1  H19B 1522   2.362   1.026  10.015 -1.3255 -0.1973  2.2655
   21CHL1  H19C 1523   2.449   0.865   9.988 -0.0843 -0.5296  1.0259
   21CHL1    C1 1524   2.696   0.928  10.122  0.5674 -0.3892 -0.2437
   21CHL1   H1A 1525   2.698   0.842  10.053 -0.4481  1.7256 -3.0998
   21CHL1   H1B 1526   2.793   0.982  10.128 -1.1163  2.7362  1.6075
   21CHL1    C2 1527   2.670   0.887  10.268  0.0966  0.2733  0.0263
   21CHL1   H2A 1528   2.747   0.813  10.299 -1.8961 -0.9174  2.4623
   21CHL1   H2B 1529   2.571   0.836  10.280 -1.0181  2.5077  0.8178
   21CHL1   C20 1530   2.551   1.115   9.345  0.1654 -0.1245 -0.2288
   21CHL1   H20 1531   2.441   1.106   9.352  0.2261 -1.9179 -0.9928
   21CHL1   C21 1532   2.602   0.968   9.314 -0.4490  0.2208  0.3170
   21CHL1  H21A 1533   2.713   0.968   9.308 -0.5070 -0.6923 -1.2998
   21CHL1  H21B 1534   2.569   0.932   9.215 -0.2892  1.2597 -0.1281
   21CHL1  H21C 1535   2.566   0.901   9.395 -0.9198 -0.3442 -0.3606
   21CHL1   C22 1536   2.581   1.207   9.223  0.1270  0.7714  0.3952
   21CHL1  H22A 1537   2.541   1.310   9.238 -0.4557  0.3343  2.0789
   21CHL1  H22B 1538   2.687   1.215   9.190  0.1570 -0.7440  0.0886
   21CHL1   C23 1539   2.493   1.160   9.105 -0.7285 -0.3554 -0.1691
   21CHL1  H23A 1540   2.507   1.051   9.090  1.9497 -0.2256  0.7543
   21CHL1  H23B 1541   2.390   1.176   9.141 -0.7350 -2.4848  0.9618
   21CHL1   C24 1542   2.517   1.230   8.968  0.2570 -0.5387  1.1875
   21CHL1  H24A 1543   2.518   1.339   8.991  1.9847 -0.3551  0.4518
   21CHL1  H24B 1544   2.625   1.207   8.950  0.0694 -1.4365  1.2004
   21CHL1   C25 1545   2.424   1.187   8.850 -1.0969 -0.0848  0.1335
   21CHL1   H25 1546   2.451   1.081   8.833 -0.7515  0.0702 -0.3282
   21CHL1   C26 1547   2.278   1.199   8.885  0.9500 -0.0727 -0.1860
   21CHL1  H26A 1548   2.254   1.143   8.977 -0.0535 -0.2099 -0.5186
   21CHL1  H26B 1549   2.239   1.300   8.907 -2.4797 -1.2281 -0.4496
   21CHL1  H26C 1550   2.218   1.166   8.797  0.2251  2.9686 -0.9765
   21CHL1   C27 1551   2.448   1.256   8.714 -0.0168  0.3871 -0.3669
   21CHL1  H27A 1552   2.544   1.219   8.673 -0.1010  0.2040 -0.3991
   21CHL1  H27B 1553   2.363   1.230   8.648  1.7811 -1.7936 -1.9974
   21CHL1  H27C 1554   2.443   1.367   8.715 -3.3106  0.3522 -1.3648
   22CHL1    C3 1555   3.629   2.477   9.895 -0.2258  0.5760  0.0055
   22CHL1    H3 1556   3.595   2.582   9.882 -1.5108  0.1631 -0.1346
   22CHL1    O3 1557   3.631   2.444  10.032 -0.3430  0.3846 -0.1648
   22CHL1   H3' 1558   3.674   2.358  10.029  0.8225  0.9376  0.3111
   22CHL1    C4 1559   3.525   2.385   9.836  0.3751  0.6796  0.2039
   22CHL1   H4A 1560   3.555   2.279   9.857 -0.2359  0.4747  0.0486
   22CHL1   H4B 1561   3.424   2.390   9.882 -0.0055 -0.1987 -0.5079
   22CHL1    C5 1562   3.504   2.402   9.686 -0.2824 -0.5357 -0.2205
   22CHL1    C6 1563   3.393   2.445   9.626  0.5203  0.1443 -0.0693
   22CHL1    H6 1564   3.300   2.461   9.682  0.5376  3.1700 -0.7625
   22CHL1    C7 1565   3.368   2.473   9.479  0.0330  0.2310  0.0714
   22CHL1   H7A 1566   3.281   2.420   9.433  0.9379  0.2073 -1.6897
   22CHL1   H7B 1567   3.348   2.582   9.469  0.2263  0.2338 -0.2956
   22CHL1    C8 1568   3.489   2.427   9.400 -0.1199 -1.1024  0.4047
   22CHL1    H8 1569   3.477   2.317   9.394 -2.4459 -1.1134  3.0977
   22CHL1   C14 1570   3.480   2.489   9.262 -0.2872 -0.3313 -0.0238
   22CHL1   H14 1571   3.500   2.598   9.270 -2.4359  0.3931 -3.0554
   22CHL1   C15 1572   3.349   2.475   9.175  0.1335  0.1392 -0.4993
   22CHL1  H15A 1573   3.290   2.382   9.190 -1.2696  1.0667  0.0288
   22CHL1  H15B 1574   3.268   2.546   9.206  0.6274  0.9756 -1.0874
   22CHL1   C16 1575   3.397   2.488   9.029  0.3733 -0.1532 -0.3523
   22CHL1  H16A 1576   3.349   2.406   8.971 -1.7534  1.3840 -0.8680
   22CHL1  H16B 1577   3.348   2.574   8.979 -1.6483 -1.3622 -0.5765
   22CHL1   C17 1578   3.554   2.498   9.031 -0.1461 -0.3547 -0.4527
   22CHL1   H17 1579   3.567   2.609   9.037  1.1354 -0.4823 -0.6001
   22CHL1   C13 1580   3.593   2.447   9.175  0.4448 -0.4323 -0.1363
   22CHL1   C18 1581   3.604   2.293   9.173  0.7369 -0.1167  0.0852
   22CHL1  H18A 1582   3.622   2.251   9.274  2.5373 -0.4868 -0.3623
   22CHL1  H18B 1583   3.511   2.246   9.132 -0.0785  1.8151 -0.3744
   22CHL1  H18C 1584   3.681   2.255   9.103  1.0399 -1.1314  0.9445
   22CHL1   C12 1585   3.726   2.494   9.221  0.2736 -0.0522  0.2300
   22CHL1  H12A 1586   3.801   2.443   9.156  0.0457  0.6995 -0.6495
   22CHL1  H12B 1587   3.724   2.604   9.205  0.5740  0.0169  0.6463
   22CHL1   C11 1588   3.748   2.463   9.370 -0.5368  0.4017  0.2789
   22CHL1  H11A 1589   3.788   2.359   9.382 -1.6249  0.2051  2.8610
   22CHL1  H11B 1590   3.821   2.540   9.404  0.4690  0.0644 -1.0018
   22CHL1    C9 1591   3.625   2.471   9.467 -0.7074 -0.5665 -0.2809
   22CHL1    H9 1592   3.608   2.578   9.490 -0.3865 -0.9067  1.6638
   22CHL1   C10 1593   3.641   2.411   9.606 -0.3389 -0.7655 -0.6013
   22CHL1   C19 1594   3.699   2.274   9.595 -0.2684 -0.0427 -0.2088
   22CHL1  H19A 1595   3.637   2.218   9.522  0.5322 -4.1146  1.9025
   22CHL1  H19B 1596   3.803   2.271   9.554  0.2606 -1.0053  1.1266
   22CHL1  H19C 1597   3.704   2.219   9.692 -1.8242 -1.5301 -0.9311
   22CHL1    C1 1598   3.743   2.509   9.679  0.5580  0.8400 -0.1083
   22CHL1   H1A 1599   3.843   2.512   9.633  0.9607 -1.8958  0.4284
   22CHL1   H1B 1600   3.699   2.611   9.682  0.0612  0.6559 -0.9664
   22CHL1    C2 1601   3.763   2.462   9.827  0.0065  0.5064  0.6865
   22CHL1   H2A 1602   3.842   2.520   9.880  2.2711 -0.7651 -1.0996
   22CHL1   H2B 1603   3.796   2.355   9.831  2.8380  1.2775  0.2775
   22CHL1   C20 1604   3.625   2.436   8.907  0.1674 -0.1325 -0.1029
   22CHL1   H20 1605   3.610   2.326   8.915  2.8575 -0.6541 -1.3239
   22CHL1   C21 1606   3.774   2.476   8.905  0.0139 -0.0167 -0.6161
   22CHL1  H21A 1607   3.815   2.484   8.802 -0.2250  2.2533 -0.6029
   22CHL1  H21B 1608   3.835   2.405   8.964  1.9204  0.9108 -1.3810
   22CHL1  H21C 1609   3.769   2.575   8.955 -1.6477 -0.9961  1.3111
   22CHL1   C22 1610   3.558   2.469   8.770  0.5093 -0.7817 -0.5078
   22CHL1  H22A 1611   3.448   2.467   8.786  0.5593 -1.7672 -0.2614
   22CHL1  H22B 1612   3.584   2.571   8.735 -0.1773 -0.3365  0.2206
   22CHL1   C23 1613   3.593   2.372   8.655  0.6579  0.4060 -0.2316
   22CHL1  H23A 1614   3.703   2.374   8.645  0.6841  1.0937  0.1358
   22CHL1  H23B 1615   3.569   2.272   8.697 -0.5886  0.7571 -0.0456
   22CHL1   C24 1616   3.518   2.398   8.528  0.4119  0.1450  0.4765
   22CHL1  H24A 1617   3.536   2.303   8.474 -1.0101 -0.0495  0.3017
   22CHL1  H24B 1618   3.408   2.410   8.539  0.4719  1.5855 -0.2507
   22CHL1   C25 1619   3.567   2.513   8.437 -0.4245  0.5124 -0.0905
   22CHL1   H25 1620   3.563   2.599   8.506 -0.0141  0.2447  0.2771
   22CHL1   C26 1621   3.714   2.490   8.387 -0.1058 -0.5294  0.3460
   22CHL1  H26A 1622   3.740   2.541   8.292 -0.0696  0.3831  0.8339
   22CHL1  H26B 1623   3.787   2.515   8.467  1.1340 -0.4795 -0.7754
   22CHL1  H26C 1624   3.738   2.382   8.380  2.4445 -0.0075  0.1399
   22CHL1   C27 1625   3.476   2.534   8.308  0.0901  0.3912  0.5233
   22CHL1  H27A 1626   3.503   2.631   8.261 -1.6411  0.8587  0.4509
   22CHL1  H27B 1627   3.487   2.446   8.241 -0.6277  0.1365  0.7273
   22CHL1  H27C 1628   3.372   2.539   8.346  0.5910 -0.4309  2.0873
   23CHL1    C3 1629   0.212   0.540  10.020 -0.3777 -0.5206 -0.1940
   23CHL1    H3 1630   0.315   0.574   9.998 -0.6314  1.1756  1.0404
   23CHL1    O3 1631   0.200   0.512  10.160  0.6958 -0.2889 -0.0031
   23CHL1   H3' 1632   0.226   0.419  10.165 -2.4026 -1.1948  2.3944
   23CHL1    C4 1633   0.134   0.668   9.991 -0.2813 -0.2054 -0.2790
   23CHL1   H4A 1634   0.038   0.676  10.047 -0.1338  0.5987 -0.1258
   23CHL1   H4B 1635   0.191   0.754  10.032  0.3209 -1.1370  0.8790
   23CHL1    C5 1636   0.110   0.689   9.842 -0.3211 -0.5962 -0.3919
   23CHL1    C6 1637   0.153   0.797   9.775  0.7950 -0.0025  0.3654
   23CHL1    H6 1638   0.199   0.877   9.835  0.7619  0.0995  0.2543
   23CHL1    C7 1639   0.122   0.831   9.634 -0.2700 -0.5256 -0.0240
   23CHL1   H7A 1640   0.086   0.936   9.629  1.8361  0.3048  0.7804
   23CHL1   H7B 1641   0.221   0.848   9.585 -0.7605  2.8757 -0.0399
   23CHL1    C8 1642   0.033   0.735   9.557 -0.1943  0.1254 -0.0327
   23CHL1    H8 1643  -0.070   0.771   9.579 -0.3479  0.7966 -1.6839
   23CHL1   C14 1644   0.052   0.747   9.401  0.3963  0.4785  0.0545
   23CHL1   H14 1645   0.147   0.699   9.370  1.6110  2.9966 -0.3597
   23CHL1   C15 1646   0.041   0.888   9.328  0.0118  0.7119 -0.4227
   23CHL1  H15A 1647  -0.048   0.928   9.381  0.8235  0.7982  0.9175
   23CHL1  H15B 1648   0.134   0.948   9.336  1.3934 -1.5363  1.8009
   23CHL1   C16 1649   0.006   0.855   9.183 -0.0756  0.4273  0.2746
   23CHL1  H16A 1650  -0.091   0.904   9.160  0.4653  1.4683  0.1568
   23CHL1  H16B 1651   0.087   0.875   9.110 -0.2985 -4.0684 -1.4571
   23CHL1   C17 1652  -0.013   0.703   9.178 -0.1441  0.1405 -0.7795
   23CHL1   H17 1653   0.093   0.675   9.160  0.5275  2.1652 -0.2593
   23CHL1   C13 1654  -0.046   0.664   9.325 -0.3732  0.0364  0.1989
   23CHL1   C18 1655  -0.187   0.700   9.353 -0.0968  0.4383 -0.4294
   23CHL1  H18A 1656  -0.206   0.808   9.330  2.9536  1.6735  2.2289
   23CHL1  H18B 1657  -0.253   0.639   9.287  1.1634  0.0299 -1.3589
   23CHL1  H18C 1658  -0.222   0.684   9.457 -1.6454 -0.9850 -1.1307
   23CHL1   C12 1659  -0.025   0.519   9.362 -0.0242 -0.3831  0.2817
   23CHL1  H12A 1660  -0.095   0.450   9.311  1.2243 -0.9517 -0.7219
   23CHL1  H12B 1661   0.081   0.492   9.341  0.0662  0.1959 -0.0064
   23CHL1   C11 1662  -0.046   0.493   9.513  0.3455 -0.4960 -0.3192
   23CHL1  H11A 1663  -0.150   0.508   9.551 -0.0412  1.1778 -1.8900
   23CHL1  H11B 1664  -0.021   0.389   9.544  1.7132 -0.7360 -2.0748
   23CHL1    C9 1665   0.047   0.593   9.603 -0.4554  0.6039  0.4209
   23CHL1    H9 1666   0.151   0.567   9.572 -0.2628  0.1523  1.4053
   23CHL1   C10 1667   0.053   0.571   9.763  0.3823 -0.5442 -0.1419
   23CHL1   C19 1668  -0.096   0.552   9.807  0.8254  0.4173 -0.5166
   23CHL1  H19A 1669  -0.113   0.565   9.916 -1.7385  1.9960 -1.0327
   23CHL1  H19B 1670  -0.150   0.629   9.748 -0.3344 -0.0135 -0.0443
   23CHL1  H19C 1671  -0.141   0.453   9.785 -0.1674  0.7002  0.1971
   23CHL1    C1 1672   0.149   0.449   9.792 -0.2303  0.6893  0.2573
   23CHL1   H1A 1673   0.107   0.356   9.749  0.1363  0.4083  0.5034
   23CHL1   H1B 1674   0.250   0.474   9.755  0.1573 -0.9108  0.1873
   23CHL1    C2 1675   0.168   0.415   9.945  0.2940  0.0660  0.7686
   23CHL1   H2A 1676   0.237   0.330   9.964 -1.0527 -0.5383  3.5273
   23CHL1   H2B 1677   0.071   0.380   9.986  0.3978 -0.2957  0.7097
   23CHL1   C20 1678  -0.096   0.649   9.060  0.9607  0.5380 -0.4702
   23CHL1   H20 1679  -0.203   0.648   9.089  1.2018 -3.1866  0.7790
   23CHL1   C21 1680  -0.059   0.500   9.037 -0.0366 -0.3986  0.1365
   23CHL1  H21A 1681   0.051   0.485   9.031  0.0153  0.4862 -2.0271
   23CHL1  H21B 1682  -0.087   0.452   8.941  0.6892 -0.4163 -0.0744
   23CHL1  H21C 1683  -0.095   0.431   9.117  0.9502 -1.9426 -0.6857
   23CHL1   C22 1684  -0.070   0.728   8.931  0.1299  0.1189 -0.2693
   23CHL1  H22A 1685  -0.148   0.679   8.869  1.4827 -0.6233 -1.4514
   23CHL1  H22B 1686  -0.116   0.828   8.942 -0.9989 -0.2695 -1.2626
   23CHL1   C23 1687   0.068   0.731   8.876 -0.3694 -0.4447 -0.1462
   23CHL1  H23A 1688   0.151   0.782   8.928 -0.5069 -0.6463  0.2689
   23CHL1  H23B 1689   0.105   0.627   8.869  0.4120 -0.1982  0.3085
   23CHL1   C24 1690   0.060   0.781   8.729  0.4732 -0.4188  0.3496
   23CHL1  H24A 1691  -0.006   0.709   8.676  1.3291  0.7984 -2.5924
   23CHL1  H24B 1692   0.011   0.881   8.736  0.8029 -0.3051  1.0672
   23CHL1   C25 1693   0.195   0.799   8.655 -0.1209 -0.1903  0.5712
   23CHL1   H25 1694   0.261   0.868   8.712 -1.2982  1.7443 -0.2918
   23CHL1   C26 1695   0.284   0.677   8.644 -0.1416  0.2195  0.0546
   23CHL1  H26A 1696   0.296   0.628   8.742 -0.5750  0.8975  0.4582
   23CHL1  H26B 1697   0.248   0.603   8.569 -0.0355  3.3143 -3.3487
   23CHL1  H26C 1698   0.378   0.711   8.595  0.5809 -0.7501  0.7597
   23CHL1   C27 1699   0.180   0.864   8.521 -0.0051 -0.1546 -0.9572
   23CHL1  H27A 1700   0.137   0.964   8.542 -1.9576 -1.4436  1.6370
   23CHL1  H27B 1701   0.279   0.870   8.470  0.8945 -5.0508 -0.2129
   23CHL1  H27C 1702   0.109   0.803   8.461 -0.2385  0.4764 -1.3337
   24CHL1    C3 1703   6.242   2.240  10.171  0.3373  0.2850 -0.4799
   24CHL1    H3 1704   6.176   2.329  10.168 -0.6567 -0.4491 -0.8193
   24CHL1    O3 1705   6.226   2.178  10.296 -0.0867  0.0163  0.0913
   24CHL1   H3' 1706   6.234   2.246  10.364  2.2108 -0.0293 -0.0670
   24CHL1    C4 1707   6.196   2.150  10.068  0.3467  0.3256 -0.5908
   24CHL1   H4A 1708   6.257   2.057  10.073  0.6513  0.5496 -0.0880
   24CHL1   H4B 1709   6.091   2.113  10.075  1.1624 -2.1585 -0.3833
   24CHL1    C5 1710   6.206   2.214   9.929  0.0698  0.9543 -0.7125
   24CHL1    C6 1711   6.095   2.221   9.856 -0.1489 -0.0237  0.1799
   24CHL1    H6 1712   6.007   2.173   9.901  0.3417 -1.5512 -0.4360
   24CHL1    C7 1713   6.084   2.286   9.720 -0.1292  0.1452  0.1909
   24CHL1   H7A 1714   6.035   2.216   9.650 -0.2624  1.3795 -1.0072
   24CHL1   H7B 1715   6.024   2.379   9.725  0.2450  0.4420 -0.6666
   24CHL1    C8 1716   6.229   2.312   9.668  0.6603  0.9972 -0.5434
   24CHL1    H8 1717   6.265   2.215   9.627 -1.8981 -0.8618  1.2803
   24CHL1   C14 1718   6.217   2.408   9.546  0.1442 -0.3495 -0.4762
   24CHL1   H14 1719   6.182   2.508   9.578 -1.3871 -0.8404 -0.5597
   24CHL1   C15 1720   6.126   2.370   9.425  0.1906  0.2413 -0.5618
   24CHL1  H15A 1721   6.121   2.263   9.396  2.5076  0.2038 -1.0160
   24CHL1  H15B 1722   6.025   2.394   9.464  1.1007  2.2688  0.7074
   24CHL1   C16 1723   6.171   2.452   9.306 -1.1544 -0.3566 -0.3027
   24CHL1  H16A 1724   6.208   2.389   9.222  0.6573  0.6137 -0.2844
   24CHL1  H16B 1725   6.093   2.514   9.259 -1.7099  0.3778  1.4876
   24CHL1   C17 1726   6.293   2.532   9.358  0.8052 -0.1408  0.7079
   24CHL1   H17 1727   6.254   2.630   9.392  1.1633  1.8458 -3.8713
   24CHL1   C13 1728   6.353   2.454   9.484  0.2688 -0.0981  0.2278
   24CHL1   C18 1729   6.430   2.334   9.433  0.0629 -0.4715  0.5318
   24CHL1  H18A 1730   6.531   2.370   9.405 -0.6501 -1.4764 -4.3445
   24CHL1  H18B 1731   6.447   2.246   9.498  0.3686  0.0294  1.1403
   24CHL1  H18C 1732   6.388   2.286   9.342  0.3486 -0.5133  0.4238
   24CHL1   C12 1733   6.427   2.529   9.597  0.6609 -0.1456  0.1811
   24CHL1  H12A 1734   6.514   2.575   9.546 -0.6636  0.0815 -2.0009
   24CHL1  H12B 1735   6.359   2.612   9.625 -0.3837 -1.1643  0.7643
   24CHL1   C11 1736   6.453   2.441   9.719  0.0582 -0.5818 -0.1239
   24CHL1  H11A 1737   6.534   2.370   9.694  1.1980  0.5205  0.3517
   24CHL1  H11B 1738   6.489   2.511   9.797 -1.8570  1.7744 -1.2292
   24CHL1    C9 1739   6.324   2.372   9.778  0.6156 -0.1388  0.3937
   24CHL1    H9 1740   6.275   2.464   9.815  0.5878  0.0895 -0.2067
   24CHL1   C10 1741   6.342   2.273   9.892 -0.8002 -0.2180 -0.2511
   24CHL1   C19 1742   6.451   2.164   9.853  0.2084 -0.1991 -0.5762
   24CHL1  H19A 1743   6.467   2.074   9.917 -0.2323  0.6393  0.7684
   24CHL1  H19B 1744   6.441   2.129   9.748  0.1420  0.6074 -0.8455
   24CHL1  H19C 1745   6.552   2.207   9.871 -0.3748  0.4741  1.4351
   24CHL1    C1 1746   6.391   2.360  10.018  0.0071  0.1544  0.1471
   24CHL1   H1A 1747   6.497   2.388  10.002  0.0870 -0.4100 -0.3611
   24CHL1   H1B 1748   6.329   2.452  10.023 -1.1186 -0.5694 -0.1732
   24CHL1    C2 1749   6.387   2.281  10.148  0.4350  0.5512 -0.6943
   24CHL1   H2A 1750   6.424   2.358  10.219 -1.8410  2.5656 -1.5368
   24CHL1   H2B 1751   6.457   2.195  10.151  0.2418  0.4182  0.6129
   24CHL1   C20 1752   6.396   2.576   9.248 -0.3886  0.6086  0.5899
   24CHL1   H20 1753   6.473   2.498   9.230 -0.7005  0.7152 -1.3930
   24CHL1   C21 1754   6.475   2.703   9.302 -0.0902  0.0196  0.1356
   24CHL1  H21A 1755   6.550   2.686   9.383  0.3694  0.4563 -0.1991
   24CHL1  H21B 1756   6.407   2.785   9.333 -0.6546  0.3901 -1.9634
   24CHL1  H21C 1757   6.534   2.750   9.221 -0.8896 -1.9421 -1.6966
   24CHL1   C22 1758   6.335   2.607   9.108 -0.3648  0.6423 -0.2156
   24CHL1  H22A 1759   6.268   2.524   9.081  0.4054 -0.1622  0.2924
   24CHL1  H22B 1760   6.268   2.694   9.125 -0.8843  0.1698  0.1899
   24CHL1   C23 1761   6.434   2.628   8.991 -0.7882  0.9811  0.0912
   24CHL1  H23A 1762   6.486   2.726   9.005  1.4275  0.1590 -1.7907
   24CHL1  H23B 1763   6.510   2.547   8.984 -1.4873  0.4305 -1.6997
   24CHL1   C24 1764   6.362   2.641   8.860 -0.0109 -0.7827 -0.5687
   24CHL1  H24A 1765   6.323   2.545   8.822 -1.7162  0.3076 -1.7222
   24CHL1  H24B 1766   6.281   2.714   8.880  0.5523 -0.7264  1.7789
   24CHL1   C25 1767   6.449   2.709   8.756 -0.4863  0.1099  0.0119
   24CHL1   H25 1768   6.500   2.795   8.805  1.1778 -2.5046  3.2482
   24CHL1   C26 1769   6.568   2.627   8.703  0.3712 -0.2919  0.4222
   24CHL1  H26A 1770   6.539   2.526   8.668 -1.6917 -0.5709  2.7023
   24CHL1  H26B 1771   6.603   2.669   8.606 -0.4241 -2.8165 -1.0418
   24CHL1  H26C 1772   6.662   2.619   8.761  2.4688 -0.3045 -2.7129
   24CHL1   C27 1773   6.364   2.760   8.644  0.6398  0.1606  0.1634
   24CHL1  H27A 1774   6.431   2.788   8.560  0.1796 -0.1114 -0.2962
   24CHL1  H27B 1775   6.298   2.676   8.612  1.1498 -0.1297 -0.1509
   24CHL1  H27C 1776   6.303   2.844   8.682  0.7204 -0.0341  0.7271
   25CHL1    C3 1777   1.161   0.566  10.186  0.3423  0.6696  0.0609
   25CHL1    H3 1778   1.246   0.633  10.163  0.0319  0.7381 -0.9419
   25CHL1    O3 1779   1.120   0.589  10.317  0.3802 -0.1571 -0.2250
   25CHL1   H3' 1780   1.042   0.533  10.322  1.1288 -1.4311 -1.9940
   25CHL1    C4 1781   1.057   0.595  10.085 -0.0603  0.3802 -1.0041
   25CHL1   H4A 1782   0.962   0.544  10.110 -1.0499  1.5910 -2.1403
   25CHL1   H4B 1783   1.024   0.700  10.102 -1.4060 -0.2851  0.7886
   25CHL1    C5 1784   1.096   0.567   9.940 -0.0263  0.3241 -0.5257
   25CHL1    C6 1785   1.080   0.651   9.842 -0.2822  0.0828 -0.3072
   25CHL1    H6 1786   1.048   0.754   9.866 -0.4408 -0.1057  0.3062
   25CHL1    C7 1787   1.111   0.615   9.699 -0.2097  0.2185  0.7910
   25CHL1   H7A 1788   1.034   0.663   9.635  0.7770  2.3665  1.1226
   25CHL1   H7B 1789   1.209   0.657   9.668  0.0965 -1.3417 -0.4786
   25CHL1    C8 1790   1.116   0.462   9.671  0.3223  0.1351  0.3859
   25CHL1    H8 1791   1.011   0.426   9.668  0.3785 -0.0177  0.2489
   25CHL1   C14 1792   1.176   0.428   9.534 -1.2142  0.1383 -0.0638
   25CHL1   H14 1793   1.281   0.467   9.531 -0.2451 -2.2875  0.1158
   25CHL1   C15 1794   1.104   0.490   9.415 -0.1016 -0.6613 -0.4085
   25CHL1  H15A 1795   0.995   0.497   9.432  0.0720  0.7532  0.2362
   25CHL1  H15B 1796   1.140   0.595   9.405 -0.4386 -0.5388 -0.3484
   25CHL1   C16 1797   1.140   0.400   9.302  0.3377  0.0614  0.9262
   25CHL1  H16A 1798   1.045   0.354   9.267  0.4582  0.3951  0.1440
   25CHL1  H16B 1799   1.169   0.468   9.219 -3.6841  1.7711  0.6838
   25CHL1   C17 1800   1.239   0.287   9.356 -0.2529 -0.2370  0.1202
   25CHL1   H17 1801   1.336   0.341   9.354 -0.2501 -0.0989  2.0903
   25CHL1   C13 1802   1.193   0.285   9.507 -0.0543 -0.1485  0.4504
   25CHL1   C18 1803   1.050   0.215   9.511 -0.1232 -0.1490 -0.1792
   25CHL1  H18A 1804   1.060   0.109   9.480  0.7635  0.3331 -1.6382
   25CHL1  H18B 1805   1.011   0.228   9.615  0.3885 -1.5263  0.1968
   25CHL1  H18C 1806   0.976   0.260   9.442  1.5644 -1.2608 -2.8358
   25CHL1   C12 1807   1.294   0.227   9.606  0.7788  0.1232  0.4761
   25CHL1  H12A 1808   1.297   0.120   9.578 -1.0168 -0.2414  1.5832
   25CHL1  H12B 1809   1.394   0.264   9.572 -0.7672  1.6478 -2.9456
   25CHL1   C11 1810   1.251   0.257   9.750  0.0192  0.2564 -0.2637
   25CHL1  H11A 1811   1.174   0.178   9.763  1.1779 -0.6589  1.5363
   25CHL1  H11B 1812   1.334   0.220   9.814 -0.4159 -1.0429 -0.4384
   25CHL1    C9 1813   1.212   0.401   9.779  0.2230 -0.0858  0.3618
   25CHL1    H9 1814   1.310   0.454   9.783  1.7169 -2.7605  1.9911
   25CHL1   C10 1815   1.150   0.424   9.920  0.4283 -0.1713 -0.0520
   25CHL1   C19 1816   1.026   0.327   9.934  0.1464 -0.7086  0.4326
   25CHL1  H19A 1817   1.066   0.228   9.966  2.8260 -0.1895 -1.0846
   25CHL1  H19B 1818   0.961   0.351  10.021  2.6497  1.7159  1.7518
   25CHL1  H19C 1819   0.969   0.331   9.839  3.7914  0.4700 -1.8749
   25CHL1    C1 1820   1.256   0.389  10.029 -0.3659  0.3517  0.6469
   25CHL1   H1A 1821   1.278   0.281  10.022 -0.2225  0.5030 -2.9279
   25CHL1   H1B 1822   1.356   0.438  10.034 -0.8374  1.3473  0.6569
   25CHL1    C2 1823   1.205   0.414  10.173  0.7890 -0.7011 -0.8013
   25CHL1   H2A 1824   1.283   0.391  10.249 -0.7804 -1.6634  0.5909
   25CHL1   H2B 1825   1.124   0.341  10.195  0.2993  0.2151  0.5860
   25CHL1   C20 1826   1.247   0.157   9.277 -0.1148 -0.4069 -0.3186
   25CHL1   H20 1827   1.161   0.092   9.302 -0.8005 -0.2725 -2.1285
   25CHL1   C21 1828   1.383   0.091   9.303  0.7746  0.3761  0.3094
   25CHL1  H21A 1829   1.371  -0.013   9.265 -0.0827  0.4443  0.3670
   25CHL1  H21B 1830   1.414   0.066   9.406 -0.7163  0.1597  0.7252
   25CHL1  H21C 1831   1.465   0.145   9.251  2.5545 -2.0200  0.4561
   25CHL1   C22 1832   1.218   0.180   9.126 -0.1479  0.1204 -0.0454
   25CHL1  H22A 1833   1.120   0.225   9.103  0.3956 -0.2277 -3.5841
   25CHL1  H22B 1834   1.296   0.234   9.069  0.6831  0.0604  0.9927
   25CHL1   C23 1835   1.204   0.037   9.047 -0.0413 -0.1521 -0.0033
   25CHL1  H23A 1836   1.311   0.009   9.031  0.5720  1.0860  1.6269
   25CHL1  H23B 1837   1.159  -0.040   9.114 -1.9786  0.5564 -0.4411
   25CHL1   C24 1838   1.120   0.040   8.917 -0.3988 -0.1846 -0.5818
   25CHL1  H24A 1839   1.119  -0.057   8.864 -0.5413 -1.3724  1.4991
   25CHL1  H24B 1840   1.015   0.060   8.946 -0.1910  0.2065 -0.0634
   25CHL1   C25 1841   1.149   0.155   8.817  0.2042  0.3229 -0.1913
   25CHL1   H25 1842   1.128   0.258   8.855  2.3456  1.4805 -1.9066
   25CHL1   C26 1843   1.294   0.164   8.767  0.4842  0.1204 -0.0293
   25CHL1  H26A 1844   1.366   0.217   8.832  1.8579 -1.1732 -0.4366
   25CHL1  H26B 1845   1.331   0.063   8.739 -0.1197  0.1339 -0.9222
   25CHL1  H26C 1846   1.300   0.220   8.671  1.3858  0.2419  0.0969
   25CHL1   C27 1847   1.057   0.147   8.693  0.1441  0.3451 -0.3512
   25CHL1  H27A 1848   0.952   0.173   8.716 -0.0599 -0.6459 -0.1211
   25CHL1  H27B 1849   1.079   0.232   8.625 -2.6023  2.1376  0.8293
   25CHL1  H27C 1850   1.069   0.047   8.647  1.7996 -1.5946  3.7476
   26CHL1    C3 1851   3.370   2.841   9.923  0.6141 -0.7392 -0.5803
   26CHL1    H3 1852   3.324   2.744   9.894 -1.9837  0.4166 -0.6003
   26CHL1    O3 1853   3.421   2.820  10.052 -0.4974  0.0041  0.2114
   26CHL1   H3' 1854   3.401   2.890  10.114 -3.0058 -1.5921  1.3182
   26CHL1    C4 1855   3.478   2.905   9.835  0.1022  0.0121 -0.2448
   26CHL1   H4A 1856   3.512   3.006   9.869 -1.4758  1.1663 -1.9148
   26CHL1   H4B 1857   3.561   2.831   9.838 -0.1923 -0.2814  1.6852
   26CHL1    C5 1858   3.431   2.921   9.691  0.1013 -0.3283 -0.6304
   26CHL1    C6 1859   3.507   2.870   9.597 -0.6795  0.4039 -0.3318
   26CHL1    H6 1860   3.603   2.827   9.626 -0.7385 -1.0555 -2.0931
   26CHL1    C7 1861   3.474   2.888   9.451 -0.7287 -0.2293  0.0151
   26CHL1   H7A 1862   3.564   2.923   9.398 -0.3511 -1.5061 -0.2062
   26CHL1   H7B 1863   3.437   2.791   9.414 -1.1858 -0.7611  1.7424
   26CHL1    C8 1864   3.367   2.992   9.425 -0.7989 -0.2939 -1.1735
   26CHL1    H8 1865   3.420   3.089   9.430  0.1133 -0.8235 -0.5144
   26CHL1   C14 1866   3.311   2.974   9.285 -1.4310  0.0274 -0.2360
   26CHL1   H14 1867   3.255   2.879   9.296  0.1076 -1.0118 -1.0811
   26CHL1   C15 1868   3.405   2.955   9.173 -0.4843 -0.5292 -0.5302
   26CHL1  H15A 1869   3.480   3.037   9.178  0.0795 -1.1081  1.2774
   26CHL1  H15B 1870   3.452   2.856   9.158 -1.3352 -0.9895 -0.2029
   26CHL1   C16 1871   3.324   2.980   9.041  0.2762  0.5921 -0.0399
   26CHL1  H16A 1872   3.369   3.044   8.962 -1.6768  0.6171 -1.2001
   26CHL1  H16B 1873   3.310   2.878   8.998  1.1738  0.7675 -0.7925
   26CHL1   C17 1874   3.193   3.040   9.089 -0.1438 -0.3769 -0.1961
   26CHL1   H17 1875   3.128   2.950   9.100  0.2329 -1.1032 -3.0332
   26CHL1   C13 1876   3.212   3.087   9.235  0.1423 -0.3693 -0.5761
   26CHL1   C18 1877   3.292   3.219   9.231 -0.3464  0.2479 -0.1414
   26CHL1  H18A 1878   3.382   3.219   9.165 -2.6465  0.8581 -3.5835
   26CHL1  H18B 1879   3.226   3.304   9.202  1.7004  1.7615 -0.6696
   26CHL1  H18C 1880   3.330   3.237   9.333 -1.3759 -0.0595  0.3049
   26CHL1   C12 1881   3.093   3.097   9.336  0.1292  0.3698  0.5463
   26CHL1  H12A 1882   3.020   3.175   9.308 -1.1548 -1.0436 -0.2132
   26CHL1  H12B 1883   3.038   3.001   9.325  0.0089  0.0469  3.2825
   26CHL1   C11 1884   3.134   3.112   9.479  0.1770 -0.2925  0.3796
   26CHL1  H11A 1885   3.175   3.215   9.487 -1.3701  0.6791 -2.5902
   26CHL1  H11B 1886   3.049   3.095   9.549  0.9907 -1.5979  1.0777
   26CHL1    C9 1887   3.253   3.003   9.523  0.6314 -0.5098 -0.2172
   26CHL1    H9 1888   3.199   2.906   9.515 -1.3599  0.4337  1.1283
   26CHL1   C10 1889   3.307   3.010   9.667 -0.2161 -0.0073 -0.3247
   26CHL1   C19 1890   3.341   3.158   9.706  0.0225  0.1164  0.1134
   26CHL1  H19A 1891   3.248   3.217   9.690  0.9900  1.7456  0.2620
   26CHL1  H19B 1892   3.373   3.183   9.809 -1.8374  1.8875  0.3281
   26CHL1  H19C 1893   3.413   3.197   9.630 -3.3178  2.2053 -2.2866
   26CHL1    C1 1894   3.205   2.953   9.776  0.7807 -0.1734  0.1719
   26CHL1   H1A 1895   3.118   3.023   9.772  2.2151  1.6237 -1.4624
   26CHL1   H1B 1896   3.179   2.859   9.723  3.1264 -0.0593 -1.3302
   26CHL1    C2 1897   3.252   2.939   9.920  0.0612  0.2654 -0.2072
   26CHL1   H2A 1898   3.179   2.902   9.995  0.1836  2.6335  1.1626
   26CHL1   H2B 1899   3.263   3.043   9.956  2.2162  0.2792 -0.7978
   26CHL1   C20 1900   3.124   3.126   8.989 -0.4510 -0.0372  0.3232
   26CHL1   H20 1901   3.182   3.221   8.987  1.4958 -1.1755 -1.0442
   26CHL1   C21 1902   2.977   3.155   9.026 -0.5100 -0.7952 -0.9606
   26CHL1  H21A 1903   2.920   3.061   9.044 -1.5880 -0.1441 -0.8526
   26CHL1  H21B 1904   2.919   3.221   8.957 -2.2182 -1.9499 -0.6969
   26CHL1  H21C 1905   2.981   3.203   9.126  2.4125 -0.7328 -1.0385
   26CHL1   C22 1906   3.134   3.080   8.844 -0.0340 -0.7068  0.4186
   26CHL1  H22A 1907   3.239   3.081   8.807  0.4543 -0.6952  1.7662
   26CHL1  H22B 1908   3.068   2.995   8.817 -1.2743  0.1488  0.6974
   26CHL1   C23 1909   3.067   3.182   8.744  0.3278  0.0683 -0.2074
   26CHL1  H23A 1910   2.961   3.202   8.770 -0.6054  0.2516 -3.6054
   26CHL1  H23B 1911   3.117   3.278   8.770 -0.3698  0.4980 -0.4179
   26CHL1   C24 1912   3.081   3.150   8.588  0.1930  0.2430  0.0959
   26CHL1  H24A 1913   3.078   3.247   8.532 -0.9059  1.1573  1.6532
   26CHL1  H24B 1914   3.180   3.102   8.577  1.8575  3.4693 -0.2478
   26CHL1   C25 1915   2.976   3.047   8.537  0.0222  0.1277 -0.9047
   26CHL1   H25 1916   2.985   2.957   8.602 -2.1204  0.7023  0.2738
   26CHL1   C26 1917   2.829   3.101   8.556  0.3292  0.5659 -0.0982
   26CHL1  H26A 1918   2.812   3.111   8.666 -0.1611 -0.0785 -0.1042
   26CHL1  H26B 1919   2.804   3.193   8.500 -1.7811 -0.3511 -0.7671
   26CHL1  H26C 1920   2.758   3.026   8.514  0.4127  0.7503 -0.5733
   26CHL1   C27 1921   3.016   3.015   8.397  0.2770  0.1598  0.1588
   26CHL1  H27A 1922   2.970   2.919   8.366  3.8723 -1.9712  0.8552
   26CHL1  H27B 1923   2.992   3.101   8.331 -0.9133  0.3171  0.7623
   26CHL1  H27C 1924   3.124   2.997   8.378  0.3485  0.6941  0.0484
   27CHL1    C3 1925   2.833   0.002  10.404 -0.1672  0.7055  0.0934
   27CHL1    H3 1926   2.930  -0.018  10.354 -0.5944 -2.9180  0.4347
   27CHL1    O3 1927   2.847  -0.002  10.548 -0.2768 -0.3815  0.6856
   27CHL1   H3' 1928   2.756   0.002  10.580 -0.9508  1.4352 -1.1866
   27CHL1    C4 1929   2.777   0.130  10.358 -0.1480 -0.4052  0.8581
   27CHL1   H4A 1930   2.678   0.142  10.405 -0.6604 -1.2475  0.0355
   27CHL1   H4B 1931   2.836   0.217  10.393 -0.6456  1.0697 -1.6929
   27CHL1    C5 1932   2.764   0.122  10.209 -1.3114 -0.2841 -0.5939
   27CHL1    C6 1933   2.824   0.216  10.136  0.0466 -0.5031 -0.1995
   27CHL1    H6 1934   2.879   0.296  10.187 -0.0669 -1.0092  0.7607
   27CHL1    C7 1935   2.809   0.228   9.990 -0.1747 -0.1551 -0.3730
   27CHL1   H7A 1936   2.773   0.332   9.976 -1.7413 -0.7955 -1.4023
   27CHL1   H7B 1937   2.901   0.201   9.934 -1.1546  0.3655 -2.3182
   27CHL1    C8 1938   2.694   0.131   9.923 -0.1557 -0.4518 -0.2702
   27CHL1    H8 1939   2.595   0.183   9.924  0.6635  1.1963 -1.0905
   27CHL1   C14 1940   2.733   0.107   9.779  0.3624 -0.1294  0.1343
   27CHL1   H14 1941   2.825   0.045   9.787 -0.2275 -0.8720  1.4446
   27CHL1   C15 1942   2.788   0.218   9.684 -0.4688  0.1257  0.5357
   27CHL1  H15A 1943   2.714   0.301   9.689  1.0854  1.4872  1.6426
   27CHL1  H15B 1944   2.890   0.248   9.713  0.0782 -0.4083 -0.7220
   27CHL1   C16 1945   2.794   0.134   9.555  0.5321  0.1012  0.5123
   27CHL1  H16A 1946   2.781   0.199   9.466  1.0845  0.5985  0.7920
   27CHL1  H16B 1947   2.899   0.097   9.557  0.3932 -0.4794  4.5008
   27CHL1   C17 1948   2.707   0.006   9.568  0.2081  0.2339 -0.4834
   27CHL1   H17 1949   2.779  -0.074   9.597 -0.0970  0.1390  0.0313
   27CHL1   C13 1950   2.636   0.017   9.704  0.1237  0.6046 -0.3167
   27CHL1   C18 1951   2.498   0.082   9.695  0.0906  0.5697 -0.6795
   27CHL1  H18A 1952   2.438   0.012   9.633 -0.5512 -2.0910  2.6010
   27CHL1  H18B 1953   2.449   0.088   9.795 -1.7969 -1.7333 -1.3775
   27CHL1  H18C 1954   2.494   0.181   9.645 -1.0666  0.7863 -0.1829
   27CHL1   C12 1955   2.631  -0.118   9.778  0.3589 -0.4722 -0.8051
   27CHL1  H12A 1956   2.550  -0.185   9.742  0.5045 -2.7839  2.6496
   27CHL1  H12B 1957   2.731  -0.164   9.771  0.9367  0.6523 -0.2927
   27CHL1   C11 1958   2.608  -0.113   9.929 -0.1144 -0.4045  0.0875
   27CHL1  H11A 1959   2.498  -0.097   9.939 -0.3394 -1.2999 -0.7957
   27CHL1  H11B 1960   2.625  -0.219   9.959 -0.5114 -0.5921 -0.3350
   27CHL1    C9 1961   2.689  -0.002   9.999 -0.7992  0.4044  0.9227
   27CHL1    H9 1962   2.791  -0.043   9.982 -0.8186  0.8988 -0.5364
   27CHL1   C10 1963   2.682   0.003  10.153 -0.9935 -1.1110  0.3815
   27CHL1   C19 1964   2.538   0.034  10.181  0.6391  0.7096 -0.5269
   27CHL1  H19A 1965   2.469  -0.045  10.144 -0.0141  1.2850 -0.5576
   27CHL1  H19B 1966   2.524   0.048  10.291 -0.9430  4.8495 -1.0727
   27CHL1  H19C 1967   2.495   0.134  10.157 -0.2629  0.1920 -1.1358
   27CHL1    C1 1968   2.738  -0.131  10.214  0.8648  0.1266 -0.3529
   27CHL1   H1A 1969   2.671  -0.212  10.177  0.6177  0.3955 -0.5021
   27CHL1   H1B 1970   2.840  -0.155  10.178  1.5431  2.0251  0.1946
   27CHL1    C2 1971   2.742  -0.118  10.367  0.5877  0.2588  0.5426
   27CHL1   H2A 1972   2.781  -0.214  10.409 -0.2482  0.1419  1.0784
   27CHL1   H2B 1973   2.639  -0.103  10.407  1.3198  0.4938  2.4733
   27CHL1   C20 1974   2.625  -0.041   9.448 -0.1368  0.2298  0.0513
   27CHL1   H20 1975   2.557  -0.117   9.491  0.3828  1.0882  2.5407
   27CHL1   C21 1976   2.728  -0.115   9.347  0.2720  0.1734  0.0208
   27CHL1  H21A 1977   2.789  -0.182   9.412 -0.2795  2.5265  3.1866
   27CHL1  H21B 1978   2.787  -0.045   9.285  2.0899  0.1783  1.6907
   27CHL1  H21C 1979   2.668  -0.176   9.275  0.7263 -0.3865  0.1063
   27CHL1   C22 1980   2.545   0.066   9.370 -0.2224 -0.5430 -0.4373
   27CHL1  H22A 1981   2.493   0.122   9.451  0.1627 -2.2899  1.0738
   27CHL1  H22B 1982   2.613   0.140   9.323 -1.7976  0.0805 -1.8458
   27CHL1   C23 1983   2.450   0.015   9.252  0.2182  0.3062 -0.8708
   27CHL1  H23A 1984   2.498  -0.070   9.201  0.3253 -0.1271 -0.0685
   27CHL1  H23B 1985   2.352  -0.015   9.294  0.4977  0.3843 -0.1348
   27CHL1   C24 1986   2.419   0.112   9.144 -0.5360 -0.2343 -0.7433
   27CHL1  H24A 1987   2.376   0.198   9.200 -0.3099 -1.3874  1.3315
   27CHL1  H24B 1988   2.515   0.150   9.103  0.7808 -1.7445  0.7601
   27CHL1   C25 1989   2.333   0.062   9.028  0.2800 -0.2312 -0.0815
   27CHL1   H25 1990   2.390  -0.017   8.975  2.2787  1.3159 -0.3527
   27CHL1   C26 1991   2.199   0.003   9.091 -0.5579  0.1129 -0.3801
   27CHL1  H26A 1992   2.116   0.004   9.017 -1.7906  1.9915  0.9301
   27CHL1  H26B 1993   2.210  -0.095   9.141 -1.4885 -1.6112 -3.3341
   27CHL1  H26C 1994   2.171   0.074   9.171 -0.3702  1.5728 -1.5589
   27CHL1   C27 1995   2.306   0.165   8.916 -0.7020 -0.7100 -0.0085
   27CHL1  H27A 1996   2.232   0.132   8.841 -1.8149  1.5255  0.0192
   27CHL1  H27B 1997   2.254   0.249   8.967  0.6740  0.4845 -0.4676
   27CHL1  H27C 1998   2.402   0.197   8.870 -1.1752  1.0180  0.1249
   28CHL1    C3 1999   2.273   6.234  10.214  0.4068  0.5077 -0.2198
   28CHL1    H3 2000   2.355   6.184  10.159  2.0392 -1.2667  3.4779
   28CHL1    O3 2001   2.302   6.231  10.354 -0.4335  0.4510 -0.0754
   28CHL1   H3' 2002   2.234   6.288  10.393  0.7156  0.7179  1.6387
   28CHL1    C4 2003   2.264   6.383  10.181  0.9049  0.7286 -0.2721
   28CHL1   H4A 2004   2.190   6.429  10.251  3.0935  3.4356  0.4763
   28CHL1   H4B 2005   2.355   6.435  10.218  0.1912  2.3277 -0.6622
   28CHL1    C5 2006   2.236   6.392  10.033  0.2339 -0.0787  0.8164
   28CHL1    C6 2007   2.320   6.470   9.959  0.1462  0.3426 -0.6809
   28CHL1    H6 2008   2.400   6.533   9.999  0.2707 -0.1766 -0.0877
   28CHL1    C7 2009   2.298   6.502   9.812 -0.6815 -0.2200 -0.0843
   28CHL1   H7A 2010   2.313   6.609   9.789  1.1720 -0.4380 -0.0424
   28CHL1   H7B 2011   2.377   6.439   9.766 -0.8686 -0.7257  0.2664
   28CHL1    C8 2012   2.163   6.451   9.767  0.4071 -0.9298  0.6578
   28CHL1    H8 2013   2.088   6.527   9.797  3.7566  2.3885  1.3481
   28CHL1   C14 2014   2.156   6.439   9.612  0.0964  0.2511  0.6233
   28CHL1   H14 2015   2.212   6.348   9.580 -2.1257 -0.5182 -1.3957
   28CHL1   C15 2016   2.221   6.547   9.517  0.8399  0.2032  0.1530
   28CHL1  H15A 2017   2.211   6.650   9.557 -1.2899  0.6310 -1.3079
   28CHL1  H15B 2018   2.327   6.518   9.505  1.1041  1.3506 -0.3412
   28CHL1   C16 2019   2.138   6.551   9.395 -0.4656  0.4610 -0.1488
   28CHL1  H16A 2020   2.065   6.635   9.398  1.3131  2.1182 -1.2144
   28CHL1  H16B 2021   2.185   6.553   9.295  0.8482 -0.1436  0.4294
   28CHL1   C17 2022   2.045   6.422   9.411 -0.9703  0.1552  0.0992
   28CHL1   H17 2023   2.111   6.337   9.383 -1.3150 -0.3894  0.9152
   28CHL1   C13 2024   2.014   6.407   9.563 -0.5411  0.1962  0.7224
   28CHL1   C18 2025   1.909   6.509   9.615  0.4894 -0.5633 -0.1509
   28CHL1  H18A 2026   1.887   6.492   9.723  2.6834  1.7022  0.7420
   28CHL1  H18B 2027   1.956   6.610   9.610  0.3438 -0.5412 -1.3426
   28CHL1  H18C 2028   1.821   6.510   9.547  0.9871 -1.9407 -0.8460
   28CHL1   C12 2029   1.982   6.268   9.600 -0.0695  0.9729 -0.6546
   28CHL1  H12A 2030   1.877   6.239   9.579  0.4865 -0.8416 -1.1060
   28CHL1  H12B 2031   2.044   6.194   9.544 -1.5496 -0.5149 -0.4095
   28CHL1   C11 2032   1.995   6.250   9.754 -0.3071  0.0070  0.2880
   28CHL1  H11A 2033   1.905   6.298   9.797 -1.1005 -0.0952 -1.2242
   28CHL1  H11B 2034   1.985   6.146   9.791  2.0385 -0.3453  0.1021
   28CHL1    C9 2035   2.125   6.314   9.825 -0.8167 -0.2568  0.2257
   28CHL1    H9 2036   2.208   6.249   9.792  1.8229  1.9902  2.0629
   28CHL1   C10 2037   2.117   6.313   9.979 -0.2018  0.0077  0.5734
   28CHL1   C19 2038   1.982   6.368  10.038 -0.1626  0.3731  0.0016
   28CHL1  H19A 2039   1.941   6.458   9.988  0.0258  0.3583 -0.1758
   28CHL1  H19B 2040   1.907   6.287  10.020  1.6012 -1.2480 -0.3912
   28CHL1  H19C 2041   1.986   6.390  10.147 -2.7592  0.1663  0.2089
   28CHL1    C1 2042   2.122   6.161  10.029 -0.2729 -0.1479 -0.2750
   28CHL1   H1A 2043   2.028   6.112   9.995 -0.5329  0.0768  0.1057
   28CHL1   H1B 2044   2.206   6.102   9.986  0.5600 -0.7527  2.0122
   28CHL1    C2 2045   2.144   6.156  10.178  0.2250 -0.0993 -0.2577
   28CHL1   H2A 2046   2.173   6.058  10.222  2.6396  1.4267  1.8269
   28CHL1   H2B 2047   2.057   6.200  10.231 -0.0765 -0.4866 -0.4256
   28CHL1   C20 2048   1.938   6.407   9.304 -0.3187  0.5844  0.0324
   28CHL1   H20 2049   1.842   6.410   9.360  0.1957  2.0123  0.9060
   28CHL1   C21 2050   1.962   6.267   9.235 -1.1285 -0.7586 -0.2716
   28CHL1  H21A 2051   1.883   6.242   9.161 -0.3651 -0.5144 -1.1949
   28CHL1  H21B 2052   1.959   6.200   9.323 -1.1465 -0.0415  0.2811
   28CHL1  H21C 2053   2.062   6.264   9.186 -1.7531 -2.2327 -1.5449
   28CHL1   C22 2054   1.931   6.527   9.197 -0.2158  0.6169 -0.2675
   28CHL1  H22A 2055   1.916   6.627   9.241 -0.3596  0.3144  0.3741
   28CHL1  H22B 2056   2.030   6.533   9.145 -0.5432 -0.1699 -1.0192
   28CHL1   C23 2057   1.818   6.512   9.094  1.0813 -0.9086  1.0154
   28CHL1  H23A 2058   1.841   6.432   9.020  0.9874  1.4286 -1.6984
   28CHL1  H23B 2059   1.717   6.499   9.139  0.4201  0.0952 -0.1298
   28CHL1   C24 2060   1.802   6.648   9.025  0.0529  1.0538 -0.0899
   28CHL1  H24A 2061   1.748   6.708   9.101 -1.0439  0.6584 -0.5435
   28CHL1  H24B 2062   1.899   6.695   8.997  0.9669  0.2768  1.5940
   28CHL1   C25 2063   1.709   6.650   8.906  0.7073 -0.0848  0.7561
   28CHL1   H25 2064   1.753   6.581   8.831  0.7639 -0.4415  1.1130
   28CHL1   C26 2065   1.567   6.600   8.943 -0.1247  0.2325 -0.7587
   28CHL1  H26A 2066   1.537   6.645   9.040 -0.7161 -1.3974 -0.1544
   28CHL1  H26B 2067   1.496   6.630   8.863 -2.2635  1.4531  1.4561
   28CHL1  H26C 2068   1.572   6.489   8.945 -3.0495  0.0406  0.3982
   28CHL1   C27 2069   1.714   6.794   8.844 -0.4653  0.1570  0.2005
   28CHL1  H27A 2070   1.669   6.877   8.903  0.0738  1.0141 -0.5656
   28CHL1  H27B 2071   1.818   6.818   8.812 -0.1034 -3.2081 -1.5562
   28CHL1  H27C 2072   1.663   6.792   8.746 -0.1929 -1.0748  0.0680
   29CHL1    C3 2073   2.222   3.458   6.654  0.2528 -0.0364  0.0884
   29CHL1    H3 2074   2.149   3.541   6.654 -1.0770 -1.1689 -0.3685
   29CHL1    O3 2075   2.246   3.415   6.522  0.2950 -0.4602  0.1976
   29CHL1   H3' 2076   2.270   3.324   6.541 -0.4905 -0.4527  1.3377
   29CHL1    C4 2077   2.359   3.506   6.718  0.2286 -0.3837  0.6675
   29CHL1   H4A 2078   2.419   3.415   6.701 -0.4227 -0.5541 -0.9981
   29CHL1   H4B 2079   2.412   3.578   6.652 -0.9559  0.6324  0.7717
   29CHL1    C5 2080   2.355   3.538   6.869 -0.1449 -0.6664  0.1047
   29CHL1    C6 2081   2.392   3.655   6.910 -0.4896 -0.6115 -0.5990
   29CHL1    H6 2082   2.436   3.720   6.833 -2.2693 -0.4597 -1.5509
   29CHL1    C7 2083   2.373   3.701   7.048 -0.9826 -0.4224  0.7262
   29CHL1   H7A 2084   2.466   3.750   7.083  0.0126 -0.9977 -1.0122
   29CHL1   H7B 2085   2.288   3.771   7.061  0.6639  1.5641  1.3502
   29CHL1    C8 2086   2.354   3.580   7.146  0.2075  0.0178  0.6209
   29CHL1    H8 2087   2.452   3.528   7.156  0.6571  0.5966 -0.5248
   29CHL1   C14 2088   2.309   3.640   7.276  0.7868 -0.4800 -0.2054
   29CHL1   H14 2089   2.222   3.704   7.248  3.4022  2.6961 -1.8653
   29CHL1   C15 2090   2.402   3.739   7.334 -0.1693  0.2214 -0.8553
   29CHL1  H15A 2091   2.505   3.697   7.338  0.3238  1.3591  4.0104
   29CHL1  H15B 2092   2.400   3.831   7.272 -1.4420 -0.2010 -1.4828
   29CHL1   C16 2093   2.345   3.759   7.469 -0.3371  0.2764 -0.4254
   29CHL1  H16A 2094   2.426   3.760   7.545  0.2852 -1.5908 -1.0045
   29CHL1  H16B 2095   2.278   3.848   7.471 -0.8934 -0.1331 -0.6103
   29CHL1   C17 2096   2.245   3.641   7.500 -0.2210 -0.3433 -0.2707
   29CHL1   H17 2097   2.142   3.678   7.484 -0.0472  1.1131  1.5697
   29CHL1   C13 2098   2.281   3.541   7.389 -0.0314 -0.2535  0.3417
   29CHL1   C18 2099   2.415   3.467   7.431 -0.7925  1.0075 -0.2345
   29CHL1  H18A 2100   2.471   3.431   7.342 -0.1058  0.4309  0.4189
   29CHL1  H18B 2101   2.484   3.529   7.491 -0.0891 -0.3751  0.4284
   29CHL1  H18C 2102   2.394   3.378   7.494 -0.5241  1.8515  1.0870
   29CHL1   C12 2103   2.173   3.444   7.331  0.2930  0.3494 -0.6423
   29CHL1  H12A 2104   2.139   3.365   7.401 -1.2166  1.2635 -0.3126
   29CHL1  H12B 2105   2.077   3.498   7.320 -0.0536 -0.2693 -0.6800
   29CHL1   C11 2106   2.208   3.372   7.201  0.4683 -0.3125  0.4107
   29CHL1  H11A 2107   2.297   3.306   7.207  0.1118 -0.9278 -0.7785
   29CHL1  H11B 2108   2.128   3.301   7.170 -0.2975  0.0886  1.4127
   29CHL1    C9 2109   2.247   3.482   7.094  0.4805 -0.8818 -0.9073
   29CHL1    H9 2110   2.158   3.547   7.084  0.0758 -1.5275 -1.6857
   29CHL1   C10 2111   2.285   3.435   6.961 -0.0156  0.2649  0.3384
   29CHL1   C19 2112   2.382   3.308   6.967  0.6889  0.3078  0.1341
   29CHL1  H19A 2113   2.425   3.288   6.867 -0.0271  0.3471 -0.1866
   29CHL1  H19B 2114   2.472   3.337   7.026 -0.8780  1.1310  2.2853
   29CHL1  H19C 2115   2.343   3.215   7.013 -0.4950  0.6789 -0.0749
   29CHL1    C1 2116   2.152   3.385   6.886 -0.3361 -0.0633  0.1438
   29CHL1   H1A 2117   2.098   3.308   6.946  0.1176 -0.9690 -0.5792
   29CHL1   H1B 2118   2.082   3.471   6.879 -3.5453 -2.5135 -0.2531
   29CHL1    C2 2119   2.173   3.339   6.738 -0.2166 -0.0237  0.0852
   29CHL1   H2A 2120   2.081   3.299   6.691 -0.7105  2.5950 -1.3682
   29CHL1   H2B 2121   2.254   3.264   6.748  0.5881  0.9488  1.2133
   29CHL1   C20 2122   2.258   3.582   7.642 -0.2538  0.0535  0.0538
   29CHL1   H20 2123   2.363   3.572   7.676 -0.4821 -0.9628  0.4914
   29CHL1   C21 2124   2.175   3.457   7.660 -0.0256 -0.6553 -0.4695
   29CHL1  H21A 2125   2.066   3.476   7.653  0.4255  1.9447 -1.6139
   29CHL1  H21B 2126   2.197   3.422   7.763  1.9629 -0.2231 -0.7033
   29CHL1  H21C 2127   2.193   3.371   7.592 -1.9255 -0.6594 -1.0085
   29CHL1   C22 2128   2.201   3.677   7.753 -0.3510  0.1281 -0.1113
   29CHL1  H22A 2129   2.246   3.777   7.738 -1.3084  0.4186 -1.2592
   29CHL1  H22B 2130   2.091   3.684   7.734 -0.6388 -0.9020  1.0437
   29CHL1   C23 2131   2.221   3.635   7.899 -0.1388  0.1949 -0.8590
   29CHL1  H23A 2132   2.140   3.560   7.905 -2.0383  2.0779 -1.7174
   29CHL1  H23B 2133   2.317   3.578   7.904 -0.6182 -0.6202 -0.7609
   29CHL1   C24 2134   2.216   3.752   7.998 -0.7620 -0.3698 -0.8588
   29CHL1  H24A 2135   2.290   3.828   7.968  1.4898 -2.7276 -1.6560
   29CHL1  H24B 2136   2.112   3.791   7.992 -1.1389 -1.3969 -1.4054
   29CHL1   C25 2137   2.234   3.707   8.148 -0.1021  0.2855 -0.0867
   29CHL1   H25 2138   2.201   3.789   8.215  3.3173  0.8265  1.1627
   29CHL1   C26 2139   2.121   3.606   8.179  0.3979  0.5660 -0.2581
   29CHL1  H26A 2140   2.118   3.574   8.286  1.5488  0.4141 -0.2534
   29CHL1  H26B 2141   2.022   3.643   8.145  0.8279  1.8559 -0.1433
   29CHL1  H26C 2142   2.132   3.517   8.113 -0.0719  1.4654 -1.5839
   29CHL1   C27 2143   2.375   3.657   8.175  1.0977 -0.1521 -0.6091
   29CHL1  H27A 2144   2.427   3.617   8.086  1.4857 -1.9275  0.3698
   29CHL1  H27B 2145   2.425   3.754   8.199 -0.5373  0.6331 -0.2251
   29CHL1  H27C 2146   2.384   3.593   8.264  0.6097 -0.7494 -0.9801
   30CHL1    C3 2147   6.648   1.308   6.941 -0.0230  0.7404 -0.4357
   30CHL1    H3 2148   6.700   1.403   6.967 -0.5755  1.4238 -1.7058
   30CHL1    O3 2149   6.651   1.293   6.803 -0.8172 -0.0798  0.1520
   30CHL1   H3' 2150   6.646   1.200   6.779  3.3393  0.0663 -2.1448
   30CHL1    C4 2151   6.712   1.194   7.024  0.0075 -0.5453 -0.0544
   30CHL1   H4A 2152   6.646   1.108   7.000 -0.6918 -0.2249  0.6790
   30CHL1   H4B 2153   6.819   1.173   7.001  0.3972  1.5144 -0.3132
   30CHL1    C5 2154   6.694   1.217   7.171 -0.1957  0.2556 -0.2732
   30CHL1    C6 2155   6.797   1.218   7.255  0.3029  0.0429 -0.4947
   30CHL1    H6 2156   6.898   1.214   7.212  1.0908  1.0587  1.1827
   30CHL1    C7 2157   6.791   1.228   7.398  0.0323  0.4469 -0.3546
   30CHL1   H7A 2158   6.848   1.155   7.460 -1.6748 -1.3260 -0.8110
   30CHL1   H7B 2159   6.826   1.329   7.431 -3.2708  1.7005 -0.3299
   30CHL1    C8 2160   6.648   1.209   7.455  0.0970  0.3368 -0.5772
   30CHL1    H8 2161   6.627   1.100   7.463 -1.4577  0.7380  1.6733
   30CHL1   C14 2162   6.642   1.252   7.599 -0.3281  0.1093  0.0402
   30CHL1   H14 2163   6.677   1.357   7.592  2.4833 -0.6640  1.2244
   30CHL1   C15 2164   6.749   1.194   7.700  0.9397 -0.2470  0.3080
   30CHL1  H15A 2165   6.753   1.086   7.675 -2.4321 -0.2350 -0.8558
   30CHL1  H15B 2166   6.843   1.250   7.684  1.6334 -1.3947  0.2399
   30CHL1   C16 2167   6.693   1.238   7.833  0.5533 -0.2244 -0.1369
   30CHL1  H16A 2168   6.687   1.147   7.896 -0.9853  0.8851  1.4147
   30CHL1  H16B 2169   6.758   1.311   7.885 -0.9314  2.4315 -1.8129
   30CHL1   C17 2170   6.553   1.292   7.806 -0.1335  0.0958 -0.0984
   30CHL1   H17 2171   6.560   1.402   7.795 -0.8479  0.6762  3.7746
   30CHL1   C13 2172   6.510   1.244   7.664  0.0936  0.6497 -0.0986
   30CHL1   C18 2173   6.459   1.101   7.671  0.2692  0.0824  0.0941
   30CHL1  H18A 2174   6.424   1.057   7.576  2.6788 -1.7124 -0.0643
   30CHL1  H18B 2175   6.534   1.027   7.706  0.9540  0.8565  0.2702
   30CHL1  H18C 2176   6.374   1.111   7.743 -0.5438  2.4575 -1.0785
   30CHL1   C12 2177   6.426   1.346   7.586 -0.0532 -0.0162 -1.0163
   30CHL1  H12A 2178   6.318   1.356   7.610 -0.2055 -0.9540 -1.2742
   30CHL1  H12B 2179   6.468   1.448   7.594  1.7789 -0.8462  0.7971
   30CHL1   C11 2180   6.420   1.307   7.436  0.4085  0.4565  0.1961
   30CHL1  H11A 2181   6.369   1.208   7.438  1.4725 -0.1086 -0.2178
   30CHL1  H11B 2182   6.356   1.371   7.373 -0.2249 -0.8280 -0.5090
   30CHL1    C9 2183   6.552   1.285   7.366 -0.4898 -0.2208 -0.1919
   30CHL1    H9 2184   6.588   1.390   7.362 -0.1903 -0.3560 -1.1439
   30CHL1   C10 2185   6.550   1.235   7.222  0.1590  0.7718 -0.8418
   30CHL1   C19 2186   6.479   1.098   7.219  0.2003  0.7276 -0.3826
   30CHL1  H19A 2187   6.370   1.115   7.205  0.2302 -0.2995 -2.1193
   30CHL1  H19B 2188   6.513   1.023   7.144  0.2575 -0.5527  0.8638
   30CHL1  H19C 2189   6.483   1.033   7.309 -1.6923 -0.0500 -0.8163
   30CHL1    C1 2190   6.481   1.346   7.128 -0.0414  0.3205 -0.5973
   30CHL1   H1A 2191   6.372   1.352   7.146  0.2051 -2.4868  3.1425
   30CHL1   H1B 2192   6.523   1.446   7.152  1.2017 -0.3238  0.0241
   30CHL1    C2 2193   6.501   1.328   6.976  0.1416  0.4950 -0.0415
   30CHL1   H2A 2194   6.459   1.409   6.912 -0.0179 -1.1211 -2.0987
   30CHL1   H2B 2195   6.448   1.233   6.956 -0.3601  0.4435  1.4134
   30CHL1   C20 2196   6.456   1.271   7.914  0.3051 -0.2692  0.2220
   30CHL1   H20 2197   6.445   1.161   7.924  0.9494 -0.7075 -2.9367
   30CHL1   C21 2198   6.318   1.335   7.898 -0.0324 -0.5942  0.2957
   30CHL1  H21A 2199   6.324   1.445   7.881 -0.7777 -0.6871 -0.6909
   30CHL1  H21B 2200   6.262   1.314   7.991  0.0285 -0.5527  0.3417
   30CHL1  H21C 2201   6.259   1.283   7.819 -0.8241 -0.2057  0.6229
   30CHL1   C22 2202   6.508   1.335   8.050  0.1271 -0.1757 -0.1355
   30CHL1  H22A 2203   6.606   1.290   8.076  0.5645  1.7315  1.7714
   30CHL1  H22B 2204   6.507   1.444   8.033 -3.6059 -0.1070 -0.2879
   30CHL1   C23 2205   6.422   1.309   8.177  0.3549  0.1656 -0.0401
   30CHL1  H23A 2206   6.350   1.393   8.185  1.3550  0.8763  2.4461
   30CHL1  H23B 2207   6.359   1.218   8.170  0.7029 -0.0847  0.0475
   30CHL1   C24 2208   6.499   1.305   8.312 -0.2394 -0.5145  0.3157
   30CHL1  H24A 2209   6.557   1.211   8.306 -2.2742 -1.8091 -0.3635
   30CHL1  H24B 2210   6.569   1.390   8.304  0.2800 -1.0681 -1.9514
   30CHL1   C25 2211   6.419   1.305   8.442 -0.7175  0.0549  0.0795
   30CHL1   H25 2212   6.494   1.325   8.522  1.1899 -0.6243 -1.4480
   30CHL1   C26 2213   6.313   1.415   8.456  0.1002 -0.4053 -0.1694
   30CHL1  H26A 2214   6.325   1.495   8.380  0.6224  0.2872  0.6244
   30CHL1  H26B 2215   6.212   1.368   8.452 -0.2094  0.2534 -0.2699
   30CHL1  H26C 2216   6.318   1.473   8.551 -0.1889  1.9074 -1.5000
   30CHL1   C27 2217   6.348   1.176   8.467 -0.6205  1.0454  0.5142
   30CHL1  H27A 2218   6.428   1.102   8.489 -1.7132 -0.3971 -0.2029
   30CHL1  H27B 2219   6.293   1.173   8.563  3.0098 -1.2066  2.7900
   30CHL1  H27C 2220   6.282   1.142   8.385 -1.6732  2.2409  0.8348
   31CHL1    C3 2221   1.538   2.429   6.672 -0.5060  0.1015  0.3016
   31CHL1    H3 2222   1.432   2.462   6.677 -0.7007 -0.6361  2.3678
   31CHL1    O3 2223   1.570   2.360   6.552  0.0622 -0.1775  0.5243
   31CHL1   H3' 2224   1.653   2.393   6.519 -0.3614  0.3365 -0.0400
   31CHL1    C4 2225   1.633   2.550   6.689 -0.4315  0.0815  0.1605
   31CHL1   H4A 2226   1.742   2.532   6.680  0.1766  2.8012  1.2287
   31CHL1   H4B 2227   1.607   2.615   6.603  0.9405  0.7842  0.2581
   31CHL1    C5 2228   1.615   2.602   6.830  0.4438 -0.4002 -0.2348
   31CHL1    C6 2229   1.584   2.736   6.852 -0.2959  1.0177 -0.0849
   31CHL1    H6 2230   1.559   2.800   6.767 -2.5412 -1.4763 -1.4490
   31CHL1    C7 2231   1.583   2.804   6.984  0.0981 -0.4254  0.5607
   31CHL1   H7A 2232   1.650   2.892   6.973 -1.4513  0.6962 -0.2399
   31CHL1   H7B 2233   1.479   2.842   7.002 -0.1026 -1.8566  2.7980
   31CHL1    C8 2234   1.652   2.714   7.094 -0.1735  0.3245 -0.1813
   31CHL1    H8 2235   1.761   2.723   7.078  0.0188 -0.8223  0.4003
   31CHL1   C14 2236   1.618   2.773   7.229  0.5070 -0.5386  0.2137
   31CHL1   H14 2237   1.508   2.763   7.239  0.5229 -0.9523 -0.0126
   31CHL1   C15 2238   1.648   2.921   7.246  0.2368  0.6875 -0.4177
   31CHL1  H15A 2239   1.754   2.932   7.215  0.5647  0.7525  0.6928
   31CHL1  H15B 2240   1.593   2.996   7.186 -0.9389 -0.4915 -0.8542
   31CHL1   C16 2241   1.639   2.946   7.399  0.5743 -0.2870  0.4597
   31CHL1  H16A 2242   1.737   2.987   7.432  0.1050  1.4009 -0.1542
   31CHL1  H16B 2243   1.562   3.019   7.433  1.8100  0.4480  1.8054
   31CHL1   C17 2244   1.624   2.800   7.457  0.1559 -0.2939 -0.3767
   31CHL1   H17 2245   1.514   2.790   7.462 -0.1364  1.4658 -1.9250
   31CHL1   C13 2246   1.674   2.701   7.346  0.4724 -0.5710 -0.1997
   31CHL1   C18 2247   1.831   2.695   7.354  0.3500  0.3049 -0.4684
   31CHL1  H18A 2248   1.870   2.640   7.266 -1.6373 -2.9161  0.4806
   31CHL1  H18B 2249   1.870   2.799   7.359  0.1096  0.3635  0.4240
   31CHL1  H18C 2250   1.867   2.645   7.447  0.6129  0.4697 -0.4810
   31CHL1   C12 2251   1.609   2.565   7.347  0.2947 -0.0211  0.7504
   31CHL1  H12A 2252   1.654   2.503   7.427 -1.5230 -1.2379  0.9066
   31CHL1  H12B 2253   1.503   2.577   7.378  0.3528 -0.6529  1.2002
   31CHL1   C11 2254   1.636   2.490   7.215  0.3678  0.5563 -0.1188
   31CHL1  H11A 2255   1.744   2.468   7.210  0.0415 -0.8238 -2.1565
   31CHL1  H11B 2256   1.575   2.398   7.226 -1.2395  1.7495  1.5592
   31CHL1    C9 2257   1.604   2.571   7.086 -0.1743 -0.3519 -0.4365
   31CHL1    H9 2258   1.494   2.578   7.091 -0.5942 -2.7224 -3.2534
   31CHL1   C10 2259   1.640   2.512   6.952 -0.4232 -0.0186 -0.3109
   31CHL1   C19 2260   1.784   2.465   6.938 -0.6024  0.4110 -1.2237
   31CHL1  H19A 2261   1.822   2.434   6.838  0.3774 -0.1112 -0.7084
   31CHL1  H19B 2262   1.847   2.551   6.968  0.1405  0.5275 -3.0274
   31CHL1  H19C 2263   1.799   2.384   7.013 -2.9401 -1.1386 -2.3264
   31CHL1    C1 2264   1.540   2.393   6.920  0.0748 -0.2033  0.5404
   31CHL1   H1A 2265   1.554   2.304   6.985 -0.4348 -0.5398  0.1986
   31CHL1   H1B 2266   1.432   2.416   6.933 -0.5992 -1.8053 -1.5544
   31CHL1    C2 2267   1.553   2.324   6.779  0.5508  0.2322 -0.6957
   31CHL1   H2A 2268   1.466   2.255   6.780  1.3032 -0.7414 -0.8540
   31CHL1   H2B 2269   1.638   2.253   6.770  0.9938  0.7932 -1.0019
   31CHL1   C20 2270   1.678   2.792   7.605  0.3135 -0.0004  0.6855
   31CHL1   H20 2271   1.789   2.790   7.597  0.2455 -0.1198 -0.3600
   31CHL1   C21 2272   1.631   2.671   7.678 -0.1848 -0.3470 -1.0284
   31CHL1  H21A 2273   1.680   2.653   7.777  1.8073 -0.9373 -2.0563
   31CHL1  H21B 2274   1.664   2.581   7.622 -1.2919  1.5222 -5.0673
   31CHL1  H21C 2275   1.521   2.659   7.686 -0.4566  1.5805 -1.5321
   31CHL1   C22 2276   1.626   2.914   7.685 -0.6654  0.7384 -0.1661
   31CHL1  H22A 2277   1.650   3.014   7.643 -1.4436  0.3849 -1.5193
   31CHL1  H22B 2278   1.516   2.904   7.683 -0.5711 -0.5286 -1.7387
   31CHL1   C23 2279   1.673   2.908   7.835 -0.2173  0.1294  0.7109
   31CHL1  H23A 2280   1.611   2.840   7.897  1.9201 -1.9677  0.7010
   31CHL1  H23B 2281   1.779   2.878   7.819 -0.1574  1.5798 -2.2006
   31CHL1   C24 2282   1.646   3.052   7.897  0.3800 -0.4775 -0.2200
   31CHL1  H24A 2283   1.705   3.126   7.840  0.7383 -0.4056  0.2343
   31CHL1  H24B 2284   1.543   3.089   7.879  0.7827 -0.4044 -2.7984
   31CHL1   C25 2285   1.693   3.069   8.042  0.4415 -0.2180 -0.0851
   31CHL1   H25 2286   1.799   3.041   8.061  0.4002  0.7559  1.8720
   31CHL1   C26 2287   1.684   3.215   8.096 -0.6263 -0.3204  0.0906
   31CHL1  H26A 2288   1.583   3.255   8.122  0.7218  1.2083  3.6581
   31CHL1  H26B 2289   1.725   3.220   8.199 -1.2977  1.1412  0.3259
   31CHL1  H26C 2290   1.732   3.289   8.028 -2.8328  1.0041 -0.1190
   31CHL1   C27 2291   1.619   2.983   8.141  0.0579  0.6718 -0.4621
   31CHL1  H27A 2292   1.511   3.005   8.133 -0.2897  0.2282  2.1701
   31CHL1  H27B 2293   1.669   3.011   8.236  0.3359  1.5448 -0.8558
   31CHL1  H27C 2294   1.649   2.877   8.126 -1.5344  0.2225 -0.6631
   32CHL1    C3 2295   1.669   3.325   6.813 -0.1775 -0.1218  0.4715
   32CHL1    H3 2296   1.748   3.403   6.823  0.3696 -0.3122 -1.7953
   32CHL1    O3 2297   1.681   3.266   6.686 -0.5183  0.4242  0.8982
   32CHL1   H3' 2298   1.591   3.257   6.656  0.0128 -1.6390 -0.3291
   32CHL1    C4 2299   1.707   3.208   6.901 -0.3972 -0.5286 -1.0880
   32CHL1   H4A 2300   1.648   3.115   6.884  1.2791 -1.8312 -0.1507
   32CHL1   H4B 2301   1.811   3.182   6.873  0.3558  2.2129 -1.1525
   32CHL1    C5 2302   1.694   3.256   7.044  0.3369  0.2259  0.6934
   32CHL1    C6 2303   1.799   3.247   7.125 -1.2364  0.0948 -0.0322
   32CHL1    H6 2304   1.893   3.196   7.103 -1.9136 -1.2557  0.1025
   32CHL1    C7 2305   1.798   3.303   7.265  0.1965  0.4517  0.0386
   32CHL1   H7A 2306   1.854   3.233   7.331  5.0621  1.6877 -2.2877
   32CHL1   H7B 2307   1.854   3.399   7.259 -1.3697  1.3996  0.2477
   32CHL1    C8 2308   1.654   3.326   7.318  0.3620 -0.5217  0.2234
   32CHL1    H8 2309   1.605   3.227   7.322  1.2081 -0.9671  0.0263
   32CHL1   C14 2310   1.657   3.391   7.454  0.1921 -0.4994 -0.1010
   32CHL1   H14 2311   1.698   3.492   7.433 -1.6665  0.4962  0.7801
   32CHL1   C15 2312   1.751   3.338   7.570  1.2273 -0.0677 -0.1647
   32CHL1  H15A 2313   1.732   3.229   7.582  0.0313  0.1180 -0.2540
   32CHL1  H15B 2314   1.855   3.371   7.550  0.2316  1.2640 -3.9358
   32CHL1   C16 2315   1.697   3.409   7.694  0.5011 -0.3168 -0.7380
   32CHL1  H16A 2316   1.674   3.347   7.783 -1.7733  0.3634 -0.7928
   32CHL1  H16B 2317   1.773   3.484   7.724  0.3909 -0.2166 -0.7095
   32CHL1   C17 2318   1.567   3.487   7.645  0.7081  0.0555 -0.6229
   32CHL1   H17 2319   1.592   3.588   7.608 -0.4868  1.4959  2.2287
   32CHL1   C13 2320   1.521   3.417   7.512 -0.0232 -0.5407 -0.7899
   32CHL1   C18 2321   1.449   3.291   7.543  0.0250  1.0066  0.0688
   32CHL1  H18A 2322   1.348   3.318   7.580 -0.5108 -1.1220  0.2976
   32CHL1  H18B 2323   1.424   3.238   7.448  0.8541  1.6370 -0.5138
   32CHL1  H18C 2324   1.507   3.229   7.615  3.6770  2.2775 -1.5444
   32CHL1   C12 2325   1.443   3.511   7.412 -0.5522 -0.5063 -0.1394
   32CHL1  H12A 2326   1.342   3.534   7.452  0.4501 -0.6019  2.6857
   32CHL1  H12B 2327   1.497   3.608   7.406 -0.5781 -0.3875  1.2374
   32CHL1   C11 2328   1.438   3.448   7.268  0.1902 -0.0979 -0.2368
   32CHL1  H11A 2329   1.377   3.357   7.284  0.0098  0.2419  1.1067
   32CHL1  H11B 2330   1.385   3.515   7.196  1.6863  1.5858  0.1498
   32CHL1    C9 2331   1.575   3.405   7.211 -0.3726 -0.4967  0.0232
   32CHL1    H9 2332   1.627   3.498   7.181 -0.7465 -0.6788 -1.2557
   32CHL1   C10 2333   1.560   3.329   7.075 -0.2000  0.0650 -1.4219
   32CHL1   C19 2334   1.451   3.225   7.085 -0.1711 -0.9529 -0.2074
   32CHL1  H19A 2335   1.455   3.153   7.000 -1.6753  0.9058 -1.9446
   32CHL1  H19B 2336   1.456   3.164   7.178  2.9373 -1.0729 -0.3626
   32CHL1  H19C 2337   1.351   3.268   7.063  0.1552 -0.9272 -1.8000
   32CHL1    C1 2338   1.511   3.433   6.965  0.3836  0.3486 -0.5978
   32CHL1   H1A 2339   1.403   3.455   6.980  1.2460  2.7695  3.6477
   32CHL1   H1B 2340   1.572   3.526   6.973 -2.2927  2.1143  1.2316
   32CHL1    C2 2341   1.528   3.378   6.823  0.2103  0.2273  0.7048
   32CHL1   H2A 2342   1.510   3.462   6.752  0.3724 -0.9261 -0.7604
   32CHL1   H2B 2343   1.445   3.307   6.800  0.4965 -0.0385  0.4755
   32CHL1   C20 2344   1.460   3.519   7.760 -0.8129  0.5370 -0.0993
   32CHL1   H20 2345   1.366   3.540   7.706 -1.1699  0.5900  0.5366
   32CHL1   C21 2346   1.499   3.638   7.840 -0.4184 -0.3723 -0.8148
   32CHL1  H21A 2347   1.500   3.722   7.768  0.0044  0.3198 -0.0249
   32CHL1  H21B 2348   1.597   3.627   7.893 -0.6311  1.0546 -0.0799
   32CHL1  H21C 2349   1.423   3.672   7.913 -0.0536  0.3575 -0.7648
   32CHL1   C22 2350   1.434   3.404   7.858 -0.4195  0.1621  0.6431
   32CHL1  H22A 2351   1.449   3.304   7.812 -0.3793 -0.1696  1.3705
   32CHL1  H22B 2352   1.502   3.401   7.945 -1.8687  0.2895  1.8201
   32CHL1   C23 2353   1.298   3.413   7.926  0.3295 -0.5845  0.7550
   32CHL1  H23A 2354   1.293   3.507   7.984  0.4603  0.6737 -1.1960
   32CHL1  H23B 2355   1.224   3.409   7.844 -0.1423 -1.2507  1.1994
   32CHL1   C24 2356   1.282   3.303   8.034  0.7961  0.5399  0.1727
   32CHL1  H24A 2357   1.371   3.300   8.101 -0.0263 -0.8549  1.2530
   32CHL1  H24B 2358   1.194   3.328   8.097  0.7225  1.4895 -0.2926
   32CHL1   C25 2359   1.260   3.160   7.979 -0.3483  0.3485  0.5026
   32CHL1   H25 2360   1.353   3.131   7.927  1.0053  2.6912  1.4574
   32CHL1   C26 2361   1.245   3.061   8.100  0.0088  0.2151 -0.0962
   32CHL1  H26A 2362   1.323   3.102   8.168  0.1796  1.2076 -0.8622
   32CHL1  H26B 2363   1.147   3.066   8.153 -1.9330  3.4579 -3.4450
   32CHL1  H26C 2364   1.284   2.960   8.078 -0.3016  0.1831 -0.5231
   32CHL1   C27 2365   1.143   3.145   7.874 -0.4576 -0.3301 -0.0643
   32CHL1  H27A 2366   1.106   3.042   7.853 -0.5805 -0.2802 -0.0924
   32CHL1  H27B 2367   1.054   3.188   7.925 -1.5888 -0.7654 -1.5888
   32CHL1  H27C 2368   1.160   3.192   7.776 -1.7972  1.3160  0.4480
   33CHL1    C3 2369   2.563   2.659   6.510  0.4232 -0.2352  0.3563
   33CHL1    H3 2370   2.628   2.748   6.492  0.1202  0.5004  2.6312
   33CHL1    O3 2371   2.450   2.657   6.430  0.1993  0.2355  0.1451
   33CHL1   H3' 2372   2.390   2.595   6.471  1.3108 -1.0096 -0.0450
   33CHL1    C4 2373   2.644   2.535   6.469 -0.0831  0.5062 -0.3722
   33CHL1   H4A 2374   2.574   2.449   6.460  0.2028 -0.3255  3.4717
   33CHL1   H4B 2375   2.686   2.548   6.367 -0.3277 -1.4789 -0.7797
   33CHL1    C5 2376   2.757   2.513   6.573  0.4491  0.5901 -0.0673
   33CHL1    C6 2377   2.882   2.489   6.533  0.6106  0.6821  0.8787
   33CHL1    H6 2378   2.910   2.483   6.427  1.0540  1.8728  0.9136
   33CHL1    C7 2379   2.985   2.448   6.631  0.3652  0.7529  0.2156
   33CHL1   H7A 2380   3.041   2.363   6.586 -0.5470  2.0637 -3.7948
   33CHL1   H7B 2381   3.056   2.533   6.640  2.6988 -1.1641  0.8753
   33CHL1    C8 2382   2.935   2.411   6.775 -0.2116  0.2425 -0.6429
   33CHL1    H8 2383   2.894   2.309   6.768 -0.2875  0.1825  0.5049
   33CHL1   C14 2384   3.042   2.425   6.882  0.2308  0.1467 -0.5393
   33CHL1   H14 2385   3.067   2.532   6.893 -0.0985  0.4097 -2.1110
   33CHL1   C15 2386   3.183   2.360   6.863  0.9928 -0.0787 -0.2412
   33CHL1  H15A 2387   3.182   2.255   6.827  3.7487  0.1109 -1.1215
   33CHL1  H15B 2388   3.239   2.415   6.784 -1.2412 -0.9203 -2.5472
   33CHL1   C16 2389   3.249   2.354   7.003 -0.5301  0.0838 -0.6146
   33CHL1  H16A 2390   3.280   2.248   7.021  0.1992  0.6107  1.5244
   33CHL1  H16B 2391   3.345   2.410   7.004 -0.4373  0.1342 -3.7981
   33CHL1   C17 2392   3.141   2.405   7.098  0.1280 -0.3957 -0.3290
   33CHL1   H17 2393   3.154   2.514   7.112 -1.6258 -0.2881  0.6202
   33CHL1   C13 2394   3.006   2.388   7.022  0.3822  0.0811  0.2096
   33CHL1   C18 2395   2.954   2.242   7.030 -0.0992 -0.4135  0.7854
   33CHL1  H18A 2396   2.874   2.218   6.957  0.2500 -0.7989  0.5257
   33CHL1  H18B 2397   3.039   2.174   7.009  0.1693  0.7295 -2.1865
   33CHL1  H18C 2398   2.918   2.224   7.134  3.3051  0.1073  2.1914
   33CHL1   C12 2399   2.895   2.483   7.063 -0.1035 -0.2298 -0.6778
   33CHL1  H12A 2400   2.858   2.462   7.166 -0.9383  1.5771 -0.5624
   33CHL1  H12B 2401   2.934   2.587   7.068 -2.8700  0.8575  0.5372
   33CHL1   C11 2402   2.781   2.478   6.968  0.3830 -0.1113  0.2277
   33CHL1  H11A 2403   2.730   2.380   6.969 -1.2465  0.6661  2.4080
   33CHL1  H11B 2404   2.709   2.558   6.998 -1.4985 -0.4412 -2.9670
   33CHL1    C9 2405   2.824   2.506   6.823 -0.2043 -0.8780 -1.3646
   33CHL1    H9 2406   2.875   2.605   6.820 -0.1486 -0.7526  1.2383
   33CHL1   C10 2407   2.711   2.516   6.722  0.2791 -0.5265  0.2486
   33CHL1   C19 2408   2.618   2.396   6.740 -0.0612 -0.7721 -0.1907
   33CHL1  H19A 2409   2.575   2.402   6.843 -0.6145 -1.7117 -0.3584
   33CHL1  H19B 2410   2.539   2.388   6.663 -0.9277 -1.7372  0.7719
   33CHL1  H19C 2411   2.683   2.307   6.742 -0.4291 -1.0599  2.2495
   33CHL1    C1 2412   2.633   2.643   6.745  0.8453 -0.3326  0.1306
   33CHL1   H1A 2413   2.601   2.646   6.851  0.5969  0.0848  0.0468
   33CHL1   H1B 2414   2.692   2.737   6.737 -1.4079  1.1697  0.1815
   33CHL1    C2 2415   2.516   2.657   6.645  0.1464  0.0232  0.4936
   33CHL1   H2A 2416   2.462   2.751   6.669 -0.3772 -0.1291 -0.0672
   33CHL1   H2B 2417   2.443   2.575   6.664 -1.3333  1.2047  0.0786
   33CHL1   C20 2418   3.161   2.344   7.241 -0.5349 -0.1465  0.7958
   33CHL1   H20 2419   3.151   2.235   7.224  0.5018 -0.4062  1.7239
   33CHL1   C21 2420   3.060   2.387   7.343  0.7824  0.0035 -0.2920
   33CHL1  H21A 2421   3.079   2.357   7.448  0.7347  1.4590  0.1613
   33CHL1  H21B 2422   2.960   2.345   7.321  0.2730  0.3349  1.2597
   33CHL1  H21C 2423   3.059   2.498   7.338 -3.1824  0.1221 -0.5695
   33CHL1   C22 2424   3.308   2.357   7.296 -0.7528 -0.3451 -0.0494
   33CHL1  H22A 2425   3.323   2.283   7.378  0.9948  0.3560  0.3007
   33CHL1  H22B 2426   3.373   2.311   7.217 -3.1962  0.8608 -2.9687
   33CHL1   C23 2427   3.353   2.503   7.321 -0.0736  0.0758  0.1395
   33CHL1  H23A 2428   3.345   2.554   7.222  0.2773  0.0770  0.1114
   33CHL1  H23B 2429   3.280   2.557   7.385  0.6288  0.1113  0.9195
   33CHL1   C24 2430   3.486   2.534   7.388  0.2793  0.7229 -0.7004
   33CHL1  H24A 2431   3.510   2.642   7.393  0.8485  0.5455  1.1390
   33CHL1  H24B 2432   3.459   2.508   7.493  0.4938  0.8613 -0.6100
   33CHL1   C25 2433   3.602   2.442   7.330  0.5424 -0.2266 -0.0684
   33CHL1   H25 2434   3.567   2.337   7.324 -1.2508  0.2334  1.5656
   33CHL1   C26 2435   3.633   2.493   7.186  0.0585 -0.3330 -0.8613
   33CHL1  H26A 2436   3.733   2.455   7.155 -0.4826 -1.8376 -0.8144
   33CHL1  H26B 2437   3.556   2.444   7.122  0.5503 -1.8019 -0.3689
   33CHL1  H26C 2438   3.628   2.604   7.184 -2.3941 -0.3676  0.2080
   33CHL1   C27 2439   3.727   2.443   7.415 -0.7479  0.5425 -0.0405
   33CHL1  H27A 2440   3.791   2.359   7.381  0.1076  0.8381  0.8109
   33CHL1  H27B 2441   3.783   2.538   7.399  0.8307 -0.7981 -3.8894
   33CHL1  H27C 2442   3.705   2.430   7.523 -1.1181  0.2320 -0.1505
   34CHL1    C3 2443   4.310   6.500   6.903 -0.2028 -0.8670  0.2590
   34CHL1    H3 2444   4.376   6.589   6.911  1.0426 -1.7123 -0.2438
   34CHL1    O3 2445   4.276   6.495   6.768  0.0813 -0.1639  0.2927
   34CHL1   H3' 2446   4.246   6.405   6.756 -0.8889  0.0971  0.6499
   34CHL1    C4 2447   4.397   6.386   6.936 -0.3227 -0.5993  0.0660
   34CHL1   H4A 2448   4.334   6.297   6.912  0.5624 -0.7478 -1.9117
   34CHL1   H4B 2449   4.491   6.389   6.877  0.3302  1.1936  1.1258
   34CHL1    C5 2450   4.428   6.369   7.083  0.4208 -0.1613  0.8422
   34CHL1    C6 2451   4.548   6.363   7.128  0.3231  0.3803  0.5671
   34CHL1    H6 2452   4.627   6.363   7.051  0.3563 -1.7163  0.5448
   34CHL1    C7 2453   4.593   6.355   7.270  0.1041  0.2248  0.0134
   34CHL1   H7A 2454   4.675   6.280   7.277 -0.5334 -0.3560  1.6560
   34CHL1   H7B 2455   4.640   6.452   7.299 -0.6971  0.9532 -1.0339
   34CHL1    C8 2456   4.484   6.318   7.370  0.5685 -0.3048  0.5679
   34CHL1    H8 2457   4.453   6.213   7.347 -0.3278 -0.2924  1.6380
   34CHL1   C14 2458   4.518   6.348   7.516 -0.4641  0.7586 -0.2153
   34CHL1   H14 2459   4.535   6.457   7.513 -0.8614  0.8029 -2.0776
   34CHL1   C15 2460   4.647   6.292   7.578 -0.3713 -0.4094  0.6808
   34CHL1  H15A 2461   4.645   6.189   7.536 -1.6094  0.6735 -2.1532
   34CHL1  H15B 2462   4.733   6.353   7.544 -1.5569  1.5821  1.1083
   34CHL1   C16 2463   4.637   6.306   7.729  0.0415 -0.6253 -0.0538
   34CHL1  H16A 2464   4.654   6.209   7.782 -2.2697 -0.2493  1.5442
   34CHL1  H16B 2465   4.709   6.382   7.765  1.7454 -0.9683 -2.4664
   34CHL1   C17 2466   4.494   6.350   7.745  0.2413 -0.0551 -0.1707
   34CHL1   H17 2467   4.499   6.461   7.743 -0.0047 -0.0519 -0.5759
   34CHL1   C13 2468   4.414   6.317   7.623  0.5903 -0.5979  0.1807
   34CHL1   C18 2469   4.381   6.164   7.620  0.5830 -0.5638  0.0641
   34CHL1  H18A 2470   4.330   6.140   7.525  0.5087 -2.5210  0.5589
   34CHL1  H18B 2471   4.474   6.105   7.632  0.6322 -0.8894 -1.6617
   34CHL1  H18C 2472   4.302   6.159   7.698 -2.2526  2.7382 -2.2659
   34CHL1   C12 2473   4.294   6.410   7.583  0.3120  0.6365  0.3238
   34CHL1  H12A 2474   4.211   6.389   7.655  0.8691 -0.5600  0.6405
   34CHL1  H12B 2475   4.330   6.515   7.594  0.0202  0.8673 -0.7348
   34CHL1   C11 2476   4.251   6.375   7.444  0.1553 -0.1214 -0.0501
   34CHL1  H11A 2477   4.215   6.270   7.442  2.9076 -1.1616 -0.2047
   34CHL1  H11B 2478   4.173   6.451   7.422  1.6159  2.7553  3.6070
   34CHL1    C9 2479   4.354   6.395   7.335 -0.7672 -0.2041  0.2105
   34CHL1    H9 2480   4.387   6.502   7.335 -0.4005 -0.2410 -2.7134
   34CHL1   C10 2481   4.314   6.369   7.190 -0.1901 -0.1503  0.0380
   34CHL1   C19 2482   4.232   6.239   7.181  0.1061  0.0114  0.1905
   34CHL1  H19A 2483   4.129   6.269   7.209 -0.6519 -0.3901 -1.9691
   34CHL1  H19B 2484   4.220   6.200   7.078  1.8100  1.7688 -0.7203
   34CHL1  H19C 2485   4.283   6.159   7.240 -1.4263 -0.4176  0.9932
   34CHL1    C1 2486   4.216   6.487   7.139  0.1030 -0.6600 -0.7826
   34CHL1   H1A 2487   4.126   6.473   7.202  0.8122  0.6086  0.5828
   34CHL1   H1B 2488   4.271   6.582   7.159 -0.9340 -0.0979 -0.5095
   34CHL1    C2 2489   4.179   6.499   6.989  0.5832 -1.0590  0.2603
   34CHL1   H2A 2490   4.117   6.589   6.968  1.6539 -0.3863 -0.0571
   34CHL1   H2B 2491   4.121   6.407   6.964 -1.2789  0.2551 -0.4538
   34CHL1   C20 2492   4.442   6.311   7.887  0.0989  0.7281  0.2325
   34CHL1   H20 2493   4.447   6.201   7.899  1.5078  1.0724  3.9901
   34CHL1   C21 2494   4.302   6.366   7.912 -0.4304 -1.0602  0.5809
   34CHL1  H21A 2495   4.288   6.368   8.023  3.1157  1.3505  1.1675
   34CHL1  H21B 2496   4.216   6.308   7.875 -3.5847  2.9779  0.8334
   34CHL1  H21C 2497   4.299   6.471   7.875  1.3956 -0.7771  1.1185
   34CHL1   C22 2498   4.547   6.358   7.995 -0.5248 -0.2320  0.1769
   34CHL1  H22A 2499   4.644   6.306   7.979 -1.1264 -1.5301  0.6100
   34CHL1  H22B 2500   4.564   6.466   7.973  0.9026 -0.7447 -1.4326
   34CHL1   C23 2501   4.517   6.327   8.143  0.7988 -0.2298  0.3113
   34CHL1  H23A 2502   4.609   6.353   8.200  0.5500 -0.1138  0.6688
   34CHL1  H23B 2503   4.444   6.400   8.184  2.7392  3.0583 -1.6308
   34CHL1   C24 2504   4.475   6.177   8.175 -0.5138 -0.1111 -0.0656
   34CHL1  H24A 2505   4.387   6.137   8.120 -0.9478 -0.7406  1.0593
   34CHL1  H24B 2506   4.563   6.113   8.154  0.1134  0.1569  1.5473
   34CHL1   C25 2507   4.461   6.147   8.325  0.5003  0.1050 -0.4194
   34CHL1   H25 2508   4.391   6.221   8.368  1.9549  0.6279  1.1471
   34CHL1   C26 2509   4.400   6.007   8.346  0.1725  0.2308 -0.4632
   34CHL1  H26A 2510   4.473   5.935   8.303 -0.6340 -0.8430 -0.0693
   34CHL1  H26B 2511   4.389   5.994   8.456 -5.2121 -1.4952 -0.9605
   34CHL1  H26C 2512   4.304   6.001   8.292  0.1770  1.4770 -0.6368
   34CHL1   C27 2513   4.594   6.161   8.409  1.3075  0.3091 -0.7343
   34CHL1  H27A 2514   4.676   6.111   8.354  2.2642  0.0575  0.8656
   34CHL1  H27B 2515   4.623   6.268   8.414  0.1442  0.6005  0.5779
   34CHL1  H27C 2516   4.578   6.131   8.515 -0.0919  1.2039 -0.6560
   35CHL1    C3 2517   2.212   6.356   7.137  0.6492 -0.8237  0.6526
   35CHL1    H3 2518   2.112   6.318   7.167  0.3235 -0.6094 -0.1399
   35CHL1    O3 2519   2.231   6.325   6.994 -0.6666  0.4916 -0.7540
   35CHL1   H3' 2520   2.324   6.344   6.980 -0.1424 -0.8842  0.5695
   35CHL1    C4 2521   2.240   6.503   7.183  0.4737  0.7137  0.1143
   35CHL1   H4A 2522   2.344   6.539   7.164  0.5475  1.3815  1.6983
   35CHL1   H4B 2523   2.168   6.567   7.127  0.4753 -0.1285 -0.8771
   35CHL1    C5 2524   2.227   6.511   7.336  0.5802  0.3235 -0.4677
   35CHL1    C6 2525   2.133   6.595   7.395 -0.3809  0.5955  0.7757
   35CHL1    H6 2526   2.078   6.654   7.321 -1.6879  0.3276  1.5128
   35CHL1    C7 2527   2.126   6.629   7.539  0.5714  0.5785 -0.1608
   35CHL1   H7A 2528   2.124   6.738   7.563 -3.2041  0.3191  1.3424
   35CHL1   H7B 2529   2.032   6.582   7.574 -0.0735 -1.7978 -4.3298
   35CHL1    C8 2530   2.246   6.572   7.623  0.0252  0.6048 -0.0146
   35CHL1    H8 2531   2.324   6.649   7.606  0.7099  0.3302  1.6564
   35CHL1   C14 2532   2.204   6.565   7.765  0.3661 -0.5073  0.5301
   35CHL1   H14 2533   2.138   6.476   7.769 -0.1780 -0.4053 -3.2013
   35CHL1   C15 2534   2.123   6.678   7.831 -0.1268 -0.0328 -0.5846
   35CHL1  H15A 2535   2.159   6.775   7.791  2.0994 -0.8438 -0.6850
   35CHL1  H15B 2536   2.013   6.667   7.823 -0.6240  1.0020  2.8926
   35CHL1   C16 2537   2.153   6.665   7.982 -0.1986 -0.2499 -0.3819
   35CHL1  H16A 2538   2.205   6.758   8.015 -0.1321 -0.7504  0.9933
   35CHL1  H16B 2539   2.053   6.657   8.030  0.2396  0.9908  0.8106
   35CHL1   C17 2540   2.247   6.537   8.001 -0.8066 -0.7263 -0.1269
   35CHL1   H17 2541   2.183   6.446   7.999 -0.9363 -0.6487  0.4317
   35CHL1   C13 2542   2.319   6.529   7.867 -0.3018 -0.4387  0.0101
   35CHL1   C18 2543   2.433   6.631   7.849 -0.1632 -0.8013 -0.9086
   35CHL1  H18A 2544   2.503   6.622   7.934 -0.6333 -1.7248 -0.6075
   35CHL1  H18B 2545   2.486   6.624   7.752  1.5928 -0.1927 -0.0282
   35CHL1  H18C 2546   2.384   6.731   7.845 -0.2821 -0.8413 -0.5394
   35CHL1   C12 2547   2.364   6.389   7.826 -0.1686 -0.1385  0.9162
   35CHL1  H12A 2548   2.447   6.351   7.889 -0.1623  1.6633  2.0580
   35CHL1  H12B 2549   2.275   6.324   7.842  0.1296 -0.5074  1.0982
   35CHL1   C11 2550   2.402   6.375   7.671  0.3660  0.2801  0.3257
   35CHL1  H11A 2551   2.499   6.428   7.656  2.0602 -2.8653 -0.8462
   35CHL1  H11B 2552   2.411   6.272   7.632 -2.1880  0.3894 -0.7420
   35CHL1    C9 2553   2.294   6.434   7.574 -0.4371  1.6936  0.4510
   35CHL1    H9 2554   2.208   6.368   7.599 -0.2292  1.4966  0.6472
   35CHL1   C10 2555   2.330   6.432   7.422 -0.2795  0.2642 -0.3371
   35CHL1   C19 2556   2.473   6.481   7.396 -0.5492 -0.7948 -0.2263
   35CHL1  H19A 2557   2.493   6.499   7.288  1.4059  0.5978  0.2974
   35CHL1  H19B 2558   2.492   6.576   7.452 -0.1329 -0.2664 -1.2391
   35CHL1  H19C 2559   2.557   6.415   7.425 -0.6903 -0.9384 -0.1475
   35CHL1    C1 2560   2.328   6.286   7.365  0.2970  0.3589  0.2660
   35CHL1   H1A 2561   2.415   6.225   7.397  0.0945 -0.4668 -0.7121
   35CHL1   H1B 2562   2.238   6.234   7.402  0.3516 -0.0500 -0.1660
   35CHL1    C2 2563   2.321   6.272   7.209  1.3731 -0.0675  0.4218
   35CHL1   H2A 2564   2.301   6.164   7.190  2.5460 -0.7507  2.7101
   35CHL1   H2B 2565   2.417   6.307   7.167 -0.0996  3.3429 -0.3916
   35CHL1   C20 2566   2.311   6.541   8.138 -0.5511  0.1904  0.0928
   35CHL1   H20 2567   2.382   6.626   8.146 -0.2765 -0.1603  1.5630
   35CHL1   C21 2568   2.403   6.415   8.157  1.0394 -0.3077 -0.0446
   35CHL1  H21A 2569   2.484   6.408   8.080 -1.3373 -2.4271 -2.5517
   35CHL1  H21B 2570   2.350   6.320   8.135  0.6064 -0.6764  2.3313
   35CHL1  H21C 2571   2.432   6.402   8.263 -0.7438  0.7616  0.6091
   35CHL1   C22 2572   2.217   6.569   8.251 -0.0987 -0.5327  0.5718
   35CHL1  H22A 2573   2.168   6.668   8.235 -1.0335 -0.9100  1.0031
   35CHL1  H22B 2574   2.136   6.493   8.247  0.5485 -1.2001 -2.3100
   35CHL1   C23 2575   2.270   6.588   8.395  0.2984 -0.0059  0.7792
   35CHL1  H23A 2576   2.320   6.499   8.436 -0.2552  0.0632  1.6218
   35CHL1  H23B 2577   2.339   6.675   8.398  1.1235 -0.6480  0.6786
   35CHL1   C24 2578   2.150   6.601   8.492 -0.1673 -0.0822 -0.1259
   35CHL1  H24A 2579   2.087   6.683   8.451  2.9828  2.3213 -0.5201
   35CHL1  H24B 2580   2.080   6.515   8.502  1.5138 -1.5972 -0.8098
   35CHL1   C25 2581   2.201   6.655   8.636 -0.3416 -0.1566 -0.0184
   35CHL1   H25 2582   2.290   6.718   8.613 -2.2907  2.6150 -0.5541
   35CHL1   C26 2583   2.097   6.749   8.703 -0.0192  0.1560 -0.6466
   35CHL1  H26A 2584   1.996   6.702   8.703 -0.3307  0.4306  3.6828
   35CHL1  H26B 2585   2.113   6.752   8.813 -0.5118 -1.8447 -0.4895
   35CHL1  H26C 2586   2.100   6.849   8.655  1.0073  1.4117  1.8188
   35CHL1   C27 2587   2.250   6.540   8.736  0.2320  0.6934  0.0246
   35CHL1  H27A 2588   2.278   6.569   8.839 -0.5229 -4.3601  1.9602
   35CHL1  H27B 2589   2.320   6.470   8.685 -1.8914 -0.1374 -1.9854
   35CHL1  H27C 2590   2.156   6.482   8.748 -0.7836  1.7570 -2.2179
   36CHL1    C3 2591   6.018   6.095   7.147 -0.0373 -0.5409 -0.1593
   36CHL1    H3 2592   6.098   6.021   7.127 -1.3675 -2.3119  0.7717
   36CHL1    O3 2593   5.953   6.124   7.025  0.0659  0.3831 -0.0879
   36CHL1   H3' 2594   6.018   6.139   6.956 -0.4811  1.7833 -0.3402
   36CHL1    C4 2595   5.915   6.027   7.240 -0.7575 -0.1007  0.3804
   36CHL1   H4A 2596   5.819   6.083   7.236 -0.9713 -0.2450  2.3009
   36CHL1   H4B 2597   5.885   5.931   7.193 -1.3056 -0.2605  1.0363
   36CHL1    C5 2598   5.972   6.008   7.379  0.2342  0.2142  0.7209
   36CHL1    C6 2599   5.976   5.888   7.443  0.3071  0.3070 -0.3485
   36CHL1    H6 2600   5.930   5.804   7.387  1.7525 -0.8576  0.1612
   36CHL1    C7 2601   6.021   5.874   7.585  0.0221 -0.0448  0.4951
   36CHL1   H7A 2602   5.962   5.794   7.635 -0.2286  1.3113  2.5024
   36CHL1   H7B 2603   6.128   5.847   7.573  0.0968  0.6032 -0.4252
   36CHL1    C8 2604   6.022   6.007   7.662  0.0440 -0.2221 -0.6535
   36CHL1    H8 2605   5.914   6.029   7.676  0.2748 -0.6712  2.9056
   36CHL1   C14 2606   6.087   5.995   7.793 -0.5355  0.1553  0.1166
   36CHL1   H14 2607   6.195   5.968   7.787 -0.4761  0.3309  0.3812
   36CHL1   C15 2608   6.032   5.881   7.888 -0.3340 -0.5616  0.0948
   36CHL1  H15A 2609   5.922   5.871   7.874  0.0029 -2.1758 -1.9312
   36CHL1  H15B 2610   6.070   5.779   7.866  0.9408  0.3709 -2.4990
   36CHL1   C16 2611   6.078   5.929   8.025 -0.2009 -0.0186 -0.3380
   36CHL1  H16A 2612   5.988   5.945   8.087  1.5244  1.4258  1.9642
   36CHL1  H16B 2613   6.144   5.856   8.076 -1.0939 -0.1186  0.7107
   36CHL1   C17 2614   6.140   6.072   8.012 -0.3815  0.2690 -0.1602
   36CHL1   H17 2615   6.251   6.066   8.003 -0.0637  3.3239  0.6322
   36CHL1   C13 2616   6.085   6.125   7.878 -0.0217 -0.1570  0.2110
   36CHL1   C18 2617   5.939   6.174   7.907 -0.3344 -0.3922  0.5843
   36CHL1  H18A 2618   5.952   6.263   7.974 -0.4105  1.1321 -1.3405
   36CHL1  H18B 2619   5.884   6.213   7.819 -2.2587 -0.1131  1.8448
   36CHL1  H18C 2620   5.870   6.099   7.951  0.3855 -0.9743  0.7434
   36CHL1   C12 2621   6.165   6.219   7.802  0.3949 -0.0018  0.4903
   36CHL1  H12A 2622   6.166   6.309   7.868 -2.0572  0.5586 -0.1334
   36CHL1  H12B 2623   6.262   6.165   7.799  0.6240  0.4363 -0.4100
   36CHL1   C11 2624   6.111   6.254   7.657  0.4078 -0.5455  0.3073
   36CHL1  H11A 2625   6.019   6.301   7.696  1.0543 -0.7236  2.1492
   36CHL1  H11B 2626   6.177   6.331   7.611 -0.4529 -0.2163 -0.4024
   36CHL1    C9 2627   6.090   6.119   7.578  0.3376  0.4268  0.5835
   36CHL1    H9 2628   6.192   6.082   7.552  0.3979  0.2864  1.0280
   36CHL1   C10 2629   6.022   6.141   7.444  0.4853  0.6330  0.3907
   36CHL1   C19 2630   5.900   6.232   7.476 -0.5746 -0.3475 -0.6911
   36CHL1  H19A 2631   5.835   6.251   7.388 -3.9396  0.7532  1.8252
   36CHL1  H19B 2632   5.842   6.182   7.557  1.5540  0.4854  1.4533
   36CHL1  H19C 2633   5.929   6.331   7.515  0.3228 -1.8243  2.8168
   36CHL1    C1 2634   6.118   6.208   7.344  0.0838 -1.5825  0.3217
   36CHL1   H1A 2635   6.141   6.307   7.388 -2.8761  0.0535 -1.5166
   36CHL1   H1B 2636   6.218   6.159   7.337  0.3670 -0.7705 -3.0531
   36CHL1    C2 2637   6.062   6.224   7.203  0.3491 -0.1116 -0.9800
   36CHL1   H2A 2638   6.132   6.272   7.131  0.1539 -0.4340 -1.3912
   36CHL1   H2B 2639   5.980   6.300   7.206 -2.0954 -2.6098 -0.0540
   36CHL1   C20 2640   6.122   6.137   8.150 -0.1131 -0.2647  0.4989
   36CHL1   H20 2641   6.015   6.137   8.179 -0.0622 -2.2439  0.8087
   36CHL1   C21 2642   6.180   6.278   8.136 -0.6599  0.1083 -0.1352
   36CHL1  H21A 2643   6.196   6.326   8.235 -2.5378  2.5028 -0.8783
   36CHL1  H21B 2644   6.124   6.353   8.076 -0.9469  0.5242  0.6424
   36CHL1  H21C 2645   6.282   6.272   8.092 -0.3496 -0.2643  0.6159
   36CHL1   C22 2646   6.201   6.066   8.265 -0.2484 -0.1557  0.6566
   36CHL1  H22A 2647   6.160   5.963   8.268 -3.1121  0.9059  3.4901
   36CHL1  H22B 2648   6.309   6.072   8.241 -0.1317  1.2775  1.4301
   36CHL1   C23 2649   6.165   6.120   8.403  0.2072  0.1835 -0.7589
   36CHL1  H23A 2650   6.174   6.230   8.414 -0.5494  0.4255 -2.2611
   36CHL1  H23B 2651   6.060   6.098   8.433  0.8603 -0.8488  0.9248
   36CHL1   C24 2652   6.266   6.067   8.500 -0.0924  0.2516  0.2768
   36CHL1  H24A 2653   6.269   5.956   8.503 -0.7618  0.2312  0.1499
   36CHL1  H24B 2654   6.370   6.095   8.470  1.0549 -3.1272  0.6469
   36CHL1   C25 2655   6.245   6.115   8.645  0.1882 -0.4907  0.1455
   36CHL1   H25 2656   6.249   6.225   8.636 -1.6532 -0.4669 -0.8684
   36CHL1   C26 2657   6.109   6.069   8.708 -0.2094 -0.0731  0.0555
   36CHL1  H26A 2658   6.030   6.102   8.637  1.5173 -0.3352 -2.0953
   36CHL1  H26B 2659   6.110   5.962   8.737  2.0393 -0.2997 -0.6332
   36CHL1  H26C 2660   6.093   6.141   8.791 -0.9627 -0.7356  0.4971
   36CHL1   C27 2661   6.371   6.078   8.739  0.1107 -0.0871  0.4298
   36CHL1  H27A 2662   6.463   6.124   8.697  1.2041 -1.2333  1.4875
   36CHL1  H27B 2663   6.349   6.116   8.841  1.2435 -0.1404  0.7058
   36CHL1  H27C 2664   6.385   5.969   8.748 -0.1987 -0.0605  1.3348
   37CHL1    C3 2665   4.939   2.085   6.845 -0.1116 -0.4029  0.5225
   37CHL1    H3 2666   4.947   1.989   6.900  0.2385 -0.8465 -0.2910
   37CHL1    O3 2667   4.974   2.068   6.707 -0.4578 -0.6213  0.1015
   37CHL1   H3' 2668   4.937   2.150   6.675 -1.8008  0.6700  4.3371
   37CHL1    C4 2669   4.777   2.118   6.853  0.4919 -0.3387 -0.1817
   37CHL1   H4A 2670   4.752   2.208   6.792  0.2466  0.3630  0.9128
   37CHL1   H4B 2671   4.727   2.031   6.806 -0.7363  0.5229 -0.5393
   37CHL1    C5 2672   4.730   2.137   6.998  0.0854  0.1267 -0.4633
   37CHL1    C6 2673   4.629   2.061   7.056 -0.1936 -0.2112 -0.2576
   37CHL1    H6 2674   4.574   1.996   6.987  0.4734 -1.2676  0.1741
   37CHL1    C7 2675   4.580   2.073   7.198 -0.1166 -0.1831 -0.0336
   37CHL1   H7A 2676   4.474   2.101   7.185 -0.0704 -1.0787 -3.4593
   37CHL1   H7B 2677   4.577   1.971   7.243  0.2077 -1.0585 -1.8671
   37CHL1    C8 2678   4.653   2.177   7.275 -0.3035  0.7456 -0.5788
   37CHL1    H8 2679   4.586   2.266   7.282 -0.1901  0.7104  1.6768
   37CHL1   C14 2680   4.666   2.125   7.426 -0.2671 -0.7215 -0.4267
   37CHL1   H14 2681   4.743   2.045   7.436 -0.5714 -1.4048 -2.8178
   37CHL1   C15 2682   4.534   2.068   7.481  0.3027  0.0101  0.2471
   37CHL1  H15A 2683   4.451   2.129   7.439  0.7435 -0.7751 -1.9132
   37CHL1  H15B 2684   4.509   1.967   7.444 -2.1112  0.5471  0.2563
   37CHL1   C16 2685   4.538   2.089   7.633 -0.1850  0.2885  0.2278
   37CHL1  H16A 2686   4.447   2.149   7.649 -0.2637  0.2143  0.0589
   37CHL1  H16B 2687   4.528   1.987   7.677 -0.9869  0.4172  0.3540
   37CHL1   C17 2688   4.679   2.157   7.653 -0.6221 -0.6352  0.3736
   37CHL1   H17 2689   4.764   2.087   7.668 -0.2173 -0.1430  0.3854
   37CHL1   C13 2690   4.712   2.233   7.519  0.0929  0.4726 -1.0487
   37CHL1   C18 2691   4.619   2.357   7.515 -0.1694 -0.0376  0.2611
   37CHL1  H18A 2692   4.637   2.418   7.424 -1.3339 -2.1090 -1.4300
   37CHL1  H18B 2693   4.510   2.334   7.520 -0.8617  1.9555 -2.8548
   37CHL1  H18C 2694   4.655   2.432   7.589 -1.8014  0.2090  0.8615
   37CHL1   C12 2695   4.854   2.267   7.471 -1.0346  0.4717 -0.1375
   37CHL1  H12A 2696   4.903   2.342   7.537 -3.8483  0.8841  1.6226
   37CHL1  H12B 2697   4.911   2.175   7.497 -2.1969 -0.6603 -1.4603
   37CHL1   C11 2698   4.858   2.312   7.327  0.1471  0.2246 -0.1510
   37CHL1  H11A 2699   4.805   2.409   7.321  0.3967  0.3324 -0.6391
   37CHL1  H11B 2700   4.965   2.323   7.300  0.3692 -1.0568  0.1303
   37CHL1    C9 2701   4.788   2.208   7.234 -0.9841 -0.8781 -0.3628
   37CHL1    H9 2702   4.847   2.117   7.257 -1.0442 -0.4815  1.5564
   37CHL1   C10 2703   4.811   2.232   7.085 -0.8804  0.2356  0.4231
   37CHL1   C19 2704   4.771   2.378   7.047 -0.2354  1.0909  0.1020
   37CHL1  H19A 2705   4.754   2.394   6.938  0.4413  1.1322 -0.0071
   37CHL1  H19B 2706   4.673   2.407   7.090 -0.3028 -0.9649  1.5124
   37CHL1  H19C 2707   4.845   2.453   7.081 -0.0199  0.9422 -0.0365
   37CHL1    C1 2708   4.967   2.230   7.055  0.7190 -0.0712 -0.0551
   37CHL1   H1A 2709   5.013   2.328   7.081  2.6028 -0.7363 -0.7051
   37CHL1   H1B 2710   5.018   2.153   7.117 -2.2581 -0.7492  1.7578
   37CHL1    C2 2711   5.013   2.203   6.907 -0.4809  0.5790  0.7305
   37CHL1   H2A 2712   5.122   2.191   6.889 -0.5818  0.0155  0.4722
   37CHL1   H2B 2713   4.995   2.298   6.852  0.4980  0.3119 -0.0781
   37CHL1   C20 2714   4.678   2.240   7.781  0.3394  0.4002 -0.2265
   37CHL1   H20 2715   4.610   2.328   7.775  1.1273  1.1994  1.7634
   37CHL1   C21 2716   4.813   2.307   7.825  0.4941  0.0450 -0.2606
   37CHL1  H21A 2717   4.828   2.399   7.763  1.0193 -1.0975 -1.8909
   37CHL1  H21B 2718   4.904   2.245   7.813 -1.5820 -2.8684 -2.1450
   37CHL1  H21C 2719   4.800   2.352   7.925 -0.7660  0.6940 -0.6940
   37CHL1   C22 2720   4.638   2.158   7.906  0.2528 -0.7669 -0.3079
   37CHL1  H22A 2721   4.566   2.078   7.877  1.6207 -0.5603 -5.0481
   37CHL1  H22B 2722   4.725   2.108   7.953 -0.4023 -1.3952  0.2544
   37CHL1   C23 2723   4.581   2.238   8.021 -0.2579  0.2444  0.5663
   37CHL1  H23A 2724   4.644   2.327   8.040  2.6736 -1.1463 -1.8648
   37CHL1  H23B 2725   4.479   2.266   7.987  0.1971 -1.1005 -2.2069
   37CHL1   C24 2726   4.587   2.160   8.158 -0.1183 -0.4957 -0.1548
   37CHL1  H24A 2727   4.575   2.052   8.136 -0.5855 -1.1818  3.0198
   37CHL1  H24B 2728   4.690   2.171   8.198  0.5187 -3.1407 -0.8820
   37CHL1   C25 2729   4.478   2.203   8.263 -0.3140  0.3591 -0.0747
   37CHL1   H25 2730   4.374   2.169   8.245 -0.3901 -0.3632  1.5124
   37CHL1   C26 2731   4.513   2.135   8.391 -0.1783 -0.1585 -0.0262
   37CHL1  H26A 2732   4.441   2.176   8.465  0.5899 -0.7042  1.0538
   37CHL1  H26B 2733   4.488   2.027   8.383 -0.3145 -0.1847  0.6578
   37CHL1  H26C 2734   4.613   2.160   8.431 -0.6295 -0.7131  1.5304
   37CHL1   C27 2735   4.469   2.356   8.281  0.3001 -0.2920  0.0243
   37CHL1  H27A 2736   4.391   2.377   8.357  1.7798  2.5423  0.8779
   37CHL1  H27B 2737   4.562   2.405   8.318  0.9787 -0.7588 -1.0142
   37CHL1  H27C 2738   4.458   2.398   8.179  3.9071 -0.6182 -0.6180
   38CHL1    C3 2739   0.059   3.684   6.689 -0.4979  0.5440 -0.3036
   38CHL1    H3 2740   0.168   3.662   6.697 -0.4913  0.1855 -1.1985
   38CHL1    O3 2741   0.031   3.653   6.555 -0.6652 -1.0693  0.3984
   38CHL1   H3' 2742   0.018   3.558   6.545 -0.6812 -0.9213 -1.2016
   38CHL1    C4 2743  -0.029   3.601   6.778 -0.4081 -0.5521  0.2135
   38CHL1   H4A 2744  -0.129   3.635   6.745  1.4827  4.0895 -1.4657
   38CHL1   H4B 2745  -0.018   3.491   6.764 -0.8295 -0.4577 -0.9395
   38CHL1    C5 2746  -0.013   3.635   6.925 -0.2758 -0.6554  1.0532
   38CHL1    C6 2747   0.023   3.541   7.014 -0.1020 -0.3713  0.0590
   38CHL1    H6 2748   0.046   3.440   6.976 -1.3077 -0.6410 -0.0241
   38CHL1    C7 2749   0.044   3.562   7.165 -0.0794 -0.0378  0.6826
   38CHL1   H7A 2750   0.022   3.471   7.225  0.3386 -1.3011 -0.9906
   38CHL1   H7B 2751   0.150   3.587   7.186 -0.1449  1.7727 -0.9142
   38CHL1    C8 2752  -0.022   3.697   7.198  0.0761 -0.1499 -0.1248
   38CHL1    H8 2753  -0.130   3.676   7.179  0.4120  0.5208 -3.3387
   38CHL1   C14 2754  -0.007   3.728   7.344 -0.1313 -0.1781  0.1019
   38CHL1   H14 2755   0.102   3.744   7.361 -0.1294 -0.3468  0.2527
   38CHL1   C15 2756  -0.038   3.624   7.442 -0.3411 -0.6855 -0.8396
   38CHL1  H15A 2757  -0.133   3.572   7.417 -0.6913 -1.6489  2.1200
   38CHL1  H15B 2758   0.045   3.549   7.439 -2.2393 -3.0566  1.2024
   38CHL1   C16 2759  -0.057   3.701   7.576 -0.3664  0.2126  0.0441
   38CHL1  H16A 2760  -0.155   3.677   7.623 -0.4190 -0.8276 -0.5503
   38CHL1  H16B 2761   0.027   3.680   7.646  0.6477  2.1437 -0.5059
   38CHL1   C17 2762  -0.049   3.857   7.538 -0.9088  0.2425  0.3142
   38CHL1   H17 2763   0.054   3.895   7.557 -0.8437  0.0459  0.3612
   38CHL1   C13 2764  -0.071   3.855   7.388  0.2970  0.4270  0.0013
   38CHL1   C18 2765  -0.228   3.846   7.366  0.3258 -0.2685  0.0980
   38CHL1  H18A 2766  -0.278   3.944   7.381 -0.0344 -0.1020 -1.9426
   38CHL1  H18B 2767  -0.260   3.816   7.264  2.7739 -0.5874 -0.6457
   38CHL1  H18C 2768  -0.271   3.781   7.445 -0.8280 -2.0326 -1.8692
   38CHL1   C12 2769  -0.001   3.964   7.303 -0.4613 -1.4997  0.0253
   38CHL1  H12A 2770  -0.040   4.063   7.334 -1.0457 -0.5798 -3.2422
   38CHL1  H12B 2771   0.108   3.958   7.323 -0.4837  0.7952  1.1224
   38CHL1   C11 2772  -0.023   3.949   7.156  0.6671  0.8340 -0.2018
   38CHL1  H11A 2773  -0.130   3.965   7.130  0.4912  0.4964  0.3045
   38CHL1  H11B 2774   0.035   4.015   7.088  0.6049 -1.3266 -2.4970
   38CHL1    C9 2775   0.016   3.806   7.103  0.5156 -0.8562  0.6209
   38CHL1    H9 2776   0.127   3.800   7.101  0.5942  0.3583  0.7746
   38CHL1   C10 2777  -0.033   3.782   6.957  0.4130  0.2997  0.2751
   38CHL1   C19 2778  -0.183   3.815   6.929 -0.1138 -0.6169  0.2814
   38CHL1  H19A 2779  -0.249   3.807   7.018 -0.2754 -0.0595  0.2194
   38CHL1  H19B 2780  -0.179   3.921   6.897  0.5791 -1.0948 -1.2834
   38CHL1  H19C 2781  -0.234   3.746   6.858  2.8533 -2.1265 -0.5519
   38CHL1    C1 2782   0.044   3.868   6.858 -0.7341 -0.0525 -0.1448
   38CHL1   H1A 2783   0.026   3.977   6.874  0.2525  0.1709 -0.4639
   38CHL1   H1B 2784   0.152   3.859   6.882 -0.3286  1.3053 -1.3262
   38CHL1    C2 2785   0.033   3.827   6.709 -0.0322 -0.5418 -0.1172
   38CHL1   H2A 2786   0.114   3.884   6.657  1.4923  0.7705  3.3663
   38CHL1   H2B 2787  -0.068   3.854   6.673  0.1274 -0.3906 -0.4556
   38CHL1   C20 2788  -0.148   3.947   7.616  0.2608  0.7323 -0.0984
   38CHL1   H20 2789  -0.254   3.926   7.589  0.2194  2.2260 -1.1693
   38CHL1   C21 2790  -0.126   4.093   7.593 -0.0748 -0.1987 -0.4001
   38CHL1  H21A 2791  -0.176   4.149   7.676 -2.4051 -0.6145 -1.4232
   38CHL1  H21B 2792  -0.161   4.136   7.497  1.5119 -0.3851 -1.0852
   38CHL1  H21C 2793  -0.018   4.117   7.590 -0.2069  0.9941  1.9777
   38CHL1   C22 2794  -0.152   3.926   7.773 -0.6144  0.0600  1.0416
   38CHL1  H22A 2795  -0.237   3.984   7.816 -2.6893 -2.2206  0.2736
   38CHL1  H22B 2796  -0.179   3.820   7.797 -0.1123 -0.4889 -0.6773
   38CHL1   C23 2797  -0.025   3.959   7.835 -0.0227 -0.1953 -0.0722
   38CHL1  H23A 2798   0.066   3.914   7.789  1.2909  2.2718 -0.0794
   38CHL1  H23B 2799  -0.022   4.069   7.825 -0.8994 -0.1889 -0.2655
   38CHL1   C24 2800  -0.008   3.932   7.981  0.1474  0.3829 -0.5545
   38CHL1  H24A 2801  -0.018   3.822   7.991  0.3611  0.4886  1.0298
   38CHL1  H24B 2802   0.094   3.963   8.011  0.5758 -1.3725 -0.0928
   38CHL1   C25 2803  -0.107   3.990   8.082 -0.1125  1.0065  0.7195
   38CHL1   H25 2804  -0.202   3.939   8.053  0.4184 -0.6115  1.6509
   38CHL1   C26 2805  -0.078   3.953   8.230  0.2429 -0.0329 -0.2003
   38CHL1  H26A 2806   0.016   4.002   8.264  1.4247 -1.7394 -0.8955
   38CHL1  H26B 2807  -0.164   3.975   8.297 -1.0953 -1.8664 -1.2220
   38CHL1  H26C 2808  -0.051   3.845   8.234  0.9164  0.1512  0.5801
   38CHL1   C27 2809  -0.121   4.136   8.065  0.6695 -0.5805  0.0666
   38CHL1  H27A 2810  -0.031   4.199   8.079 -1.3453  2.6421 -0.4932
   38CHL1  H27B 2811  -0.169   4.168   7.970  2.3353  1.8579 -0.0298
   38CHL1  H27C 2812  -0.191   4.184   8.137  0.1100 -2.4479  0.8346
   39CHL1    C3 2813   1.764   3.778   6.595  0.2387 -0.5992  0.0302
   39CHL1    H3 2814   1.661   3.801   6.628  0.5607  1.5723 -0.3249
   39CHL1    O3 2815   1.773   3.736   6.459  0.4852 -0.3530 -0.1884
   39CHL1   H3' 2816   1.853   3.682   6.457  0.0060 -1.2095  1.8343
   39CHL1    C4 2817   1.846   3.900   6.629  0.2414  0.4525 -0.0964
   39CHL1   H4A 2818   1.950   3.870   6.605 -0.3850 -0.7967 -1.3641
   39CHL1   H4B 2819   1.819   3.988   6.567 -3.9352 -0.2714  0.4542
   39CHL1    C5 2820   1.844   3.931   6.771  0.0708  0.0055  0.1889
   39CHL1    C6 2821   1.815   4.048   6.828  0.4903  0.2274  1.2327
   39CHL1    H6 2822   1.798   4.122   6.748  1.7124 -2.1141 -1.4048
   39CHL1    C7 2823   1.812   4.082   6.970 -0.1515 -0.5659 -0.2424
   39CHL1   H7A 2824   1.870   4.177   6.979 -0.0500 -0.7616  1.5051
   39CHL1   H7B 2825   1.704   4.105   6.985  0.1404 -0.5769  2.2407
   39CHL1    C8 2826   1.871   3.982   7.062 -0.1707 -0.6077  0.2005
   39CHL1    H8 2827   1.980   4.004   7.057 -0.4209  0.8420  0.6767
   39CHL1   C14 2828   1.818   4.004   7.204  0.4972  0.1312  0.1435
   39CHL1   H14 2829   1.708   3.997   7.195  0.5621  1.4730 -2.5192
   39CHL1   C15 2830   1.824   4.142   7.271 -1.1575  0.4379 -0.2991
   39CHL1  H15A 2831   1.929   4.179   7.268 -0.4432 -1.5595 -1.1611
   39CHL1  H15B 2832   1.757   4.217   7.223 -2.5560  0.0818  1.0265
   39CHL1   C16 2833   1.799   4.109   7.423  0.2955 -0.2797  0.5955
   39CHL1  H16A 2834   1.871   4.163   7.487 -0.6972  1.3843  0.3839
   39CHL1  H16B 2835   1.699   4.149   7.451 -1.1318 -2.9900 -0.2831
   39CHL1   C17 2836   1.809   3.956   7.428  0.3150 -0.0467 -0.1093
   39CHL1   H17 2837   1.702   3.926   7.433  0.4729 -0.4773  2.1821
   39CHL1   C13 2838   1.874   3.905   7.299 -0.1852  0.5543 -0.5461
   39CHL1   C18 2839   2.028   3.924   7.318  0.2514  0.1425 -0.5790
   39CHL1  H18A 2840   2.060   4.015   7.373  1.1262  0.0232 -0.8685
   39CHL1  H18B 2841   2.064   3.841   7.383  1.6221 -0.4365 -1.9899
   39CHL1  H18C 2842   2.088   3.918   7.224 -0.8826  1.9930 -1.4952
   39CHL1   C12 2843   1.837   3.761   7.257 -0.3027 -0.2153  0.3367
   39CHL1  H12A 2844   1.878   3.679   7.320  0.0064 -1.3141 -1.2415
   39CHL1  H12B 2845   1.726   3.759   7.265 -0.2844 -0.4963  0.5291
   39CHL1   C11 2846   1.885   3.729   7.112 -0.4923 -0.0030 -0.2967
   39CHL1  H11A 2847   1.995   3.711   7.115 -0.5291 -0.1615  0.1609
   39CHL1  H11B 2848   1.834   3.634   7.089  1.3199 -1.1468  0.1751
   39CHL1    C9 2849   1.845   3.840   7.017  0.3584 -0.4798  0.1496
   39CHL1    H9 2850   1.734   3.828   7.019  0.2045  0.8333  1.4979
   39CHL1   C10 2851   1.883   3.816   6.870 -0.0472 -0.0373  0.1080
   39CHL1   C19 2852   2.033   3.793   6.851  0.1592  0.1276 -0.4654
   39CHL1  H19A 2853   2.058   3.687   6.874  0.2751  0.1908 -0.2970
   39CHL1  H19B 2854   2.078   3.817   6.752  2.1499  2.1191  0.8195
   39CHL1  H19C 2855   2.096   3.839   6.930 -1.1692 -0.7912  1.2029
   39CHL1    C1 2856   1.805   3.688   6.827 -0.4252 -0.3171 -0.3708
   39CHL1   H1A 2857   1.839   3.598   6.881 -0.0964  0.8601  1.4630
   39CHL1   H1B 2858   1.703   3.696   6.870  0.2158 -1.8111  1.5739
   39CHL1    C2 2859   1.822   3.663   6.678 -0.5420 -0.0330  0.9611
   39CHL1   H2A 2860   1.776   3.565   6.653  2.5373 -1.2335 -0.6167
   39CHL1   H2B 2861   1.929   3.644   6.654 -0.7185  0.1484 -0.0386
   39CHL1   C20 2862   1.869   3.893   7.560 -0.2445  0.2185  0.3118
   39CHL1   H20 2863   1.974   3.929   7.570 -0.6339  0.7756  2.9240
   39CHL1   C21 2864   1.853   3.743   7.571  0.0802 -0.0818  0.0263
   39CHL1  H21A 2865   1.753   3.708   7.538  0.2146 -1.0519  0.6269
   39CHL1  H21B 2866   1.852   3.722   7.680 -1.5725 -2.1666 -0.3337
   39CHL1  H21C 2867   1.935   3.697   7.512 -1.1883  0.1995 -2.0396
   39CHL1   C22 2868   1.795   3.952   7.682 -0.3010  0.5672 -1.0379
   39CHL1  H22A 2869   1.781   4.062   7.679 -0.7197  0.5326 -0.4202
   39CHL1  H22B 2870   1.695   3.912   7.706  0.1098 -0.9303 -1.7263
   39CHL1   C23 2871   1.877   3.947   7.816 -0.0205  0.1203 -0.4126
   39CHL1  H23A 2872   1.883   3.842   7.851  2.0747 -0.6869 -2.8484
   39CHL1  H23B 2873   1.978   3.993   7.817 -0.9509  2.2955  1.4498
   39CHL1   C24 2874   1.791   4.022   7.919 -0.4252  0.3152 -1.0337
   39CHL1  H24A 2875   1.797   4.128   7.886 -1.3786  0.3150 -1.2459
   39CHL1  H24B 2876   1.681   4.003   7.914 -0.5849  1.4330 -2.1154
   39CHL1   C25 2877   1.841   4.027   8.062  0.4257 -0.3040 -0.8112
   39CHL1   H25 2878   1.857   3.924   8.101 -0.7170 -0.6718 -1.2991
   39CHL1   C26 2879   1.979   4.094   8.062  0.5317 -0.2369 -0.6592
   39CHL1  H26A 2880   1.976   4.189   8.004  2.3042  2.1229  2.6873
   39CHL1  H26B 2881   2.020   4.125   8.161 -0.6858 -0.7604  0.0215
   39CHL1  H26C 2882   2.059   4.029   8.020  0.6471 -1.0174  0.7190
   39CHL1   C27 2883   1.736   4.100   8.146 -0.2127 -0.6137 -0.3826
   39CHL1  H27A 2884   1.698   4.196   8.104 -0.3829 -0.1862  0.6988
   39CHL1  H27B 2885   1.647   4.035   8.158 -2.0636  1.4613 -2.0110
   39CHL1  H27C 2886   1.784   4.129   8.242 -0.0854  2.1673 -1.1739
   40CHL1    C3 2887   4.757   1.680   6.919 -0.1573 -0.4860  0.2327
   40CHL1    H3 2888   4.735   1.788   6.929 -1.2601 -0.6267 -0.5090
   40CHL1    O3 2889   4.770   1.639   6.783 -0.2138 -0.1972  0.1144
   40CHL1   H3' 2890   4.849   1.686   6.756  1.2321 -2.2341  0.5954
   40CHL1    C4 2891   4.877   1.649   7.002 -0.3328  1.0490 -0.1886
   40CHL1   H4A 2892   4.898   1.540   6.993 -1.4656  0.7875  0.2124
   40CHL1   H4B 2893   4.948   1.716   6.949 -1.6756  1.3386 -1.6675
   40CHL1    C5 2894   4.864   1.676   7.152 -0.1664 -0.0240  0.5365
   40CHL1    C6 2895   4.944   1.763   7.213 -0.2046  0.0806 -0.0164
   40CHL1    H6 2896   5.009   1.829   7.153 -2.7587  1.0035 -1.9444
   40CHL1    C7 2897   4.939   1.794   7.359 -0.1895 -0.4457  0.1755
   40CHL1   H7A 2898   5.044   1.788   7.395 -0.2139 -2.0789  0.0315
   40CHL1   H7B 2899   4.906   1.899   7.378  1.2008 -0.0756  0.6477
   40CHL1    C8 2900   4.848   1.698   7.442  0.3814  0.1371 -0.5029
   40CHL1    H8 2901   4.906   1.607   7.468 -0.6860 -0.0188  1.5298
   40CHL1   C14 2902   4.805   1.762   7.574  0.0280 -0.7574 -0.0198
   40CHL1   H14 2903   4.737   1.847   7.554 -0.4523 -0.8099  1.2756
   40CHL1   C15 2904   4.914   1.830   7.669  0.2122  0.8526  0.3779
   40CHL1  H15A 2905   5.011   1.777   7.656  0.5811  1.4630  0.5918
   40CHL1  H15B 2906   4.924   1.940   7.656 -0.5522  1.1003  1.7030
   40CHL1   C16 2907   4.867   1.808   7.814 -0.0720 -0.2026 -0.3784
   40CHL1  H16A 2908   4.927   1.730   7.866  0.5811  1.5254  1.5749
   40CHL1  H16B 2909   4.868   1.905   7.868 -1.6532  0.4976 -1.5370
   40CHL1   C17 2910   4.722   1.752   7.798  0.2334  0.0972 -0.4183
   40CHL1   H17 2911   4.646   1.833   7.801 -2.2083 -2.0467  2.2357
   40CHL1   C13 2912   4.717   1.674   7.662 -0.0243 -0.2915  0.9640
   40CHL1   C18 2913   4.793   1.543   7.691 -0.0987  0.8490  0.5937
   40CHL1  H18A 2914   4.808   1.492   7.594 -2.4913 -1.3465  1.2688
   40CHL1  H18B 2915   4.892   1.563   7.739 -0.0352  3.0568 -0.3553
   40CHL1  H18C 2916   4.725   1.477   7.750 -0.7722  0.2600 -0.8034
   40CHL1   C12 2917   4.581   1.653   7.590 -0.8081 -0.4805 -0.2704
   40CHL1  H12A 2918   4.516   1.581   7.643  0.1376 -0.7679  0.5386
   40CHL1  H12B 2919   4.526   1.744   7.558  2.1061  1.4344 -0.2694
   40CHL1   C11 2920   4.605   1.591   7.450 -0.4979 -0.5528 -0.1844
   40CHL1  H11A 2921   4.642   1.487   7.463 -0.0924 -0.5455 -1.1467
   40CHL1  H11B 2922   4.513   1.584   7.388 -0.8205 -1.5015  0.3789
   40CHL1    C9 2923   4.719   1.663   7.370 -0.4073 -0.0578  1.1007
   40CHL1    H9 2924   4.679   1.764   7.348 -1.2089 -0.6485 -0.2552
   40CHL1   C10 2925   4.749   1.604   7.229 -0.1441 -0.1309 -0.4449
   40CHL1   C19 2926   4.783   1.448   7.243  0.3117 -0.2091 -0.6549
   40CHL1  H19A 2927   4.683   1.407   7.268  0.6091 -1.0049 -0.7442
   40CHL1  H19B 2928   4.806   1.400   7.145 -3.0681 -3.4337 -0.0993
   40CHL1  H19C 2929   4.861   1.435   7.321 -0.1952  1.2044  0.1221
   40CHL1    C1 2930   4.618   1.637   7.137  0.2486  0.2076  0.6078
   40CHL1   H1A 2931   4.538   1.574   7.182  2.0364 -1.8780  1.0260
   40CHL1   H1B 2932   4.585   1.743   7.136  0.4271  0.2925 -1.4704
   40CHL1    C2 2933   4.638   1.607   6.985 -0.6420  0.6990 -0.0909
   40CHL1   H2A 2934   4.541   1.620   6.931 -2.1477 -2.5900  1.5255
   40CHL1   H2B 2935   4.667   1.501   6.971  0.2541  0.9034  0.1902
   40CHL1   C20 2936   4.676   1.678   7.923 -0.5907 -0.4814 -0.0011
   40CHL1   H20 2937   4.739   1.587   7.927 -0.9675 -0.7392  0.1284
   40CHL1   C21 2938   4.532   1.634   7.912 -0.8619 -0.4963 -0.5561
   40CHL1  H21A 2939   4.520   1.554   7.836 -0.3346  0.0404 -1.2167
   40CHL1  H21B 2940   4.480   1.723   7.871 -0.3365 -0.3604 -0.9403
   40CHL1  H21C 2941   4.485   1.599   8.006  2.4234 -1.0872  1.0164
   40CHL1   C22 2942   4.702   1.761   8.055 -0.5493  0.2344 -0.2784
   40CHL1  H22A 2943   4.806   1.801   8.059  0.6984 -2.7530  0.3575
   40CHL1  H22B 2944   4.650   1.859   8.049  3.0686  2.4248  0.6160
   40CHL1   C23 2945   4.707   1.684   8.186 -0.6124  0.0347 -0.1096
   40CHL1  H23A 2946   4.613   1.632   8.214  0.2664 -0.1468  2.8299
   40CHL1  H23B 2947   4.780   1.600   8.187  0.8181  1.2411 -0.1423
   40CHL1   C24 2948   4.749   1.777   8.305 -0.7685 -0.2981  0.8314
   40CHL1  H24A 2949   4.855   1.807   8.290 -1.0631  0.2168 -0.3595
   40CHL1  H24B 2950   4.680   1.862   8.286  2.0553  2.1455  0.6654
   40CHL1   C25 2951   4.729   1.710   8.433 -0.0581  0.3864 -0.3841
   40CHL1   H25 2952   4.649   1.636   8.413 -0.4197  0.4871  0.6067
   40CHL1   C26 2953   4.856   1.630   8.482 -0.0992 -0.5041 -0.3504
   40CHL1  H26A 2954   4.882   1.549   8.410 -0.1638 -1.9051  1.1660
   40CHL1  H26B 2955   4.946   1.694   8.495  0.0667 -0.9370  0.6741
   40CHL1  H26C 2956   4.838   1.580   8.579  1.9783  0.7083  0.7313
   40CHL1   C27 2957   4.687   1.807   8.543 -0.0760  0.7002 -0.2636
   40CHL1  H27A 2958   4.593   1.861   8.521 -0.7955 -0.4498 -0.1380
   40CHL1  H27B 2959   4.670   1.763   8.643  1.5439 -0.3357 -0.4012
   40CHL1  H27C 2960   4.768   1.883   8.546  1.8598 -1.2601 -0.3211
   41CHL1    C3 2961   3.524   1.179   7.044  0.3438 -0.5554  0.8932
   41CHL1    H3 2962   3.486   1.280   7.071 -1.1891 -0.7390 -0.4525
   41CHL1    O3 2963   3.599   1.188   6.920 -0.8279  0.0088 -0.3848
   41CHL1   H3' 2964   3.562   1.120   6.864 -0.9985  1.3645 -2.0185
   41CHL1    C4 2965   3.618   1.139   7.165 -0.1060  0.6749 -0.4843
   41CHL1   H4A 2966   3.672   1.044   7.144  0.3469  0.5132  1.2777
   41CHL1   H4B 2967   3.693   1.220   7.167 -0.9214  1.4274  0.2768
   41CHL1    C5 2968   3.548   1.121   7.295 -0.5719  0.9551  0.1050
   41CHL1    C6 2969   3.577   1.197   7.397 -0.1436 -0.6131 -0.0517
   41CHL1    H6 2970   3.666   1.261   7.385 -1.3380  0.8839 -1.6240
   41CHL1    C7 2971   3.507   1.199   7.530  0.5375 -0.2663  0.2744
   41CHL1   H7A 2972   3.584   1.202   7.610  1.1258  1.8265 -0.2858
   41CHL1   H7B 2973   3.439   1.287   7.544  1.4614  0.2372  1.7989
   41CHL1    C8 2974   3.423   1.063   7.547  1.0670  0.5805  0.3877
   41CHL1    H8 2975   3.491   0.976   7.553 -0.8508 -1.1141 -1.1520
   41CHL1   C14 2976   3.336   1.085   7.668  0.3776 -0.0220 -0.6661
   41CHL1   H14 2977   3.269   1.166   7.632  0.1905  1.4481  2.6084
   41CHL1   C15 2978   3.380   1.152   7.802 -0.4429  0.1323 -0.0073
   41CHL1  H15A 2979   3.466   1.096   7.844 -0.9452 -2.6003 -2.3231
   41CHL1  H15B 2980   3.408   1.260   7.797 -1.9301  0.6092  1.2952
   41CHL1   C16 2981   3.270   1.110   7.896  0.5955  0.4703  0.2159
   41CHL1  H16A 2982   3.306   1.050   7.982 -0.0468  1.3735  1.1451
   41CHL1  H16B 2983   3.222   1.199   7.943  1.0598  0.4746  0.6941
   41CHL1   C17 2984   3.159   1.039   7.811 -0.1282 -0.1925 -0.2073
   41CHL1   H17 2985   3.100   1.124   7.769 -0.7604 -1.5141 -2.1536
   41CHL1   C13 2986   3.234   0.980   7.690  1.0237  1.0433 -0.1156
   41CHL1   C18 2987   3.303   0.855   7.733  0.1479  0.2564 -0.4571
   41CHL1  H18A 2988   3.367   0.819   7.650  0.9265  0.1392  0.1889
   41CHL1  H18B 2989   3.365   0.877   7.823 -1.3854 -0.1238  0.7439
   41CHL1  H18C 2990   3.242   0.766   7.760 -0.7838  0.4118 -1.9468
   41CHL1   C12 2991   3.148   0.948   7.564 -0.3896  0.0550  0.6478
   41CHL1  H12A 2992   3.086   0.860   7.593  2.4165 -3.1733 -2.1312
   41CHL1  H12B 2993   3.077   1.027   7.533  0.1456 -0.3788 -2.0074
   41CHL1   C11 2994   3.240   0.918   7.447 -0.3829  0.0067 -1.0576
   41CHL1  H11A 2995   3.294   0.821   7.458  0.3551  0.4372 -0.7854
   41CHL1  H11B 2996   3.169   0.906   7.363 -1.9340 -1.6950  0.3993
   41CHL1    C9 2997   3.339   1.037   7.424  0.3262 -0.3509  0.8986
   41CHL1    H9 2998   3.271   1.124   7.414  0.3374 -0.3044  1.2069
   41CHL1   C10 2999   3.423   1.027   7.295 -0.1295  0.2471 -0.0209
   41CHL1   C19 3000   3.467   0.881   7.272 -0.5101 -0.1723 -0.3513
   41CHL1  H19A 3001   3.526   0.831   7.352  1.3015 -2.0781 -2.7160
   41CHL1  H19B 3002   3.388   0.803   7.261 -0.5228  0.0160 -1.6988
   41CHL1  H19C 3003   3.537   0.876   7.186  1.4128  0.7426  1.0770
   41CHL1    C1 3004   3.333   1.065   7.166  0.1747  0.4593  0.3796
   41CHL1   H1A 3005   3.254   0.987   7.166  3.1299 -2.7981  1.0206
   41CHL1   H1B 3006   3.286   1.164   7.183  0.8395  1.0511 -1.0815
   41CHL1    C2 3007   3.406   1.077   7.035  0.6397  0.2877  0.2415
   41CHL1   H2A 3008   3.343   1.120   6.954  2.8623  0.6029 -1.4260
   41CHL1   H2B 3009   3.450   0.980   7.005 -1.8428 -1.1187  0.8876
   41CHL1   C20 3010   3.071   0.947   7.898 -0.4351 -0.1535  0.1789
   41CHL1   H20 3011   3.136   0.859   7.919  0.6144  0.4992 -0.2679
   41CHL1   C21 3012   2.940   0.899   7.836  0.8187  0.4818 -0.3555
   41CHL1  H21A 3013   2.889   0.835   7.911  1.3293  0.1623 -0.2768
   41CHL1  H21B 3014   2.948   0.829   7.751 -1.1817  0.1866 -0.3497
   41CHL1  H21C 3015   2.876   0.985   7.807 -0.2931 -0.4841 -0.8030
   41CHL1   C22 3016   3.037   1.019   8.035 -0.1958 -0.1848 -0.2543
   41CHL1  H22A 3017   2.983   0.958   8.110 -1.8320 -0.9952 -2.0015
   41CHL1  H22B 3018   3.123   1.045   8.100 -0.9919 -0.8888  1.1329
   41CHL1   C23 3019   2.955   1.152   8.017  0.5750 -0.3348  0.7757
   41CHL1  H23A 3020   3.015   1.225   7.959 -0.2574 -0.1604  0.1070
   41CHL1  H23B 3021   2.868   1.113   7.960  2.0762 -1.4747 -0.8200
   41CHL1   C24 3022   2.910   1.224   8.148  1.2887 -0.6214  0.4288
   41CHL1  H24A 3023   2.840   1.163   8.209 -0.8056  1.2886  0.0438
   41CHL1  H24B 3024   2.999   1.245   8.211 -0.6043  0.9643  2.7070
   41CHL1   C25 3025   2.839   1.359   8.112  0.0945 -0.1703  1.1159
   41CHL1   H25 3026   2.899   1.409   8.033 -1.5582 -1.5731 -1.1377
   41CHL1   C26 3027   2.694   1.329   8.065  0.2796  0.3703  0.7600
   41CHL1  H26A 3028   2.644   1.424   8.036 -0.4973 -0.2329  0.0645
   41CHL1  H26B 3029   2.685   1.254   7.983 -1.2170  0.4403  0.8318
   41CHL1  H26C 3030   2.630   1.283   8.143  0.4520 -0.7609  0.2582
   41CHL1   C27 3031   2.829   1.448   8.230  0.2809 -1.0564 -0.0809
   41CHL1  H27A 3032   2.921   1.460   8.291 -0.9593  0.4297  1.5883
   41CHL1  H27B 3033   2.791   1.550   8.207 -2.3826 -1.5424  1.6848
   41CHL1  H27C 3034   2.761   1.404   8.306 -0.9425 -0.9840 -1.0934
   42CHL1    C3 3035   4.874   6.077   6.927  0.2449  0.0652 -0.0961
   42CHL1    H3 3036   4.890   6.177   6.974 -0.9529  0.8166 -1.2076
   42CHL1    O3 3037   4.876   6.091   6.787 -0.1372 -0.2164 -0.3154
   42CHL1   H3' 3038   4.837   6.177   6.770  0.5738  0.3992  0.9667
   42CHL1    C4 3039   4.977   5.971   6.971  0.0639 -0.0046  0.2138
   42CHL1   H4A 3040   4.959   5.879   6.912 -0.5281 -0.6491  1.3513
   42CHL1   H4B 3041   5.076   6.010   6.940  0.5338 -0.0121  1.6468
   42CHL1    C5 3042   4.988   5.958   7.118  0.1893  0.2428  0.2093
   42CHL1    C6 3043   5.085   6.006   7.188 -0.4057  0.1052  0.4672
   42CHL1    H6 3044   5.172   6.048   7.136 -0.9195  0.8682  0.2086
   42CHL1    C7 3045   5.092   5.992   7.337 -0.0885 -0.1666 -0.0426
   42CHL1   H7A 3046   5.195   5.960   7.363  0.2533  1.1788  0.3352
   42CHL1   H7B 3047   5.086   6.087   7.394 -1.6445  0.1229 -0.6181
   42CHL1    C8 3048   4.989   5.883   7.391 -0.1657  0.1461 -0.2788
   42CHL1    H8 3049   5.022   5.788   7.344  3.2570  0.9039  0.3406
   42CHL1   C14 3050   4.981   5.883   7.540 -0.7260  0.5415  0.1388
   42CHL1   H14 3051   4.944   5.983   7.569 -0.9944  0.4177  0.2255
   42CHL1   C15 3052   5.116   5.877   7.618  0.0831  0.8276  0.4844
   42CHL1  H15A 3053   5.191   5.820   7.561 -0.4624 -1.3995  1.8557
   42CHL1  H15B 3054   5.155   5.979   7.639 -0.2370  1.1987 -0.6480
   42CHL1   C16 3055   5.064   5.827   7.747  0.0227 -0.2612  0.1298
   42CHL1  H16A 3056   5.112   5.728   7.766 -0.4489 -0.0883  2.6838
   42CHL1  H16B 3057   5.091   5.892   7.833 -0.8281  0.0234  0.1848
   42CHL1   C17 3058   4.907   5.791   7.743  0.0048  0.2062  0.3547
   42CHL1   H17 3059   4.864   5.885   7.784 -0.4923  0.1520 -0.0342
   42CHL1   C13 3060   4.883   5.784   7.596  0.3308 -0.1165 -0.2779
   42CHL1   C18 3061   4.923   5.643   7.549  0.1342 -0.4193  0.3782
   42CHL1  H18A 3062   4.976   5.637   7.451 -1.1807 -0.3506 -0.3579
   42CHL1  H18B 3063   4.981   5.597   7.632 -1.5131  1.6385  2.8091
   42CHL1  H18C 3064   4.838   5.574   7.535 -1.6378  1.8832 -0.8561
   42CHL1   C12 3065   4.742   5.823   7.546 -0.2474 -0.1008 -0.9445
   42CHL1  H12A 3066   4.655   5.760   7.578 -0.2811 -0.5751 -1.9231
   42CHL1  H12B 3067   4.734   5.927   7.584  3.3771 -0.2884  0.7894
   42CHL1   C11 3068   4.733   5.827   7.392 -0.5715 -0.0521 -0.6976
   42CHL1  H11A 3069   4.743   5.719   7.372 -0.1334 -0.7793  2.7915
   42CHL1  H11B 3070   4.635   5.864   7.354 -1.0393  1.4490  1.7267
   42CHL1    C9 3071   4.850   5.911   7.328  0.3872  1.1741 -1.2061
   42CHL1    H9 3072   4.823   6.015   7.358 -0.1987  0.0190  2.8615
   42CHL1   C10 3073   4.846   5.906   7.168 -0.1227 -0.1604  0.4934
   42CHL1   C19 3074   4.819   5.759   7.122  0.3458  0.9271  0.1663
   42CHL1  H19A 3075   4.712   5.737   7.138 -0.3818  2.9252 -1.5169
   42CHL1  H19B 3076   4.828   5.753   7.012  0.8459  2.0331  0.1330
   42CHL1  H19C 3077   4.889   5.691   7.176  0.4754 -1.2507 -2.5670
   42CHL1    C1 3078   4.724   5.993   7.121  0.4739 -0.9042 -0.2955
   42CHL1   H1A 3079   4.627   5.942   7.138 -0.2406  0.7421  0.9181
   42CHL1   H1B 3080   4.715   6.089   7.176 -1.0035 -0.2230 -1.6430
   42CHL1    C2 3081   4.728   6.030   6.969 -0.0961 -0.2884 -0.1300
   42CHL1   H2A 3082   4.665   6.120   6.956  0.6602  0.5371  1.6538
   42CHL1   H2B 3083   4.696   5.943   6.907 -0.2799 -0.4633  0.2087
   42CHL1   C20 3084   4.845   5.682   7.843 -0.1172 -0.5743 -0.0895
   42CHL1   H20 3085   4.871   5.581   7.806  1.8187 -0.3519  0.5131
   42CHL1   C21 3086   4.696   5.689   7.846  0.3375 -0.6975 -0.2506
   42CHL1  H21A 3087   4.663   5.656   7.947  2.9052 -3.3577 -0.1227
   42CHL1  H21B 3088   4.653   5.632   7.760  1.7648 -0.3953 -1.1997
   42CHL1  H21C 3089   4.656   5.792   7.837  2.7442  0.3030 -0.0413
   42CHL1   C22 3090   4.918   5.704   7.979  0.2805 -0.3757 -0.0227
   42CHL1  H22A 3091   4.882   5.622   8.044 -2.1418 -0.8071 -1.7891
   42CHL1  H22B 3092   5.029   5.699   7.969  0.1241 -0.8193 -1.9717
   42CHL1   C23 3093   4.882   5.832   8.059 -0.9039  0.2993  0.3806
   42CHL1  H23A 3094   4.933   5.910   7.999  1.5228 -0.8181  0.8660
   42CHL1  H23B 3095   4.776   5.863   8.072 -0.8672  0.5921  0.0171
   42CHL1   C24 3096   4.955   5.847   8.193  0.1109  0.7596 -0.0307
   42CHL1  H24A 3097   4.941   5.748   8.242  0.0559  1.7115  1.9643
   42CHL1  H24B 3098   5.065   5.861   8.185  0.3622 -0.8797  0.0537
   42CHL1   C25 3099   4.894   5.953   8.287  0.1591 -0.7236  0.1616
   42CHL1   H25 3100   4.789   5.921   8.300  0.0943 -0.7718 -0.4428
   42CHL1   C26 3101   4.961   5.970   8.426 -0.1336 -0.3265  0.0789
   42CHL1  H26A 3102   5.052   6.033   8.423 -0.1759 -0.2614  0.1689
   42CHL1  H26B 3103   4.891   6.025   8.492 -2.1997 -1.1832 -1.3245
   42CHL1  H26C 3104   4.974   5.869   8.473  1.4979 -0.1573  0.0715
   42CHL1   C27 3105   4.886   6.090   8.220 -0.3016  0.0303  0.1669
   42CHL1  H27A 3106   4.843   6.170   8.285  0.8792  0.3888  0.5268
   42CHL1  H27B 3107   4.812   6.091   8.137  0.1950 -0.0576 -0.2792
   42CHL1  H27C 3108   4.985   6.129   8.188 -0.6035 -1.3469 -2.7958
   43CHL1    C3 3109   4.194   2.244   6.723  0.3771  0.2548  0.7471
   43CHL1    H3 3110   4.084   2.227   6.727  0.1400 -0.0485 -2.9713
   43CHL1    O3 3111   4.247   2.222   6.592  0.2762 -0.3764 -0.4956
   43CHL1   H3' 3112   4.227   2.128   6.591  2.7387 -1.1314  3.0057
   43CHL1    C4 3113   4.209   2.390   6.749 -0.3470  0.2389  0.0025
   43CHL1   H4A 3114   4.320   2.394   6.746 -0.2875 -0.1953 -3.8980
   43CHL1   H4B 3115   4.161   2.454   6.672 -1.3627  0.1851  0.5824
   43CHL1    C5 3116   4.172   2.428   6.893  0.8295 -0.0472 -0.4676
   43CHL1    C6 3117   4.083   2.529   6.920 -0.1930 -0.2226  0.1392
   43CHL1    H6 3118   4.030   2.584   6.840  1.0981  1.7224  0.5360
   43CHL1    C7 3119   4.049   2.583   7.050 -0.4145  0.1200 -0.3345
   43CHL1   H7A 3120   4.037   2.694   7.044  0.7970  0.1752 -3.4641
   43CHL1   H7B 3121   3.947   2.544   7.073 -0.9754  0.3076 -2.3189
   43CHL1    C8 3122   4.152   2.541   7.161 -0.7461 -0.5871  0.1153
   43CHL1    H8 3123   4.241   2.606   7.158 -0.0026 -1.4496  1.7914
   43CHL1   C14 3124   4.085   2.557   7.301  0.5578 -0.6390  0.0196
   43CHL1   H14 3125   3.992   2.497   7.297 -1.9374  3.0122 -0.8521
   43CHL1   C15 3126   4.026   2.691   7.359  0.3077 -0.2286  0.1515
   43CHL1  H15A 3127   4.107   2.765   7.341 -0.8898  1.1032  0.0373
   43CHL1  H15B 3128   3.928   2.716   7.313 -0.3216 -0.7561  1.1738
   43CHL1   C16 3129   4.000   2.674   7.506 -0.4546 -0.0241 -0.5917
   43CHL1  H16A 3130   4.042   2.757   7.567 -0.3719 -1.2886  1.1174
   43CHL1  H16B 3131   3.894   2.664   7.536  0.3363 -3.3745  1.5110
   43CHL1   C17 3132   4.064   2.534   7.537  0.4426 -0.3920 -0.5779
   43CHL1   H17 3133   3.980   2.461   7.533  0.8850 -1.0649  1.2650
   43CHL1   C13 3134   4.160   2.497   7.425  0.5295 -0.0557  0.9007
   43CHL1   C18 3135   4.291   2.584   7.450 -0.1350 -0.8585  0.3127
   43CHL1  H18A 3136   4.267   2.685   7.489 -0.2573 -0.4353 -0.8395
   43CHL1  H18B 3137   4.346   2.542   7.537  0.2933 -1.1781 -0.1058
   43CHL1  H18C 3138   4.345   2.602   7.355 -2.3348  1.0795 -0.6653
   43CHL1   C12 3139   4.195   2.349   7.408 -0.3262  0.3417  0.5140
   43CHL1  H12A 3140   4.274   2.315   7.479  1.0981  2.8080  0.2071
   43CHL1  H12B 3141   4.101   2.289   7.409  0.3801 -0.9788 -2.4235
   43CHL1   C11 3142   4.253   2.322   7.269  0.0828  0.3838  0.0268
   43CHL1  H11A 3143   4.349   2.377   7.266 -0.2466  1.3003  3.1088
   43CHL1  H11B 3144   4.269   2.212   7.270  2.1856  0.6520 -0.1205
   43CHL1    C9 3145   4.177   2.384   7.144 -0.1742 -0.4047  0.6848
   43CHL1    H9 3146   4.080   2.332   7.137  0.1478 -0.7577 -2.6618
   43CHL1   C10 3147   4.239   2.351   7.004  0.0692  0.4248 -0.2030
   43CHL1   C19 3148   4.385   2.389   7.017 -0.2098  0.2615  0.7328
   43CHL1  H19A 3149   4.440   2.392   6.921 -0.8380  3.2927  0.3598
   43CHL1  H19B 3150   4.401   2.496   7.042  0.5753  0.0204  1.3226
   43CHL1  H19C 3151   4.440   2.318   7.082 -1.5188 -1.4534  0.0365
   43CHL1    C1 3152   4.223   2.194   6.981 -0.3705  0.1803  0.0096
   43CHL1   H1A 3153   4.282   2.120   7.040 -2.1627 -1.8245 -0.5763
   43CHL1   H1B 3154   4.118   2.157   6.991 -0.7646  1.5173  1.2578
   43CHL1    C2 3155   4.268   2.159   6.830  0.9265  0.6250 -0.1711
   43CHL1   H2A 3156   4.242   2.056   6.797 -1.3122  1.0409  0.1356
   43CHL1   H2B 3157   4.379   2.162   6.823  0.9080 -0.5934 -1.6937
   43CHL1   C20 3158   4.112   2.509   7.682 -0.1292 -0.1803  0.3246
   43CHL1   H20 3159   4.209   2.559   7.699 -1.0042  1.7000  0.0461
   43CHL1   C21 3160   4.129   2.357   7.712  0.1355 -0.1456  0.4480
   43CHL1  H21A 3161   4.134   2.346   7.823  1.2317 -0.7735  0.3549
   43CHL1  H21B 3162   4.226   2.314   7.678 -0.3429  0.5279 -1.9177
   43CHL1  H21C 3163   4.055   2.294   7.659  0.7406  0.5298 -1.2439
   43CHL1   C22 3164   4.021   2.572   7.797  0.7429 -0.0089  0.5860
   43CHL1  H22A 3165   4.068   2.572   7.898  0.4636  3.0355  0.8219
   43CHL1  H22B 3166   4.020   2.678   7.764 -1.7773  0.9902  3.3350
   43CHL1   C23 3167   3.878   2.526   7.804  0.2879  0.6746 -0.2276
   43CHL1  H23A 3168   3.837   2.527   7.700  0.6587  1.1086 -0.3730
   43CHL1  H23B 3169   3.888   2.423   7.845  2.5522  1.4484  1.3799
   43CHL1   C24 3170   3.792   2.628   7.894 -0.5210  0.1386  0.0699
   43CHL1  H24A 3171   3.811   2.625   8.004 -3.1410  3.2675  0.7551
   43CHL1  H24B 3172   3.803   2.730   7.851  1.6348 -0.0467  0.0755
   43CHL1   C25 3173   3.641   2.601   7.902 -0.2084 -0.4153  0.7417
   43CHL1   H25 3174   3.595   2.679   7.965 -0.1805 -0.6508  1.0565
   43CHL1   C26 3175   3.572   2.626   7.763  0.1575 -0.1326 -0.5421
   43CHL1  H26A 3176   3.464   2.601   7.755  0.0467  0.3356 -0.4854
   43CHL1  H26B 3177   3.582   2.732   7.734 -0.5364  0.3477  0.8928
   43CHL1  H26C 3178   3.629   2.568   7.687  1.4265 -0.3294  0.5318
   43CHL1   C27 3179   3.596   2.463   7.962  0.0078 -1.3531  0.0578
   43CHL1  H27A 3180   3.633   2.381   7.897 -0.8561 -0.6352 -1.3938
   43CHL1  H27B 3181   3.644   2.443   8.060 -0.4805 -2.0771  0.1580
   43CHL1  H27C 3182   3.487   2.447   7.972 -0.2815 -0.2876 -1.0969
   44CHL1    C3 3183   5.035   2.871   6.468  0.1302  0.2765  0.1904
   44CHL1    H3 3184   5.055   2.767   6.500  0.1118  0.0041 -0.6504
   44CHL1    O3 3185   5.062   2.890   6.329  0.3514 -0.7278  0.0137
   44CHL1   H3' 3186   5.047   2.981   6.302  1.2046 -0.9000 -1.1185
   44CHL1    C4 3187   4.886   2.905   6.495 -0.4493 -0.4197  0.0624
   44CHL1   H4A 3188   4.860   3.007   6.460  0.3818  0.4973  1.9447
   44CHL1   H4B 3189   4.839   2.838   6.421 -0.5288 -2.3241  1.7509
   44CHL1    C5 3190   4.838   2.882   6.632 -0.7251 -0.1041  0.4396
   44CHL1    C6 3191   4.740   2.794   6.657  0.2038 -0.6889  0.1191
   44CHL1    H6 3192   4.689   2.744   6.573 -1.1778  0.8629 -0.0274
   44CHL1    C7 3193   4.691   2.768   6.799  0.1586  0.1108 -0.3823
   44CHL1   H7A 3194   4.581   2.755   6.807 -0.1932  1.3278 -2.3796
   44CHL1   H7B 3195   4.731   2.671   6.834  0.5990  0.1918 -0.6491
   44CHL1    C8 3196   4.743   2.872   6.899 -0.4468 -0.3190 -0.7897
   44CHL1    H8 3197   4.685   2.967   6.893 -1.9251 -0.9921  1.5321
   44CHL1   C14 3198   4.731   2.808   7.041  0.0017 -0.5157 -0.5999
   44CHL1   H14 3199   4.797   2.720   7.032  0.2791 -0.1858 -2.1666
   44CHL1   C15 3200   4.599   2.734   7.083  0.8469 -0.4054 -0.0823
   44CHL1  H15A 3201   4.512   2.796   7.053  1.0738  0.0089  0.1189
   44CHL1  H15B 3202   4.597   2.634   7.034  1.5522 -1.5383  2.0734
   44CHL1   C16 3203   4.611   2.721   7.233  0.6396  0.4980 -0.2721
   44CHL1  H16A 3204   4.525   2.772   7.281 -1.2096 -1.5461 -1.2529
   44CHL1  H16B 3205   4.604   2.619   7.275  0.7049  0.8478  0.6070
   44CHL1   C17 3206   4.744   2.794   7.274  0.2202  0.1230 -0.9926
   44CHL1   H17 3207   4.816   2.710   7.277 -1.0374 -1.0356  2.8949
   44CHL1   C13 3208   4.780   2.891   7.157 -0.5779 -0.1178  0.1799
   44CHL1   C18 3209   4.692   3.018   7.180  0.2677 -0.1875  0.5479
   44CHL1  H18A 3210   4.587   2.985   7.196  0.3376 -1.2611 -0.8885
   44CHL1  H18B 3211   4.725   3.082   7.264  1.5174 -0.4912  0.3061
   44CHL1  H18C 3212   4.696   3.081   7.089  0.5066 -0.6077  0.2639
   44CHL1   C12 3213   4.925   2.922   7.125 -0.2703 -0.4426 -0.1328
   44CHL1  H12A 3214   4.968   2.985   7.206 -0.1489  0.2563 -0.7318
   44CHL1  H12B 3215   4.972   2.824   7.105  0.2525 -0.1823 -0.1936
   44CHL1   C11 3216   4.945   2.997   6.987 -0.2456  0.3868  0.0516
   44CHL1  H11A 3217   4.896   3.096   6.984  0.8232  0.9587  0.7403
   44CHL1  H11B 3218   5.050   3.025   6.962 -0.3304  1.1984  0.5638
   44CHL1    C9 3219   4.890   2.906   6.871  0.1143 -0.2417 -1.5500
   44CHL1    H9 3220   4.940   2.807   6.882  2.2353  0.9666  0.4403
   44CHL1   C10 3221   4.920   2.959   6.736  0.4678  0.0603  0.7055
   44CHL1   C19 3222   4.874   3.103   6.724  0.0493  0.7208 -0.3829
   44CHL1  H19A 3223   4.873   3.144   6.621 -1.1770  0.7597 -0.3661
   44CHL1  H19B 3224   4.773   3.119   6.767  0.5761  1.2312  0.7210
   44CHL1  H19C 3225   4.942   3.180   6.769  0.8375 -0.9499  1.4434
   44CHL1    C1 3226   5.075   2.945   6.708  0.7025 -0.4544 -0.1828
   44CHL1   H1A 3227   5.125   3.032   6.756  2.2340 -0.8715 -0.9565
   44CHL1   H1B 3228   5.113   2.845   6.738  0.2334 -0.4444  0.4653
   44CHL1    C2 3229   5.111   2.973   6.558  0.0703  0.1562 -0.5546
   44CHL1   H2A 3230   5.222   2.966   6.547  0.2473  1.1543  0.4277
   44CHL1   H2B 3231   5.078   3.075   6.531 -2.4674 -0.4896 -0.1489
   44CHL1   C20 3232   4.738   2.853   7.422 -0.5424 -0.1325 -0.4002
   44CHL1   H20 3233   4.681   2.948   7.425  0.6134  0.5681  2.3094
   44CHL1   C21 3234   4.881   2.888   7.471 -0.3436 -0.0270  0.2398
   44CHL1  H21A 3235   4.940   2.793   7.474  0.1494  0.2895  0.7404
   44CHL1  H21B 3236   4.870   2.914   7.578  0.4132 -0.1944  0.3637
   44CHL1  H21C 3237   4.931   2.963   7.406  2.0574 -0.3462  1.5800
   44CHL1   C22 3238   4.668   2.757   7.522  0.0186  0.4225 -0.0840
   44CHL1  H22A 3239   4.558   2.763   7.516 -0.2431 -0.9212  2.2016
   44CHL1  H22B 3240   4.696   2.652   7.498  0.7107  1.1599 -2.9321
   44CHL1   C23 3241   4.676   2.785   7.676  0.6370  0.4275 -0.1512
   44CHL1  H23A 3242   4.772   2.749   7.719 -0.6796 -1.7290  1.2113
   44CHL1  H23B 3243   4.662   2.889   7.711  1.0243  0.7529 -0.9315
   44CHL1   C24 3244   4.573   2.708   7.760  0.0097  0.0016  0.8454
   44CHL1  H24A 3245   4.478   2.763   7.743 -0.4906 -1.3267 -0.9965
   44CHL1  H24B 3246   4.559   2.600   7.743 -0.4913  0.0616  0.8484
   44CHL1   C25 3247   4.589   2.718   7.911 -0.3907 -0.0063 -0.4275
   44CHL1   H25 3248   4.684   2.667   7.939 -0.8315  0.1464  1.4517
   44CHL1   C26 3249   4.599   2.867   7.961 -0.5419 -0.1645 -0.2056
   44CHL1  H26A 3250   4.510   2.923   7.925 -0.2934  0.4607  0.1347
   44CHL1  H26B 3251   4.606   2.868   8.072  2.4483  1.4185 -0.3114
   44CHL1  H26C 3252   4.690   2.913   7.917 -1.2798 -0.2444 -1.8859
   44CHL1   C27 3253   4.469   2.653   7.984  0.5310 -0.2686 -0.2270
   44CHL1  H27A 3254   4.474   2.546   7.955  0.6574 -0.9221  2.0332
   44CHL1  H27B 3255   4.474   2.657   8.095  2.4633 -0.0367 -0.2796
   44CHL1  H27C 3256   4.371   2.690   7.947  0.1973  1.5052  2.1916
   45CHL1    C3 3257   5.892   5.047   6.688  0.1290  0.0845 -0.1855
   45CHL1    H3 3258   5.802   4.986   6.665 -0.2039 -0.0315  1.3107
   45CHL1    O3 3259   5.964   5.081   6.574 -0.0378 -0.3756  0.5338
   45CHL1   H3' 3260   6.051   5.097   6.611 -0.3343 -0.6034  1.3607
   45CHL1    C4 3261   5.858   5.188   6.745  0.3507 -0.1599  0.2837
   45CHL1   H4A 3262   5.952   5.247   6.752  1.6294 -2.0408 -0.3973
   45CHL1   H4B 3263   5.809   5.259   6.674  0.1876 -0.1822  0.3711
   45CHL1    C5 3264   5.774   5.177   6.872  0.0417 -0.3139 -0.5349
   45CHL1    C6 3265   5.660   5.239   6.899 -0.4619 -0.5565 -0.4206
   45CHL1    H6 3266   5.620   5.303   6.820  2.1520 -0.0996 -1.4885
   45CHL1    C7 3267   5.575   5.232   7.020 -0.0203  0.1625 -0.1165
   45CHL1   H7A 3268   5.564   5.333   7.063  1.3667 -0.0456  0.7942
   45CHL1   H7B 3269   5.477   5.192   6.988 -0.2392 -0.5518  1.3858
   45CHL1    C8 3270   5.633   5.138   7.135  0.6775  0.7064  1.0483
   45CHL1    H8 3271   5.701   5.198   7.199 -0.6336  2.6535  0.7126
   45CHL1   C14 3272   5.521   5.081   7.218  0.1075  0.7570  0.0585
   45CHL1   H14 3273   5.462   5.019   7.148  1.8832  0.0848 -0.9219
   45CHL1   C15 3274   5.409   5.172   7.279 -0.1169  0.6170  0.3144
   45CHL1  H15A 3275   5.451   5.269   7.314 -1.3459  0.6276  1.8085
   45CHL1  H15B 3276   5.329   5.182   7.202 -1.4774 -1.1272  1.4416
   45CHL1   C16 3277   5.346   5.069   7.377 -0.0909 -0.3630  0.4777
   45CHL1  H16A 3278   5.334   5.118   7.476  1.7087  0.2811  0.4136
   45CHL1  H16B 3279   5.243   5.046   7.341  1.0234 -1.5904 -2.2229
   45CHL1   C17 3280   5.436   4.946   7.389  0.4444 -0.3631 -0.4354
   45CHL1   H17 3281   5.391   4.891   7.303  1.1355  1.0849 -1.7629
   45CHL1   C13 3282   5.572   5.000   7.335 -1.0668 -0.4338  0.0197
   45CHL1   C18 3283   5.657   5.090   7.436 -0.2558  0.2565  0.0948
   45CHL1  H18A 3284   5.764   5.099   7.408 -0.5746  1.2363 -0.8447
   45CHL1  H18B 3285   5.620   5.194   7.449 -0.3218  0.2513 -0.0466
   45CHL1  H18C 3286   5.657   5.031   7.531  1.1027  0.1017  0.0203
   45CHL1   C12 3287   5.656   4.878   7.280  0.0245 -0.3007  0.2659
   45CHL1  H12A 3288   5.694   4.810   7.359 -0.1721  0.1835  0.7911
   45CHL1  H12B 3289   5.586   4.825   7.212  1.2842 -0.2385 -1.1214
   45CHL1   C11 3290   5.763   4.926   7.186  0.5473  1.2600 -0.1347
   45CHL1  H11A 3291   5.844   4.969   7.249 -0.2838  0.7647  1.3026
   45CHL1  H11B 3292   5.814   4.838   7.141  0.1128  0.3705  1.0908
   45CHL1    C9 3293   5.719   5.024   7.076  0.4004 -0.8099 -0.4390
   45CHL1    H9 3294   5.659   4.955   7.013  0.7336 -2.2226  0.7105
   45CHL1   C10 3295   5.829   5.075   6.977  1.0411 -0.2261  0.1487
   45CHL1   C19 3296   5.930   5.158   7.054 -0.0020 -0.1383 -0.7000
   45CHL1  H19A 3297   6.022   5.173   6.993 -0.6527  1.8983 -1.2482
   45CHL1  H19B 3298   5.891   5.255   7.090  1.1777  0.0127  0.2271
   45CHL1  H19C 3299   5.965   5.106   7.146 -0.6221  1.7057  0.6320
   45CHL1    C1 3300   5.892   4.950   6.911 -0.1517  0.7235  0.5602
   45CHL1   H1A 3301   5.961   4.913   6.990  1.5771 -0.7254 -1.4772
   45CHL1   H1B 3302   5.816   4.870   6.898  1.5880 -1.7587  3.8672
   45CHL1    C2 3303   5.984   4.964   6.789 -0.2037 -0.8966  0.5401
   45CHL1   H2A 3304   6.003   4.860   6.755 -1.6110 -0.9345 -0.2112
   45CHL1   H2B 3305   6.079   5.019   6.809 -1.0706  0.4070  1.2166
   45CHL1   C20 3306   5.428   4.866   7.515 -0.7565  0.1511 -0.1525
   45CHL1   H20 3307   5.518   4.802   7.526 -1.9712 -1.4642  1.0304
   45CHL1   C21 3308   5.316   4.765   7.527 -0.3914  0.0184  0.4964
   45CHL1  H21A 3309   5.297   4.726   7.425  0.8761 -1.3959  0.7676
   45CHL1  H21B 3310   5.224   4.818   7.560  0.0832  0.5973  0.9179
   45CHL1  H21C 3311   5.320   4.682   7.600  1.6117  0.1191  0.5689
   45CHL1   C22 3312   5.430   4.950   7.646  0.6510  0.0482 -0.4346
   45CHL1  H22A 3313   5.467   5.052   7.625  0.4930  0.5276  1.4231
   45CHL1  H22B 3314   5.324   4.963   7.678  0.4682  2.9191 -1.8983
   45CHL1   C23 3315   5.529   4.906   7.757 -0.2410  0.7160  0.7528
   45CHL1  H23A 3316   5.507   4.800   7.781 -1.0824  1.1207  1.8404
   45CHL1  H23B 3317   5.636   4.913   7.727 -0.5383  1.8400 -0.1357
   45CHL1   C24 3318   5.508   4.983   7.890  0.1641  0.2270 -0.0084
   45CHL1  H24A 3319   5.402   5.009   7.913  0.4623  1.0880  0.4323
   45CHL1  H24B 3320   5.535   4.914   7.972 -3.6884 -1.3643  0.1665
   45CHL1   C25 3321   5.591   5.113   7.908  0.2206  0.9186  0.0039
   45CHL1   H25 3322   5.581   5.191   7.829  1.8827  2.5253  1.2940
   45CHL1   C26 3323   5.529   5.169   8.039  0.1257 -1.0254 -0.6116
   45CHL1  H26A 3324   5.425   5.196   8.012  0.9727  0.5530 -2.6336
   45CHL1  H26B 3325   5.546   5.102   8.126  2.2107 -0.1137 -0.2541
   45CHL1  H26C 3326   5.588   5.262   8.051  1.0943 -1.5057 -1.4229
   45CHL1   C27 3327   5.734   5.088   7.930  0.8220  0.6717 -0.2680
   45CHL1  H27A 3328   5.739   5.029   8.024 -2.6473  0.8117  0.1404
   45CHL1  H27B 3329   5.769   5.036   7.838 -1.1261  0.9209 -1.2004
   45CHL1  H27C 3330   5.793   5.182   7.934  1.2981  0.3484  0.5600
   46CHL1    C3 3331   0.883   0.512   6.984  0.7811 -0.7220  0.4848
   46CHL1    H3 3332   0.957   0.442   7.029 -0.5814 -0.8463  2.6689
   46CHL1    O3 3333   0.875   0.522   6.842 -0.4453 -0.0152 -0.4811
   46CHL1   H3' 3334   0.966   0.533   6.815 -0.3813  0.1914 -0.1820
   46CHL1    C4 3335   0.750   0.466   7.031  0.2416  0.0586  0.2672
   46CHL1   H4A 3336   0.666   0.521   6.983  0.7001  0.6971  0.1882
   46CHL1   H4B 3337   0.736   0.363   6.990 -0.3899 -0.6291  2.0897
   46CHL1    C5 3338   0.732   0.459   7.185  0.0240 -0.0670  0.2604
   46CHL1    C6 3339   0.695   0.349   7.251  0.4227  0.2841  0.1140
   46CHL1    H6 3340   0.661   0.268   7.183 -0.2024  0.9069 -0.3340
   46CHL1    C7 3341   0.668   0.334   7.399  0.0060 -0.2305 -0.3113
   46CHL1   H7A 3342   0.573   0.288   7.431 -0.4997  0.8015 -0.2893
   46CHL1   H7B 3343   0.753   0.282   7.448  0.3125  0.3534 -0.2101
   46CHL1    C8 3344   0.682   0.474   7.474  0.1218  0.0845  0.6588
   46CHL1    H8 3345   0.582   0.522   7.467 -0.0108 -0.3846 -1.0968
   46CHL1   C14 3346   0.718   0.462   7.623  0.0085 -0.6603 -0.3488
   46CHL1   H14 3347   0.825   0.434   7.615  0.5608  1.6935 -2.3809
   46CHL1   C15 3348   0.641   0.356   7.702  0.0922  0.3762 -0.6923
   46CHL1  H15A 3349   0.532   0.356   7.682  0.0404  1.0085 -0.4044
   46CHL1  H15B 3350   0.678   0.253   7.681 -1.7902 -0.4531 -0.1399
   46CHL1   C16 3351   0.664   0.394   7.852  0.0338 -0.5208 -0.3866
   46CHL1  H16A 3352   0.566   0.393   7.905  0.2023 -1.5478 -0.0641
   46CHL1  H16B 3353   0.729   0.316   7.898  1.8823 -0.2640 -2.3610
   46CHL1   C17 3354   0.730   0.536   7.848  1.2725 -0.1474 -0.1334
   46CHL1   H17 3355   0.839   0.513   7.858  1.4234  0.9454  1.0261
   46CHL1   C13 3356   0.716   0.588   7.697  0.0198 -0.3701  0.2001
   46CHL1   C18 3357   0.581   0.662   7.688  0.1699  0.3936  0.1087
   46CHL1  H18A 3358   0.587   0.759   7.741 -4.9012  0.4552  1.0539
   46CHL1  H18B 3359   0.543   0.680   7.585 -1.2332 -0.7852  0.3847
   46CHL1  H18C 3360   0.500   0.606   7.740  0.4140 -1.7427 -1.6497
   46CHL1   C12 3361   0.830   0.683   7.646 -1.2626  0.5138 -0.0564
   46CHL1  H12A 3362   0.827   0.779   7.702 -2.3482  0.1814  0.4921
   46CHL1  H12B 3363   0.925   0.628   7.667 -0.8596 -0.6659 -4.0786
   46CHL1   C11 3364   0.805   0.698   7.491  0.4291 -0.5382 -0.3861
   46CHL1  H11A 3365   0.726   0.773   7.472  0.6939 -0.1803 -0.1045
   46CHL1  H11B 3366   0.895   0.755   7.460 -1.1476  0.7148 -3.0519
   46CHL1    C9 3367   0.787   0.567   7.414 -0.4594 -0.4175 -0.3897
   46CHL1    H9 3368   0.876   0.501   7.414 -0.1359 -0.0140 -1.7210
   46CHL1   C10 3369   0.769   0.588   7.256  0.6696  0.2114  0.6313
   46CHL1   C19 3370   0.655   0.689   7.233  0.3874 -0.4520  0.2164
   46CHL1  H19A 3371   0.639   0.706   7.124  0.1837 -1.5776  0.0577
   46CHL1  H19B 3372   0.561   0.644   7.273  0.0233  0.4175  0.3591
   46CHL1  H19C 3373   0.678   0.789   7.273 -0.0468 -1.4268  3.0991
   46CHL1    C1 3374   0.903   0.638   7.197  0.2560 -0.5244  0.8481
   46CHL1   H1A 3375   0.924   0.734   7.249  0.6170  0.0638 -0.3567
   46CHL1   H1B 3376   0.986   0.574   7.233  1.6854  1.4274  1.2373
   46CHL1    C2 3377   0.913   0.653   7.046  0.8977 -0.0577 -0.1895
   46CHL1   H2A 3378   1.015   0.686   7.018  0.4375  2.1286  0.5392
   46CHL1   H2B 3379   0.844   0.734   7.015  0.2562 -0.6034 -0.2154
   46CHL1   C20 3380   0.695   0.614   7.972  0.1356  0.0984  0.7998
   46CHL1   H20 3381   0.592   0.653   7.961  0.0798  0.0942  1.2819
   46CHL1   C21 3382   0.783   0.740   7.972 -0.1558 -0.6080  0.0265
   46CHL1  H21A 3383   0.888   0.721   7.940 -0.0825 -1.0185  0.4820
   46CHL1  H21B 3384   0.813   0.765   8.077 -2.1284  1.3931  0.1914
   46CHL1  H21C 3385   0.734   0.827   7.925 -0.1203  0.6861  2.2277
   46CHL1   C22 3386   0.709   0.539   8.100  0.0849 -0.1059 -0.2808
   46CHL1  H22A 3387   0.670   0.436   8.089 -0.6393  0.0703  0.5483
   46CHL1  H22B 3388   0.816   0.537   8.130 -0.7416  0.7449  3.2032
   46CHL1   C23 3389   0.635   0.600   8.224 -0.4380  0.3769 -0.2745
   46CHL1  H23A 3390   0.681   0.698   8.249 -1.1943  1.2410 -2.0501
   46CHL1  H23B 3391   0.531   0.629   8.198 -1.0216 -1.4331 -0.0817
   46CHL1   C24 3392   0.621   0.501   8.346  0.2845 -0.0409 -0.4070
   46CHL1  H24A 3393   0.543   0.551   8.409 -0.6603 -2.3040  0.3063
   46CHL1  H24B 3394   0.593   0.398   8.315  0.4443  0.4248 -2.2100
   46CHL1   C25 3395   0.741   0.485   8.438  0.7753  0.2513 -0.6403
   46CHL1   H25 3396   0.824   0.455   8.371 -0.3597 -4.0617 -0.3685
   46CHL1   C26 3397   0.770   0.628   8.497 -0.4755  0.2823  0.4797
   46CHL1  H26A 3398   0.789   0.704   8.418  2.7035 -1.2106 -0.3521
   46CHL1  H26B 3399   0.693   0.651   8.573  0.1820 -1.0602  1.6035
   46CHL1  H26C 3400   0.865   0.613   8.554 -0.0001 -2.2869 -0.8828
   46CHL1   C27 3401   0.721   0.382   8.542 -0.2042 -0.1016  0.3408
   46CHL1  H27A 3402   0.627   0.406   8.596  0.0298  0.8634  0.3439
   46CHL1  H27B 3403   0.708   0.280   8.501 -0.4437 -0.7575  1.9722
   46CHL1  H27C 3404   0.808   0.363   8.609  1.0686 -0.9736 -1.4951
   47CHL1    C3 3405   6.512   2.252   6.919  0.4023  0.2708 -0.0070
   47CHL1    H3 3406   6.412   2.295   6.936 -0.5791 -1.4992 -0.9378
   47CHL1    O3 3407   6.542   2.261   6.786 -0.0604 -0.5657  0.0257
   47CHL1   H3' 3408   6.625   2.213   6.776 -0.2678 -0.6393 -1.7278
   47CHL1    C4 3409   6.612   2.352   6.988 -0.8828  0.6720 -0.0447
   47CHL1   H4A 3410   6.714   2.311   6.972 -1.1913 -0.0145 -0.2527
   47CHL1   H4B 3411   6.608   2.455   6.946 -1.2791  0.2460 -1.0795
   47CHL1    C5 3412   6.585   2.359   7.132  0.4612 -0.1895 -0.1270
   47CHL1    C6 3413   6.559   2.478   7.197  0.3874  0.2172  0.5919
   47CHL1    H6 3414   6.557   2.568   7.135 -0.3715 -0.2915 -0.1430
   47CHL1    C7 3415   6.547   2.489   7.343  0.0100 -0.2593 -0.1612
   47CHL1   H7A 3416   6.616   2.572   7.370 -0.2169 -0.5801  1.5425
   47CHL1   H7B 3417   6.444   2.521   7.373  0.6138  0.3460  1.3615
   47CHL1    C8 3418   6.594   2.361   7.418 -0.1535  0.9669  0.6172
   47CHL1    H8 3419   6.704   2.357   7.430 -0.0736 -0.5333 -0.3817
   47CHL1   C14 3420   6.541   2.356   7.558  0.9812 -0.0794  0.1046
   47CHL1   H14 3421   6.430   2.355   7.561  0.8068  3.9351  2.6867
   47CHL1   C15 3422   6.584   2.479   7.644 -0.1734 -0.3278 -0.7449
   47CHL1  H15A 3423   6.691   2.491   7.620  0.9118 -0.6600  3.3250
   47CHL1  H15B 3424   6.534   2.573   7.613  1.3761  1.1695  1.1365
   47CHL1   C16 3425   6.561   2.438   7.790 -0.6639 -0.7302  0.0195
   47CHL1  H16A 3426   6.660   2.459   7.837 -0.8428 -0.7564  0.4097
   47CHL1  H16B 3427   6.486   2.503   7.840  1.9114  3.5180 -1.1064
   47CHL1   C17 3428   6.535   2.289   7.784  0.8717  0.3999 -0.4150
   47CHL1   H17 3429   6.426   2.287   7.766  0.2686 -0.1297  2.6893
   47CHL1   C13 3430   6.589   2.238   7.645  0.0010 -0.5597 -0.4634
   47CHL1   C18 3431   6.736   2.219   7.660  0.2109  0.2046 -0.5338
   47CHL1  H18A 3432   6.783   2.206   7.561 -0.0409 -1.9981 -0.4127
   47CHL1  H18B 3433   6.792   2.302   7.709  2.6080 -1.0315 -1.0579
   47CHL1  H18C 3434   6.744   2.128   7.724 -0.7633  0.1944 -0.4178
   47CHL1   C12 3435   6.516   2.118   7.585 -0.6562  0.6071  0.6524
   47CHL1  H12A 3436   6.535   2.025   7.643 -1.6099  1.4546  2.4123
   47CHL1  H12B 3437   6.407   2.137   7.592 -0.7981  0.5113 -1.0332
   47CHL1   C11 3438   6.549   2.099   7.427 -0.6665  0.0885 -0.5421
   47CHL1  H11A 3439   6.648   2.049   7.438 -1.1562 -0.4930  1.7134
   47CHL1  H11B 3440   6.482   2.025   7.379 -2.0549  1.3387 -0.6198
   47CHL1    C9 3441   6.549   2.235   7.350 -0.2007  0.2062  0.7030
   47CHL1    H9 3442   6.441   2.249   7.330  0.0162 -0.9301 -1.5174
   47CHL1   C10 3443   6.597   2.223   7.200 -1.0467 -0.1946  0.9280
   47CHL1   C19 3444   6.748   2.169   7.209 -0.1963 -0.4325 -0.3032
   47CHL1  H19A 3445   6.741   2.065   7.246  1.1778 -0.5109 -0.1963
   47CHL1  H19B 3446   6.795   2.164   7.108  2.5327  0.6503  0.8168
   47CHL1  H19C 3447   6.808   2.240   7.270  0.4193 -0.6648 -0.6257
   47CHL1    C1 3448   6.512   2.114   7.127 -0.6706 -0.2805  0.3737
   47CHL1   H1A 3449   6.529   2.021   7.185  0.2546  0.0140  0.5786
   47CHL1   H1B 3450   6.405   2.144   7.125 -0.6789 -0.2438 -1.8747
   47CHL1    C2 3451   6.539   2.105   6.971  0.1657 -0.5498  0.1587
   47CHL1   H2A 3452   6.467   2.039   6.918  0.9077 -1.5729  0.3862
   47CHL1   H2B 3453   6.644   2.072   6.954 -0.1961 -2.2621  1.0452
   47CHL1   C20 3454   6.564   2.208   7.912  0.2220  0.1941 -0.1439
   47CHL1   H20 3455   6.574   2.101   7.881 -0.4912  0.0153  0.2144
   47CHL1   C21 3456   6.442   2.230   8.006  0.1800 -0.0168 -0.3751
   47CHL1  H21A 3457   6.344   2.210   7.958  0.0573 -0.6492  0.1170
   47CHL1  H21B 3458   6.436   2.333   8.047  1.9268  0.0013 -0.0979
   47CHL1  H21C 3459   6.432   2.165   8.096 -0.4439  0.1254 -0.3387
   47CHL1   C22 3460   6.690   2.242   7.983 -0.1589 -0.5962 -0.2244
   47CHL1  H22A 3461   6.774   2.271   7.915  0.9726 -1.5411  0.7183
   47CHL1  H22B 3462   6.679   2.332   8.046  0.2801  0.6386 -1.8475
   47CHL1   C23 3463   6.755   2.131   8.066 -0.0303 -0.4041 -0.6200
   47CHL1  H23A 3464   6.702   2.130   8.164  0.2647 -0.2040 -0.4561
   47CHL1  H23B 3465   6.760   2.024   8.035  1.7418 -0.8408  0.9217
   47CHL1   C24 3466   6.907   2.156   8.099  0.5669  0.4900  0.4357
   47CHL1  H24A 3467   6.965   2.182   8.008  1.9644  2.5241  1.7852
   47CHL1  H24B 3468   6.924   2.242   8.168  2.2508  0.0734  0.6011
   47CHL1   C25 3469   6.978   2.030   8.165  0.6587 -0.0410 -0.5363
   47CHL1   H25 3470   6.980   1.952   8.086  0.5263 -2.2213  1.4997
   47CHL1   C26 3471   7.123   2.068   8.187  0.5814  0.0971 -0.3498
   47CHL1  H26A 3472   7.179   1.976   8.215 -1.5337 -1.4667 -0.9450
   47CHL1  H26B 3473   7.178   2.107   8.099  1.7143  0.9751  0.7007
   47CHL1  H26C 3474   7.141   2.145   8.266  1.4570 -0.3450 -0.1050
   47CHL1   C27 3475   6.913   1.981   8.293  0.1939  0.0321 -0.2150
   47CHL1  H27A 3476   6.904   2.068   8.361 -0.9130 -0.9466  0.9391
   47CHL1  H27B 3477   6.809   1.945   8.275  0.3693 -0.1579 -0.8527
   47CHL1  H27C 3478   6.971   1.896   8.334  0.4427 -0.7266 -2.0317
   48CHL1    C3 3479   2.776   4.474   6.462 -0.5582 -0.0627  0.3057
   48CHL1    H3 3480   2.718   4.565   6.435  0.5390  0.8907  1.0785
   48CHL1    O3 3481   2.790   4.401   6.336  0.5483  0.3128 -0.3354
   48CHL1   H3' 3482   2.859   4.439   6.281  1.0258  0.7842  0.5688
   48CHL1    C4 3483   2.914   4.516   6.516  0.0854 -0.2028 -0.2378
   48CHL1   H4A 3484   2.986   4.431   6.522  0.1820 -0.1992 -1.2270
   48CHL1   H4B 3485   2.951   4.588   6.440  1.0356 -0.5338 -0.1008
   48CHL1    C5 3486   2.904   4.567   6.659  0.0186  0.0441  0.1771
   48CHL1    C6 3487   2.956   4.683   6.701 -0.4488  0.0747 -0.5590
   48CHL1    H6 3488   3.021   4.741   6.634  0.5663 -1.0697 -0.5893
   48CHL1    C7 3489   2.970   4.721   6.847 -0.0253 -0.3479  0.1973
   48CHL1   H7A 3490   3.066   4.772   6.872  1.3490 -2.3602 -0.6935
   48CHL1   H7B 3491   2.892   4.799   6.862  0.6818  0.4756 -0.2538
   48CHL1    C8 3492   2.937   4.605   6.945  0.1516 -0.8705 -0.6577
   48CHL1    H8 3493   3.034   4.552   6.946  1.2974  1.1056 -1.2073
   48CHL1   C14 3494   2.903   4.659   7.087 -0.5360  0.1178  0.7792
   48CHL1   H14 3495   2.805   4.712   7.083 -0.9467 -0.6660  0.2215
   48CHL1   C15 3496   3.004   4.769   7.148  0.3744  0.5392 -0.8256
   48CHL1  H15A 3497   3.107   4.728   7.139 -0.1083 -1.0934  0.5057
   48CHL1  H15B 3498   2.981   4.867   7.103  0.0348  0.1377 -1.5427
   48CHL1   C16 3499   2.960   4.770   7.298 -0.2557 -0.6426 -0.0021
   48CHL1  H16A 3500   3.046   4.746   7.365 -0.1910 -0.0831  0.1194
   48CHL1  H16B 3501   2.927   4.871   7.331  1.8539  0.0335  0.1626
   48CHL1   C17 3502   2.845   4.655   7.314 -0.9563 -0.4884  0.1556
   48CHL1   H17 3503   2.749   4.706   7.288 -0.7451 -0.0128  0.2847
   48CHL1   C13 3504   2.880   4.555   7.203  0.3120 -1.1889 -0.2174
   48CHL1   C18 3505   3.010   4.472   7.233 -0.4351 -0.3566 -0.6698
   48CHL1  H18A 3506   3.095   4.529   7.275 -0.0120 -2.6521  1.8750
   48CHL1  H18B 3507   2.993   4.388   7.303 -0.1556 -0.7154 -1.0275
   48CHL1  H18C 3508   3.055   4.431   7.140  0.8897  0.3010 -0.3436
   48CHL1   C12 3509   2.764   4.464   7.162 -0.0386  0.3042 -0.4921
   48CHL1  H12A 3510   2.759   4.372   7.224  0.5486  1.9927  2.1852
   48CHL1  H12B 3511   2.668   4.519   7.164  0.1411  0.6107 -0.2539
   48CHL1   C11 3512   2.787   4.412   7.015  0.9661  0.1126  1.0564
   48CHL1  H11A 3513   2.866   4.335   7.032 -1.5748 -2.3693  2.5295
   48CHL1  H11B 3514   2.708   4.340   6.986  1.3742 -0.7840  2.1071
   48CHL1    C9 3515   2.818   4.514   6.905 -0.0126 -0.4512  0.1775
   48CHL1    H9 3516   2.725   4.575   6.910 -1.5296 -2.7368  1.0819
   48CHL1   C10 3517   2.834   4.469   6.755 -0.4123  0.1232 -0.3645
   48CHL1   C19 3518   2.917   4.343   6.773 -0.4578  0.3047  0.9651
   48CHL1  H19A 3519   2.936   4.286   6.679 -1.1638 -0.4529  1.2624
   48CHL1  H19B 3520   3.014   4.363   6.824  1.7612  0.0257 -2.8052
   48CHL1  H19C 3521   2.869   4.269   6.841 -0.3511  1.3236  2.1758
   48CHL1    C1 3522   2.693   4.430   6.700  0.3813  0.1767  0.5419
   48CHL1   H1A 3523   2.651   4.344   6.757 -1.1624  0.6127  0.1027
   48CHL1   H1B 3524   2.627   4.519   6.695  0.6886  0.3416 -1.2109
   48CHL1    C2 3525   2.704   4.375   6.555 -0.0681  0.1651  0.1052
   48CHL1   H2A 3526   2.599   4.359   6.524 -0.9991  3.3703  1.1621
   48CHL1   H2B 3527   2.768   4.284   6.559  1.6846  1.2482 -1.5809
   48CHL1   C20 3528   2.833   4.606   7.458 -0.5073 -0.1982 -0.8535
   48CHL1   H20 3529   2.931   4.567   7.495 -1.0552  0.7716  1.8291
   48CHL1   C21 3530   2.733   4.493   7.474  0.0023  0.5243 -0.4505
   48CHL1  H21A 3531   2.765   4.405   7.414 -0.1835  1.2020 -1.5776
   48CHL1  H21B 3532   2.637   4.528   7.430  0.6751  2.0545 -0.7517
   48CHL1  H21C 3533   2.727   4.463   7.581 -0.0371  0.8585 -0.3584
   48CHL1   C22 3534   2.791   4.722   7.557 -0.0293 -0.4360  0.3811
   48CHL1  H22A 3535   2.854   4.810   7.532 -0.2628 -0.3718  0.0155
   48CHL1  H22B 3536   2.681   4.740   7.553 -0.2098 -0.3750  3.3248
   48CHL1   C23 3537   2.813   4.698   7.706  0.1203 -0.5063 -0.5694
   48CHL1  H23A 3538   2.756   4.610   7.741 -1.4477  1.0774  1.0690
   48CHL1  H23B 3539   2.921   4.676   7.724 -0.3111 -1.9410  0.4249
   48CHL1   C24 3540   2.763   4.824   7.786 -0.6330  0.2111  0.0173
   48CHL1  H24A 3541   2.783   4.915   7.725 -0.4826  0.7260  0.8149
   48CHL1  H24B 3542   2.653   4.822   7.802 -0.6082  0.4222  0.2265
   48CHL1   C25 3543   2.837   4.847   7.924 -0.0605 -0.3613  0.3922
   48CHL1   H25 3544   2.947   4.848   7.905 -0.4478 -0.7052 -2.2107
   48CHL1   C26 3545   2.799   4.985   7.978  0.3561 -0.2732  0.2038
   48CHL1  H26A 3546   2.707   4.984   8.040 -0.2765 -0.1976 -0.7041
   48CHL1  H26B 3547   2.876   5.017   8.050  3.1225 -4.7141 -0.4250
   48CHL1  H26C 3548   2.775   5.061   7.900  1.8673 -0.7337 -0.7448
   48CHL1   C27 3549   2.813   4.728   8.019  0.4102  0.3274  0.1746
   48CHL1  H27A 3550   2.846   4.636   7.965  1.0674  0.6632 -0.0026
   48CHL1  H27B 3551   2.867   4.725   8.116  0.6297 -0.6942  0.0376
   48CHL1  H27C 3552   2.703   4.722   8.035  0.5731  0.1315  1.2753
   49CHL1    C3 3553   1.691   4.637   6.697 -0.6766 -0.1795 -0.2460
   49CHL1    H3 3554   1.593   4.587   6.715 -1.3736  1.0696 -0.4749
   49CHL1    O3 3555   1.706   4.672   6.558  0.2169  0.0328 -0.2579
   49CHL1   H3' 3556   1.622   4.713   6.535 -0.4519 -1.5158 -0.7731
   49CHL1    C4 3557   1.700   4.764   6.778 -0.3075 -0.0614  0.9228
   49CHL1   H4A 3558   1.799   4.810   6.755  0.3901 -2.2422 -0.7751
   49CHL1   H4B 3559   1.622   4.834   6.741 -0.1515 -0.6545 -0.6004
   49CHL1    C5 3560   1.691   4.741   6.928  0.6432  0.1078 -0.0360
   49CHL1    C6 3561   1.599   4.796   7.009  0.0271 -0.8668 -0.7939
   49CHL1    H6 3562   1.525   4.873   6.981 -1.7241 -1.7881  1.0520
   49CHL1    C7 3563   1.603   4.780   7.155  0.4854  0.0476 -0.5562
   49CHL1   H7A 3564   1.573   4.876   7.202 -1.6310 -0.4554 -0.7556
   49CHL1   H7B 3565   1.520   4.713   7.186  2.7977 -2.2170  1.1337
   49CHL1    C8 3566   1.736   4.719   7.209 -0.2524  0.1506 -0.2018
   49CHL1    H8 3567   1.818   4.793   7.199  0.7109 -0.3447  2.9211
   49CHL1   C14 3568   1.723   4.675   7.356  0.2377  0.3240 -0.0441
   49CHL1   H14 3569   1.640   4.601   7.361 -0.5412  1.1669 -0.2319
   49CHL1   C15 3570   1.683   4.790   7.454  0.9014 -0.3361 -0.6522
   49CHL1  H15A 3571   1.737   4.886   7.441 -0.9071  0.7902 -0.2573
   49CHL1  H15B 3572   1.573   4.807   7.454  0.8243 -0.4089 -3.1486
   49CHL1   C16 3573   1.723   4.745   7.598  0.3237  0.6197  0.5966
   49CHL1  H16A 3574   1.803   4.810   7.637 -0.5650  2.5093 -0.5970
   49CHL1  H16B 3575   1.630   4.731   7.658 -0.1536 -2.7737 -0.7227
   49CHL1   C17 3576   1.783   4.598   7.575 -0.3542 -0.9766 -0.5026
   49CHL1   H17 3577   1.694   4.533   7.561 -1.2312 -0.1879  1.1435
   49CHL1   C13 3578   1.843   4.609   7.426 -0.4959 -0.0455 -0.4338
   49CHL1   C18 3579   1.973   4.692   7.429  0.2205  0.0577  0.1592
   49CHL1  H18A 3580   2.054   4.639   7.482  0.5849  0.1009 -0.3509
   49CHL1  H18B 3581   2.001   4.718   7.325 -2.0145  0.5484 -0.3809
   49CHL1  H18C 3582   1.959   4.793   7.473  0.5149  0.0360  0.3020
   49CHL1   C12 3583   1.864   4.483   7.356  0.2029  0.2130  0.4941
   49CHL1  H12A 3584   1.960   4.438   7.386  1.6345  2.2438 -0.7447
   49CHL1  H12B 3585   1.786   4.404   7.354 -0.5660  0.8931 -2.9312
   49CHL1   C11 3586   1.893   4.515   7.202 -0.2925 -0.4228 -0.3210
   49CHL1  H11A 3587   1.983   4.580   7.203 -1.3027  1.0445  0.4837
   49CHL1  H11B 3588   1.913   4.421   7.147 -0.2541 -0.5274 -0.1300
   49CHL1    C9 3589   1.777   4.600   7.129 -0.2657  0.4348 -0.5716
   49CHL1    H9 3590   1.684   4.539   7.128  1.4610 -2.3165 -0.7847
   49CHL1   C10 3591   1.793   4.640   6.983  0.1705  1.1549  0.3810
   49CHL1   C19 3592   1.943   4.701   6.966  0.0760  0.5141 -0.0161
   49CHL1  H19A 3593   1.945   4.783   7.042 -0.3943  1.6232 -1.1636
   49CHL1  H19B 3594   2.009   4.613   6.982 -1.3448 -0.5676  0.1165
   49CHL1  H19C 3595   1.964   4.753   6.870 -1.1950  1.3551  0.1371
   49CHL1    C1 3596   1.793   4.512   6.891  0.0334 -0.3585  0.2905
   49CHL1   H1A 3597   1.874   4.444   6.925 -0.0066  0.0664  1.2643
   49CHL1   H1B 3598   1.699   4.456   6.912  1.1539 -2.9061 -0.9607
   49CHL1    C2 3599   1.799   4.536   6.738 -0.0352  0.0272  0.1744
   49CHL1   H2A 3600   1.800   4.438   6.686  1.7195 -0.0863  0.3806
   49CHL1   H2B 3601   1.899   4.578   6.716 -0.3083  0.1583 -0.8314
   49CHL1   C20 3602   1.871   4.530   7.696 -0.1846  0.7504  0.1142
   49CHL1   H20 3603   1.962   4.594   7.704  1.3260 -1.3854  1.0041
   49CHL1   C21 3604   1.929   4.395   7.666 -0.3273  0.3529 -0.6069
   49CHL1  H21A 3605   2.004   4.411   7.585  3.1071 -0.7760  2.1255
   49CHL1  H21B 3606   1.841   4.332   7.643  0.3371 -1.0582  0.6118
   49CHL1  H21C 3607   1.986   4.353   7.751  0.3187  0.2394 -1.0791
   49CHL1   C22 3608   1.805   4.527   7.829 -0.4885 -0.8985 -0.5974
   49CHL1  H22A 3609   1.739   4.616   7.837 -1.1784 -1.4938  0.5475
   49CHL1  H22B 3610   1.725   4.451   7.842 -0.5102 -0.6996  0.4658
   49CHL1   C23 3611   1.909   4.522   7.946 -0.0626 -1.3028  0.6532
   49CHL1  H23A 3612   1.983   4.439   7.937  0.3858 -0.7797 -0.8201
   49CHL1  H23B 3613   1.948   4.626   7.942 -0.0569 -1.2650  1.5330
   49CHL1   C24 3614   1.837   4.503   8.076 -0.3443  0.4141 -1.0611
   49CHL1  H24A 3615   1.757   4.580   8.082 -0.3089  0.3646  0.9551
   49CHL1  H24B 3616   1.790   4.403   8.092  0.2258  0.2165 -0.5299
   49CHL1   C25 3617   1.932   4.528   8.198  0.6997 -0.5084 -0.0957
   49CHL1   H25 3618   1.979   4.626   8.175  0.9632 -0.6410 -0.1212
   49CHL1   C26 3619   1.851   4.551   8.332  0.1311  0.1243  0.1345
   49CHL1  H26A 3620   1.788   4.467   8.368  0.5493 -0.0488  0.4769
   49CHL1  H26B 3621   1.925   4.581   8.409 -0.6505  2.7273 -0.0583
   49CHL1  H26C 3622   1.787   4.640   8.318 -1.3099 -1.1469 -2.1037
   49CHL1   C27 3623   2.033   4.415   8.220  0.1908 -1.2376  0.9022
   49CHL1  H27A 3624   1.976   4.324   8.247 -2.6195 -0.3941 -1.5777
   49CHL1  H27B 3625   2.082   4.399   8.122  2.1274 -1.1081  1.8110
   49CHL1  H27C 3626   2.102   4.442   8.302 -0.0463 -1.4239  1.1637
   50CHL1    C3 3627   1.889   0.286   6.812  0.0673 -0.1800 -0.5748
   50CHL1    H3 3628   1.975   0.219   6.832 -0.8532 -1.4697 -0.8038
   50CHL1    O3 3629   1.854   0.292   6.679 -0.5195  0.0201 -0.2708
   50CHL1   H3' 3630   1.877   0.201   6.657  0.7276  0.7730 -2.3350
   50CHL1    C4 3631   1.770   0.216   6.879  0.6670  0.3217  0.1640
   50CHL1   H4A 3632   1.671   0.254   6.847  0.9632  0.1480 -0.9916
   50CHL1   H4B 3633   1.766   0.118   6.825 -1.1217  1.2648 -1.5057
   50CHL1    C5 3634   1.785   0.209   7.034 -0.7376 -0.4920  0.4340
   50CHL1    C6 3635   1.787   0.092   7.090  0.4187 -0.0704  0.1975
   50CHL1    H6 3636   1.780   0.008   7.019 -0.8058  0.7991 -0.7667
   50CHL1    C7 3637   1.801   0.068   7.237  0.1736 -0.1016  0.4203
   50CHL1   H7A 3638   1.732  -0.015   7.261 -2.4777  2.0839  0.8518
   50CHL1   H7B 3639   1.903   0.039   7.271  0.2131  0.3666  0.7143
   50CHL1    C8 3640   1.768   0.192   7.314  0.2080 -0.3485  0.0706
   50CHL1    H8 3641   1.658   0.205   7.318  0.1205 -0.9634 -0.2726
   50CHL1   C14 3642   1.818   0.183   7.461 -0.3768 -0.0501 -0.5890
   50CHL1   H14 3643   1.928   0.188   7.448 -0.4542  2.0557 -0.7708
   50CHL1   C15 3644   1.777   0.057   7.534 -0.5349  0.0386 -0.2647
   50CHL1  H15A 3645   1.667   0.040   7.530 -0.3691 -1.1800 -0.1630
   50CHL1  H15B 3646   1.827  -0.032   7.490 -0.6047  0.1819 -0.6414
   50CHL1   C16 3647   1.809   0.082   7.684  0.4080  0.7182  0.4954
   50CHL1  H16A 3648   1.717   0.056   7.740  1.1352  2.2297  2.5057
   50CHL1  H16B 3649   1.896   0.022   7.718  0.2543 -2.2913 -3.6860
   50CHL1   C17 3650   1.836   0.234   7.692 -0.3058  0.9845  0.1784
   50CHL1   H17 3651   1.946   0.248   7.678 -0.2422  0.0047 -0.4106
   50CHL1   C13 3652   1.793   0.300   7.556  0.4130  0.5031 -0.2950
   50CHL1   C18 3653   1.639   0.330   7.565  0.7656  1.1448  0.2929
   50CHL1  H18A 3654   1.582   0.247   7.611 -1.2754  1.4678 -1.4634
   50CHL1  H18B 3655   1.626   0.430   7.613  0.1020  0.5435  1.4033
   50CHL1  H18C 3656   1.592   0.340   7.465 -0.3373 -1.7140  0.4434
   50CHL1   C12 3657   1.867   0.419   7.500 -0.4347  0.0069  0.2900
   50CHL1  H12A 3658   1.849   0.510   7.561 -2.3780 -0.5272  0.5827
   50CHL1  H12B 3659   1.976   0.399   7.511 -0.4595 -0.5691 -0.4234
   50CHL1   C11 3660   1.836   0.443   7.349 -0.7768 -0.0119 -0.0185
   50CHL1  H11A 3661   1.737   0.494   7.352  0.0303  1.5866  0.8883
   50CHL1  H11B 3662   1.912   0.513   7.309 -1.2394 -0.0961 -1.0689
   50CHL1    C9 3663   1.843   0.317   7.251  0.0455  0.2268 -0.4579
   50CHL1    H9 3664   1.950   0.287   7.249  0.0530 -0.0153  1.6439
   50CHL1   C10 3665   1.802   0.341   7.102  0.0894 -0.8585 -0.6054
   50CHL1   C19 3666   1.684   0.437   7.081 -0.0535  0.0346 -0.5031
   50CHL1  H19A 3667   1.661   0.453   6.973  1.2099  1.2144 -0.6193
   50CHL1  H19B 3668   1.592   0.397   7.128 -1.0057  0.7019 -1.7374
   50CHL1  H19C 3669   1.688   0.538   7.127 -0.7765 -1.0858  2.2224
   50CHL1    C1 3670   1.921   0.405   7.029 -0.3429  0.3660  0.1352
   50CHL1   H1A 3671   1.940   0.505   7.074  1.6280 -0.7217  1.9480
   50CHL1   H1B 3672   2.021   0.356   7.035  1.3164  3.5063  0.7896
   50CHL1    C2 3673   1.915   0.427   6.872 -0.1406  0.7069 -0.8737
   50CHL1   H2A 3674   1.999   0.484   6.826  0.3642 -0.3155 -1.2558
   50CHL1   H2B 3675   1.821   0.479   6.844 -0.5389 -0.1674 -1.1983
   50CHL1   C20 3676   1.804   0.304   7.822  1.0049 -0.1122  0.4223
   50CHL1   H20 3677   1.694   0.321   7.822  0.6489 -2.1646  0.2741
   50CHL1   C21 3678   1.866   0.442   7.834  0.1431  0.7754 -0.2883
   50CHL1  H21A 3679   1.846   0.484   7.935 -1.5360 -0.1635 -0.1888
   50CHL1  H21B 3680   1.829   0.509   7.754  1.3116  1.8050  0.0211
   50CHL1  H21C 3681   1.974   0.434   7.813  0.3895  1.7873  0.5349
   50CHL1   C22 3682   1.828   0.217   7.953  0.0196  0.0718  0.8419
   50CHL1  H22A 3683   1.820   0.111   7.922  2.0641  0.4441 -1.2508
   50CHL1  H22B 3684   1.936   0.228   7.977 -0.0359 -0.0303  1.1495
   50CHL1   C23 3685   1.743   0.258   8.072 -0.1247  0.5451 -0.8267
   50CHL1  H23A 3686   1.772   0.358   8.111  0.9153 -0.5086  1.2908
   50CHL1  H23B 3687   1.634   0.268   8.050 -0.6670 -0.7522  0.9659
   50CHL1   C24 3688   1.757   0.156   8.196 -0.9026 -0.4528 -0.1546
   50CHL1  H24A 3689   1.703   0.062   8.174 -0.1372 -0.6396 -1.3332
   50CHL1  H24B 3690   1.867   0.148   8.214 -0.8754  2.0510  1.2162
   50CHL1   C25 3691   1.708   0.219   8.325 -0.2806 -0.3016 -0.0947
   50CHL1   H25 3692   1.767   0.312   8.339  0.3067 -0.5159 -1.0833
   50CHL1   C26 3693   1.557   0.266   8.325 -0.3410  0.4728  0.1773
   50CHL1  H26A 3694   1.494   0.177   8.302 -1.0775  0.2400  2.7270
   50CHL1  H26B 3695   1.536   0.298   8.430  0.8815 -1.0908  0.9437
   50CHL1  H26C 3696   1.539   0.348   8.253 -0.1274 -0.5571 -1.0809
   50CHL1   C27 3697   1.741   0.134   8.452  0.3218 -0.3172  0.6099
   50CHL1  H27A 3698   1.846   0.101   8.445  0.3227  0.0032 -1.5583
   50CHL1  H27B 3699   1.727   0.197   8.542  0.7898 -1.9438  1.8629
   50CHL1  H27C 3700   1.679   0.042   8.460  2.6283 -1.8389  1.9189
   51CHL1    C3 3701   2.734   5.125   6.549  0.4873 -0.0113 -0.9298
   51CHL1    H3 3702   2.629   5.102   6.522  0.7657 -0.2418 -1.8562
   51CHL1    O3 3703   2.819   5.141   6.438 -0.1610  0.0611 -0.5120
   51CHL1   H3' 3704   2.888   5.206   6.453 -0.8907  0.8111 -0.3144
   51CHL1    C4 3705   2.732   5.259   6.624  0.4289 -0.8390 -0.0929
   51CHL1   H4A 3706   2.838   5.289   6.642  0.1486  0.7362 -0.9085
   51CHL1   H4B 3707   2.687   5.334   6.556 -2.5078 -1.9696  0.4684
   51CHL1    C5 3708   2.671   5.254   6.761  0.0786 -1.0761  0.2068
   51CHL1    C6 3709   2.591   5.352   6.803  0.2841 -0.7093  0.8223
   51CHL1    H6 3710   2.584   5.442   6.740 -0.0322 -0.4656  1.1966
   51CHL1    C7 3711   2.545   5.371   6.946 -0.1089  0.2132  0.1898
   51CHL1   H7A 3712   2.568   5.474   6.980  1.5637 -0.2292  0.4948
   51CHL1   H7B 3713   2.436   5.351   6.938  0.3890 -2.1072 -2.0029
   51CHL1    C8 3714   2.621   5.276   7.042 -0.5463  0.5974  0.0039
   51CHL1    H8 3715   2.721   5.322   7.061  0.1438  0.8349 -3.5529
   51CHL1   C14 3716   2.547   5.266   7.175 -0.3847 -0.8879  0.8574
   51CHL1   H14 3717   2.446   5.235   7.140 -1.8156  0.7783  3.2742
   51CHL1   C15 3718   2.521   5.402   7.238  0.0315  0.1440 -0.5616
   51CHL1  H15A 3719   2.622   5.448   7.241  0.0658  0.0415  0.1899
   51CHL1  H15B 3720   2.448   5.464   7.184  0.3052  0.5212 -0.5020
   51CHL1   C16 3721   2.470   5.358   7.379  0.2603  0.0729  0.0498
   51CHL1  H16A 3722   2.532   5.413   7.453 -0.7800  1.5247 -0.1154
   51CHL1  H16B 3723   2.362   5.370   7.401  1.1160  1.2782  4.7353
   51CHL1   C17 3724   2.503   5.203   7.392  0.2914  0.2793  0.5263
   51CHL1   H17 3725   2.406   5.156   7.365  0.6725  0.5990 -1.6032
   51CHL1   C13 3726   2.600   5.171   7.277 -0.7174  0.2878 -0.7748
   51CHL1   C18 3727   2.737   5.217   7.331  0.4055  1.1225 -0.2869
   51CHL1  H18A 3728   2.804   5.217   7.242  0.6443 -2.0352 -0.2455
   51CHL1  H18B 3729   2.748   5.320   7.370  0.9505  0.6046  0.9841
   51CHL1  H18C 3730   2.774   5.148   7.410  1.6361  2.6957  0.5512
   51CHL1   C12 3731   2.607   5.027   7.218  0.0101 -0.2514 -0.1233
   51CHL1  H12A 3732   2.655   4.957   7.289 -1.6588 -0.9544  0.3432
   51CHL1  H12B 3733   2.502   4.992   7.206 -0.3047  0.6353 -0.0455
   51CHL1   C11 3734   2.677   5.026   7.084  0.0747  0.0467  0.0218
   51CHL1  H11A 3735   2.784   5.028   7.113  0.2882  1.0199 -0.7513
   51CHL1  H11B 3736   2.658   4.923   7.048 -0.7309  0.0423  0.4253
   51CHL1    C9 3737   2.632   5.134   6.985 -0.3492 -0.3372 -0.0410
   51CHL1    H9 3738   2.533   5.097   6.950  0.2795 -1.8262 -0.3396
   51CHL1   C10 3739   2.711   5.133   6.847 -0.3115 -0.1713 -0.3653
   51CHL1   C19 3740   2.863   5.136   6.890  0.1231 -0.0452 -0.2452
   51CHL1  H19A 3741   2.899   5.033   6.915  2.2587  0.4458 -1.1194
   51CHL1  H19B 3742   2.921   5.171   6.802 -0.1488  0.6523 -0.1503
   51CHL1  H19C 3743   2.897   5.200   6.974  1.1515 -1.2515  0.2969
   51CHL1    C1 3744   2.687   5.003   6.767  0.0059  0.2304  0.8067
   51CHL1   H1A 3745   2.712   4.920   6.836 -1.0715  0.5160  1.5584
   51CHL1   H1B 3746   2.580   4.978   6.750  0.1910 -0.1480  0.1657
   51CHL1    C2 3747   2.764   5.001   6.638 -0.0740 -0.5545  0.7397
   51CHL1   H2A 3748   2.727   4.916   6.578 -2.4073  0.8928 -0.0443
   51CHL1   H2B 3749   2.874   5.005   6.651  0.0116  0.7511 -0.2082
   51CHL1   C20 3750   2.529   5.160   7.529 -0.2988 -0.1521 -0.3270
   51CHL1   H20 3751   2.630   5.195   7.559 -0.5314 -0.0591  0.3689
   51CHL1   C21 3752   2.519   5.008   7.540 -0.5175 -0.0715  0.5585
   51CHL1  H21A 3753   2.416   4.967   7.536 -0.4735 -0.1272 -0.2174
   51CHL1  H21B 3754   2.560   4.972   7.637  0.5041 -0.9793 -0.1822
   51CHL1  H21C 3755   2.585   4.956   7.467 -0.9317  0.6952 -0.3773
   51CHL1   C22 3756   2.445   5.229   7.635 -0.6912 -0.2423 -0.3777
   51CHL1  H22A 3757   2.488   5.330   7.649 -0.3185 -0.3696 -0.6052
   51CHL1  H22B 3758   2.336   5.233   7.611 -1.3046 -1.0084  1.9558
   51CHL1   C23 3759   2.460   5.161   7.774  0.0981  0.1249 -0.2183
   51CHL1  H23A 3760   2.398   5.073   7.801 -0.3262  0.8700  1.3741
   51CHL1  H23B 3761   2.569   5.145   7.789 -0.0364 -0.0221  0.6760
   51CHL1   C24 3762   2.413   5.264   7.878 -0.9136  0.2843  0.2132
   51CHL1  H24A 3763   2.484   5.346   7.854  1.8823 -2.0293 -0.0022
   51CHL1  H24B 3764   2.307   5.293   7.861 -0.5733  1.6814  0.3172
   51CHL1   C25 3765   2.423   5.217   8.028 -0.2133 -0.4638  0.3218
   51CHL1   H25 3766   2.527   5.180   8.044  0.2392 -0.0808 -1.5323
   51CHL1   C26 3767   2.385   5.330   8.130 -0.3332 -0.1942 -0.1164
   51CHL1  H26A 3768   2.405   5.304   8.236 -1.5301 -0.2458  0.1097
   51CHL1  H26B 3769   2.452   5.418   8.122 -1.4007  0.8508  1.8447
   51CHL1  H26C 3770   2.278   5.359   8.123  0.2776  1.9301 -1.5188
   51CHL1   C27 3771   2.333   5.097   8.054 -0.0805  0.1040 -0.0436
   51CHL1  H27A 3772   2.225   5.111   8.033 -0.7117 -1.3924  1.8995
   51CHL1  H27B 3773   2.370   5.017   7.986 -0.4909 -1.1770  1.2079
   51CHL1  H27C 3774   2.339   5.058   8.157  0.1105 -2.6684 -1.0297
   52CHL1    C3 3775   4.205   0.425   6.858  0.1362 -0.7959  0.8089
   52CHL1    H3 3776   4.280   0.345   6.841 -0.6491 -1.2593 -0.6334
   52CHL1    O3 3777   4.192   0.506   6.742 -0.1779  0.0845  0.0769
   52CHL1   H3' 3778   4.132   0.579   6.762  1.0315  1.1710 -0.1121
   52CHL1    C4 3779   4.080   0.347   6.901  0.4025  0.8313 -0.2194
   52CHL1   H4A 3780   3.989   0.411   6.896  1.8831  3.0822  0.1303
   52CHL1   H4B 3781   4.052   0.273   6.823  0.9224  1.3711 -0.9309
   52CHL1    C5 3782   4.101   0.269   7.032 -0.1360  0.1301  0.2068
   52CHL1    C6 3783   4.074   0.131   7.046 -0.4030  0.1376  0.2135
   52CHL1    H6 3784   4.031   0.066   6.969 -2.3669 -1.1742  2.2995
   52CHL1    C7 3785   4.097   0.059   7.175 -0.6009 -0.1561 -0.7385
   52CHL1   H7A 3786   4.017  -0.016   7.191  1.2229 -1.8124  1.1809
   52CHL1   H7B 3787   4.199   0.015   7.173  0.4090  2.0822 -2.2155
   52CHL1    C8 3788   4.088   0.157   7.292  0.1224 -0.7482 -0.6358
   52CHL1    H8 3789   3.985   0.199   7.288  0.5538  0.4677  0.3492
   52CHL1   C14 3790   4.118   0.086   7.424  0.3317 -0.3988  0.8545
   52CHL1   H14 3791   4.216   0.044   7.394  1.2638  2.7582 -0.9399
   52CHL1   C15 3792   4.023  -0.029   7.462  0.1856 -1.2358  0.4513
   52CHL1  H15A 3793   3.924   0.021   7.453 -0.6580 -3.2046 -4.9454
   52CHL1  H15B 3794   4.010  -0.122   7.403 -0.7055 -0.3163 -0.8601
   52CHL1   C16 3795   4.070  -0.063   7.602  0.8175  0.1230 -0.1246
   52CHL1  H16A 3796   3.978  -0.068   7.665  0.0855 -1.6749 -1.2519
   52CHL1  H16B 3797   4.116  -0.164   7.591  1.1815  0.4352 -1.6211
   52CHL1   C17 3798   4.168   0.052   7.649  0.3435  0.4815 -0.7182
   52CHL1   H17 3799   4.271   0.013   7.630 -0.0028 -0.4155 -0.8227
   52CHL1   C13 3800   4.136   0.166   7.551  0.0795  0.3932  0.4349
   52CHL1   C18 3801   4.003   0.247   7.576 -0.4602  0.2326 -0.0921
   52CHL1  H18A 3802   3.920   0.186   7.617  0.5870 -0.9901  0.2653
   52CHL1  H18B 3803   4.024   0.337   7.638 -0.3002  1.1398 -1.4075
   52CHL1  H18C 3804   3.968   0.292   7.480  1.5639  0.3319 -0.8388
   52CHL1   C12 3805   4.251   0.270   7.525  0.1629 -0.0106 -0.1760
   52CHL1  H12A 3806   4.273   0.330   7.615 -0.3791  1.0521 -0.7292
   52CHL1  H12B 3807   4.343   0.211   7.504  0.1559  0.6720 -2.4987
   52CHL1   C11 3808   4.228   0.347   7.398 -0.5117  0.4708 -0.4001
   52CHL1  H11A 3809   4.144   0.409   7.438 -0.0527 -0.1058  1.5578
   52CHL1  H11B 3810   4.315   0.413   7.380  1.0486 -1.4294 -0.0628
   52CHL1    C9 3811   4.190   0.273   7.273 -0.7367  0.5792 -0.0812
   52CHL1    H9 3812   4.287   0.221   7.257 -1.6263 -1.6511  1.2633
   52CHL1   C10 3813   4.160   0.361   7.148  0.6726 -0.4469 -0.1883
   52CHL1   C19 3814   4.043   0.459   7.196 -0.6083  0.2167  0.7417
   52CHL1  H19A 3815   4.000   0.522   7.115 -1.4774 -2.7891 -1.2906
   52CHL1  H19B 3816   3.958   0.408   7.246 -0.2679  0.8469  2.0043
   52CHL1  H19C 3817   4.093   0.524   7.271  3.1171 -0.5860 -0.7944
   52CHL1    C1 3818   4.279   0.446   7.106  0.7331  0.3740  0.4373
   52CHL1   H1A 3819   4.307   0.513   7.191 -0.8345 -0.1572  1.4144
   52CHL1   H1B 3820   4.363   0.381   7.075  0.8110  1.1678 -1.1040
   52CHL1    C2 3821   4.246   0.518   6.967 -0.3624  0.2121 -0.7225
   52CHL1   H2A 3822   4.348   0.549   6.937 -0.3434  0.3540 -0.5104
   52CHL1   H2B 3823   4.178   0.606   6.980  0.9140  1.0887  0.2725
   52CHL1   C20 3824   4.144   0.084   7.798  0.0013 -0.3416 -0.0289
   52CHL1   H20 3825   4.041   0.126   7.808  0.7705  1.5964  0.1542
   52CHL1   C21 3826   4.248   0.189   7.848 -0.5744 -0.5489  0.9148
   52CHL1  H21A 3827   4.262   0.189   7.958  1.8760  0.3037  0.6639
   52CHL1  H21B 3828   4.213   0.292   7.829  0.0747 -0.2219  1.4270
   52CHL1  H21C 3829   4.347   0.175   7.800 -1.7720 -1.4491 -1.4287
   52CHL1   C22 3830   4.155  -0.042   7.886  0.5911  0.1422  0.2341
   52CHL1  H22A 3831   4.094  -0.116   7.828 -1.2765  1.6104  0.2293
   52CHL1  H22B 3832   4.265  -0.059   7.884  0.5527 -0.1391  0.4570
   52CHL1   C23 3833   4.102  -0.017   8.029  0.4754 -0.4911  0.8339
   52CHL1  H23A 3834   4.159   0.065   8.077  1.2370 -0.6540  0.2097
   52CHL1  H23B 3835   3.996   0.018   8.032  0.6664  0.1847 -0.0974
   52CHL1   C24 3836   4.120  -0.140   8.113 -1.0470  0.3337  0.5366
   52CHL1  H24A 3837   4.079  -0.230   8.061  1.8577 -1.1412  0.5647
   52CHL1  H24B 3838   4.224  -0.177   8.123 -1.8708 -2.4905 -0.3141
   52CHL1   C25 3839   4.048  -0.138   8.248 -0.2079  0.0757 -0.2982
   52CHL1   H25 3840   3.940  -0.126   8.225 -0.1298  1.5836 -0.0327
   52CHL1   C26 3841   4.072  -0.271   8.326  0.2347  0.1695 -0.3606
   52CHL1  H26A 3842   4.181  -0.288   8.343  0.4262  2.6430  1.3271
   52CHL1  H26B 3843   4.026  -0.259   8.426 -0.6022 -0.0578 -0.7094
   52CHL1  H26C 3844   4.022  -0.364   8.290  2.2196 -1.2567  0.3769
   52CHL1   C27 3845   4.093  -0.013   8.329 -0.2236 -0.4182 -0.1052
   52CHL1  H27A 3846   4.032   0.002   8.421  0.9704  0.4183  0.5759
   52CHL1  H27B 3847   4.190  -0.037   8.377  0.1560  1.6801  0.2537
   52CHL1  H27C 3848   4.086   0.085   8.278 -0.9295  0.3760  1.4442
   53CHL1    C3 3849   6.270   2.667   7.092  0.1327  0.0520  0.3703
   53CHL1    H3 3850   6.305   2.567   7.124 -0.2966  0.1199  1.0616
   53CHL1    O3 3851   6.216   2.659   6.961  0.3886  0.0259  0.4986
   53CHL1   H3' 3852   6.274   2.712   6.904 -1.7784  0.3070 -1.6187
   53CHL1    C4 3853   6.150   2.689   7.178  0.4037  0.8564 -0.4089
   53CHL1   H4A 3854   6.093   2.783   7.161 -0.4358  0.6332  0.9474
   53CHL1   H4B 3855   6.074   2.610   7.158  0.3002  1.3328 -1.9979
   53CHL1    C5 3856   6.194   2.696   7.321  0.5035 -0.5717  0.0515
   53CHL1    C6 3857   6.157   2.616   7.420  0.4070 -0.6941 -0.3431
   53CHL1    H6 3858   6.088   2.534   7.392 -0.3003  0.1890 -1.2790
   53CHL1    C7 3859   6.195   2.618   7.568 -0.6582 -0.3464  0.0462
   53CHL1   H7A 3860   6.111   2.598   7.637 -2.1175 -0.6536 -1.7431
   53CHL1   H7B 3861   6.286   2.557   7.586  1.0996  2.7481  2.7874
   53CHL1    C8 3862   6.257   2.764   7.599  0.2402 -0.0893 -0.5701
   53CHL1    H8 3863   6.177   2.840   7.592  0.5973  0.1790 -2.2071
   53CHL1   C14 3864   6.324   2.764   7.740 -0.4895 -0.1401  0.2667
   53CHL1   H14 3865   6.414   2.700   7.731  0.1721  0.9039 -0.7193
   53CHL1   C15 3866   6.243   2.713   7.857  0.3837  0.1711 -0.5421
   53CHL1  H15A 3867   6.146   2.765   7.843 -1.6210 -2.4525  2.2764
   53CHL1  H15B 3868   6.233   2.602   7.846 -1.7828  0.3369 -0.7226
   53CHL1   C16 3869   6.323   2.765   7.982  0.4011 -0.2971  0.1536
   53CHL1  H16A 3870   6.247   2.805   8.052  1.0813 -2.5184  2.3017
   53CHL1  H16B 3871   6.369   2.675   8.029 -0.1522 -1.6334 -1.7373
   53CHL1   C17 3872   6.436   2.855   7.926 -0.0211 -0.0106 -0.3894
   53CHL1   H17 3873   6.522   2.785   7.915 -0.1539 -0.0305 -1.3994
   53CHL1   C13 3874   6.389   2.896   7.785  0.5484 -0.5046  0.0112
   53CHL1   C18 3875   6.282   3.010   7.785 -0.0059 -0.0776 -1.0380
   53CHL1  H18A 3876   6.329   3.110   7.792 -1.4592  0.5225  0.6585
   53CHL1  H18B 3877   6.224   3.021   7.691 -1.8481  2.1051  0.2533
   53CHL1  H18C 3878   6.219   3.013   7.876  3.3478 -2.7881  1.6390
   53CHL1   C12 3879   6.499   2.924   7.677  0.2690 -0.6160  0.4414
   53CHL1  H12A 3880   6.549   3.021   7.698 -0.8800  0.2905 -0.8878
   53CHL1  H12B 3881   6.558   2.830   7.685 -2.0708 -2.1303  1.1105
   53CHL1   C11 3882   6.445   2.930   7.536 -0.0064  0.0522  0.1475
   53CHL1  H11A 3883   6.383   3.021   7.545  0.6987  0.4787  0.8040
   53CHL1  H11B 3884   6.529   2.942   7.465 -0.6119 -0.7583 -0.7342
   53CHL1    C9 3885   6.358   2.805   7.494  0.0310  0.2179 -0.0061
   53CHL1    H9 3886   6.426   2.717   7.494 -0.1926  0.0311  1.1534
   53CHL1   C10 3887   6.291   2.816   7.352 -0.1339 -0.4285  0.1734
   53CHL1   C19 3888   6.219   2.952   7.333  0.5828  0.0360  0.2746
   53CHL1  H19A 3889   6.196   2.963   7.225  2.2762 -3.5545 -0.5980
   53CHL1  H19B 3890   6.125   2.958   7.392 -0.3460  1.4413 -1.2668
   53CHL1  H19C 3891   6.270   3.045   7.366 -3.0574  2.5883 -0.6120
   53CHL1    C1 3892   6.417   2.812   7.251 -0.1967  0.2218 -0.0344
   53CHL1   H1A 3893   6.464   2.913   7.253  1.0610 -0.3539  0.2689
   53CHL1   H1B 3894   6.492   2.737   7.282  0.8916  0.5640 -1.7037
   53CHL1    C2 3895   6.370   2.781   7.112 -0.2090  0.6153  0.2877
   53CHL1   H2A 3896   6.457   2.760   7.047 -2.2730 -1.6611 -1.9557
   53CHL1   H2B 3897   6.317   2.871   7.074 -0.4420  0.7652  0.9503
   53CHL1   C20 3898   6.482   2.967   8.022 -0.4822 -0.2195  1.4548
   53CHL1   H20 3899   6.412   3.053   8.015 -0.0819 -0.0110 -0.4158
   53CHL1   C21 3900   6.619   3.019   7.971  0.0607  0.2908 -0.7035
   53CHL1  H21A 3901   6.594   3.108   7.909 -0.1565  0.7929  0.0902
   53CHL1  H21B 3902   6.681   2.936   7.930  3.0598  1.5325  1.0031
   53CHL1  H21C 3903   6.688   3.059   8.047 -0.0854  0.0898 -0.4654
   53CHL1   C22 3904   6.482   2.935   8.168 -0.3124 -0.8247  0.3803
   53CHL1  H22A 3905   6.399   2.871   8.205 -1.2574  0.8981  1.3286
   53CHL1  H22B 3906   6.575   2.875   8.179 -0.2976 -0.4648  2.4795
   53CHL1   C23 3907   6.487   3.069   8.255  1.1291  0.4062 -0.5234
   53CHL1  H23A 3908   6.588   3.114   8.242  0.9438  0.5832 -1.4255
   53CHL1  H23B 3909   6.411   3.144   8.225  1.2678  1.7602  2.2084
   53CHL1   C24 3910   6.472   3.036   8.403  0.6331  0.1037  0.4201
   53CHL1  H24A 3911   6.370   3.000   8.430  0.7578 -0.2676  0.3999
   53CHL1  H24B 3912   6.547   2.964   8.442  0.5629  0.1592  0.6608
   53CHL1   C25 3913   6.488   3.161   8.495 -0.6367  0.3932 -0.2114
   53CHL1   H25 3914   6.435   3.246   8.446  0.3018  0.6587 -0.7884
   53CHL1   C26 3915   6.415   3.143   8.629  0.1352 -0.3482 -0.3116
   53CHL1  H26A 3916   6.313   3.105   8.608 -0.8409  0.8987  1.7652
   53CHL1  H26B 3917   6.473   3.067   8.686  0.1451 -0.7134 -0.8046
   53CHL1  H26C 3918   6.409   3.238   8.686  0.1939 -0.8885  0.6316
   53CHL1   C27 3919   6.637   3.199   8.507 -0.4402  0.1294  0.5470
   53CHL1  H27A 3920   6.684   3.206   8.406  1.6896 -0.2886  1.4505
   53CHL1  H27B 3921   6.655   3.298   8.553 -0.7897 -0.3426  1.7412
   53CHL1  H27C 3922   6.694   3.126   8.569  0.7838  0.7043  0.1292
   54CHL1    C3 3923   0.980   4.096   6.838  0.0743  1.2796  0.2174
   54CHL1    H3 3924   1.073   4.042   6.869 -0.8495  0.3354  1.4622
   54CHL1    O3 3925   0.973   4.105   6.698  0.1067  0.6135  0.3074
   54CHL1   H3' 3926   0.897   4.047   6.691 -0.9860  1.7403  1.9139
   54CHL1    C4 3927   0.859   4.016   6.892 -0.4220  0.7513 -0.4757
   54CHL1   H4A 3928   0.762   4.060   6.858 -0.8376 -1.1538 -1.9286
   54CHL1   H4B 3929   0.869   3.915   6.848 -1.6040 -0.0404  0.9925
   54CHL1    C5 3930   0.849   4.008   7.043 -0.3545 -0.3147  0.2393
   54CHL1    C6 3931   0.836   3.892   7.100 -0.2725 -0.3241  0.1866
   54CHL1    H6 3932   0.821   3.807   7.033 -1.8496 -0.0232  0.1172
   54CHL1    C7 3933   0.834   3.863   7.248  0.4517 -0.2542 -0.0458
   54CHL1   H7A 3934   0.749   3.793   7.262  0.0082  0.0154 -1.2762
   54CHL1   H7B 3935   0.923   3.806   7.280 -0.2914 -1.6468 -0.4040
   54CHL1    C8 3936   0.808   3.995   7.323  0.1145  1.0132 -0.4955
   54CHL1    H8 3937   0.701   4.024   7.312 -0.9168 -1.5924  1.4851
   54CHL1   C14 3938   0.835   3.970   7.470 -0.5129 -0.8419 -0.4213
   54CHL1   H14 3939   0.942   3.940   7.472 -0.2936 -0.1584 -1.2275
   54CHL1   C15 3940   0.761   3.860   7.544  0.0627 -0.1301  0.0597
   54CHL1  H15A 3941   0.654   3.868   7.515 -0.0431  0.4878  0.5978
   54CHL1  H15B 3942   0.792   3.755   7.526  0.2849 -0.2509  1.0960
   54CHL1   C16 3943   0.769   3.885   7.696  0.1343 -0.0197 -0.1232
   54CHL1  H16A 3944   0.668   3.898   7.739  0.1131 -1.3605  0.2825
   54CHL1  H16B 3945   0.834   3.813   7.751 -2.3926 -2.4138 -0.0281
   54CHL1   C17 3946   0.841   4.024   7.708 -0.1102 -0.2906  0.3193
   54CHL1   H17 3947   0.951   4.011   7.713  0.0199  1.1513  2.4275
   54CHL1   C13 3948   0.825   4.095   7.561  0.7307  0.7114 -0.2726
   54CHL1   C18 3949   0.686   4.161   7.555 -0.2712 -0.5152  0.0082
   54CHL1  H18A 3950   0.698   4.260   7.605 -1.9888 -1.2207  1.9825
   54CHL1  H18B 3951   0.644   4.175   7.453  0.5221 -2.2043 -0.5860
   54CHL1  H18C 3952   0.612   4.105   7.616 -0.0786  0.7022  1.4203
   54CHL1   C12 3953   0.926   4.193   7.512  0.3919  0.1608 -0.1793
   54CHL1  H12A 3954   0.921   4.288   7.568  0.6869 -0.7461  1.4599
   54CHL1  H12B 3955   1.031   4.157   7.517  0.0203 -0.9805 -0.2873
   54CHL1   C11 3956   0.909   4.235   7.363  0.1233 -0.3569  0.7507
   54CHL1  H11A 3957   0.823   4.305   7.354  2.0866  2.1093 -0.0414
   54CHL1  H11B 3958   1.000   4.286   7.324  0.6991 -0.9478  1.2982
   54CHL1    C9 3959   0.896   4.110   7.274  0.0096  0.2167  0.5778
   54CHL1    H9 3960   0.997   4.065   7.283  0.2933  0.0387 -2.5037
   54CHL1   C10 3961   0.883   4.135   7.121 -0.7787 -0.2858  0.4430
   54CHL1   C19 3962   0.753   4.217   7.101 -0.1137 -0.6619 -0.1401
   54CHL1  H19A 3963   0.663   4.186   7.158 -0.2787  0.7573  0.4025
   54CHL1  H19B 3964   0.773   4.320   7.137  2.0209 -0.8793 -0.5457
   54CHL1  H19C 3965   0.734   4.246   6.995  1.4378  3.3030  0.4827
   54CHL1    C1 3966   1.005   4.211   7.054  0.2364 -0.3532 -0.0402
   54CHL1   H1A 3967   1.015   4.308   7.108  0.2124 -1.2557  1.6760
   54CHL1   H1B 3968   1.096   4.149   7.071  0.3666 -0.0255  0.5044
   54CHL1    C2 3969   0.990   4.233   6.900  0.1651 -0.6400  0.4698
   54CHL1   H2A 3970   1.083   4.284   6.865  0.6306 -1.2303  0.8332
   54CHL1   H2B 3971   0.904   4.302   6.882  0.5230  0.0490  1.3549
   54CHL1   C20 3972   0.808   4.112   7.828  0.1314  0.0408  0.6169
   54CHL1   H20 3973   0.732   4.189   7.800  0.1034 -0.4517 -0.7505
   54CHL1   C21 3974   0.930   4.194   7.867 -0.6385  0.3471  0.2807
   54CHL1  H21A 3975   0.981   4.149   7.954 -1.9878 -1.4145  0.2208
   54CHL1  H21B 3976   0.915   4.301   7.892  2.8234  0.6117  1.7608
   54CHL1  H21C 3977   1.001   4.195   7.781 -0.3559 -1.9159  0.4240
   54CHL1   C22 3978   0.756   4.042   7.954  0.0670  0.4011 -0.4704
   54CHL1  H22A 3979   0.665   3.979   7.941 -0.3840  0.4904  1.7896
   54CHL1  H22B 3980   0.833   3.968   7.983  0.8773  1.6880  0.7668
   54CHL1   C23 3981   0.725   4.138   8.073 -0.9693  0.0297  0.6960
   54CHL1  H23A 3982   0.798   4.220   8.095 -1.9926  0.6327  1.9723
   54CHL1  H23B 3983   0.629   4.187   8.048  0.4196  1.1661 -3.1461
   54CHL1   C24 3984   0.720   4.057   8.202  0.3101  0.4024 -0.6783
   54CHL1  H24A 3985   0.628   3.995   8.204  0.7127 -0.2282  1.9867
   54CHL1  H24B 3986   0.803   3.982   8.202 -0.0042  0.0161  1.2419
   54CHL1   C25 3987   0.712   4.129   8.337  0.0365 -0.4333  0.5790
   54CHL1   H25 3988   0.637   4.212   8.336  0.7457  0.2750 -2.0175
   54CHL1   C26 3989   0.672   4.047   8.458  0.4078 -0.5168 -0.3863
   54CHL1  H26A 3990   0.572   4.002   8.444  0.7817 -1.0664 -1.3808
   54CHL1  H26B 3991   0.737   3.958   8.474 -0.5239 -0.7389  2.9834
   54CHL1  H26C 3992   0.657   4.106   8.551 -1.2887  1.9699 -2.1198
   54CHL1   C27 3993   0.849   4.183   8.375 -0.4719 -0.0956  0.5737
   54CHL1  H27A 3994   0.923   4.106   8.406  0.2846  0.7542  0.9365
   54CHL1  H27B 3995   0.883   4.248   8.292  1.5122 -2.2423 -0.4121
   54CHL1  H27C 3996   0.839   4.249   8.464  2.1478  0.0996  0.8094
   55CHL1    C3 3997   0.158   5.164   7.044  0.3862  0.8077  0.2105
   55CHL1    H3 3998   0.228   5.244   7.077 -0.5658  0.9952  1.9047
   55CHL1    O3 3999   0.174   5.145   6.905  0.2202  0.1989  0.6993
   55CHL1   H3' 4000   0.180   5.234   6.870 -0.3401 -1.0890 -3.1901
   55CHL1    C4 4001   0.179   5.029   7.115 -0.0590 -0.1141  0.2944
   55CHL1   H4A 4002   0.113   4.965   7.053 -0.5845  0.4234  0.2948
   55CHL1   H4B 4003   0.288   5.009   7.103 -0.0782  1.0822 -2.5526
   55CHL1    C5 4004   0.143   5.033   7.263  0.5577  0.6353 -0.3038
   55CHL1    C6 4005   0.234   5.000   7.362  0.2911 -0.4267  0.2740
   55CHL1    H6 4006   0.322   4.949   7.320 -1.2596 -1.2373 -2.1955
   55CHL1    C7 4007   0.204   4.985   7.510  0.5890 -0.3971  0.5509
   55CHL1   H7A 4008   0.221   4.881   7.547 -3.5358 -0.1956  3.8239
   55CHL1   H7B 4009   0.264   5.046   7.581 -1.0095  2.1596 -0.1888
   55CHL1    C8 4010   0.054   5.010   7.546 -0.6562 -0.0616  0.4183
   55CHL1    H8 4011  -0.002   4.918   7.518 -2.9567  0.7579  2.0535
   55CHL1   C14 4012   0.035   5.033   7.688  0.4903  0.3512 -0.3253
   55CHL1   H14 4013   0.084   5.131   7.706 -1.1817  0.9943  1.0569
   55CHL1   C15 4014   0.112   4.940   7.793  0.4428 -0.8918  0.0377
   55CHL1  H15A 4015   0.074   4.839   7.768  0.0889 -0.7304 -0.0728
   55CHL1  H15B 4016   0.222   4.953   7.785  0.4647 -2.1833 -3.3689
   55CHL1   C16 4017   0.041   4.986   7.927 -0.0686 -0.3493  0.4102
   55CHL1  H16A 4018  -0.006   4.893   7.965 -1.1211 -0.6425 -1.4771
   55CHL1  H16B 4019   0.112   5.008   8.010 -2.4747 -1.2982  2.8914
   55CHL1   C17 4020  -0.066   5.098   7.895  0.3045  0.7938 -0.2006
   55CHL1   H17 4021  -0.010   5.193   7.910  0.7088  0.0802  3.8317
   55CHL1   C13 4022  -0.098   5.070   7.739 -0.1907 -0.2022  0.7487
   55CHL1   C18 4023  -0.191   4.947   7.738  0.5088 -1.0335  0.3124
   55CHL1  H18A 4024  -0.297   4.975   7.757  0.8842 -0.6469  1.9267
   55CHL1  H18B 4025  -0.180   4.900   7.638  1.2824  0.3324 -0.2634
   55CHL1  H18C 4026  -0.155   4.869   7.809  2.8416  1.2330  1.7817
   55CHL1   C12 4027  -0.162   5.187   7.655 -0.8835  0.1688 -0.7968
   55CHL1  H12A 4028  -0.271   5.197   7.673 -0.7489 -0.3623  0.3818
   55CHL1  H12B 4029  -0.103   5.277   7.683 -2.2625  0.0931  3.0348
   55CHL1   C11 4030  -0.150   5.154   7.503 -0.2126 -0.3901 -0.1972
   55CHL1  H11A 4031  -0.215   5.067   7.478  0.9414 -0.8180 -1.8714
   55CHL1  H11B 4032  -0.190   5.243   7.450 -1.3960  0.1486  1.5199
   55CHL1    C9 4033  -0.011   5.118   7.453 -0.0238 -0.4257  0.2181
   55CHL1    H9 4034   0.062   5.201   7.464 -0.8475  0.2291  0.8767
   55CHL1   C10 4035   0.002   5.090   7.301  0.6540 -0.1704 -0.2557
   55CHL1   C19 4036  -0.111   4.984   7.258  0.6996 -0.0102  0.3715
   55CHL1  H19A 4037  -0.214   5.027   7.259  1.6353  2.3670  1.2387
   55CHL1  H19B 4038  -0.090   4.933   7.162 -2.9311 -2.3093  0.6154
   55CHL1  H19C 4039  -0.105   4.908   7.338 -0.0911  0.0802  0.5333
   55CHL1    C1 4040  -0.030   5.216   7.212 -0.0626 -0.3338 -0.4338
   55CHL1   H1A 4041  -0.135   5.249   7.223  0.5996  2.3712 -1.3667
   55CHL1   H1B 4042   0.032   5.303   7.244 -0.3732  0.5227 -2.0590
   55CHL1    C2 4043   0.007   5.197   7.062 -0.4451 -0.1803  0.5469
   55CHL1   H2A 4044  -0.004   5.296   7.012 -1.8302 -1.1382 -1.1291
   55CHL1   H2B 4045  -0.064   5.123   7.019 -0.6051 -0.1938  0.8269
   55CHL1   C20 4046  -0.182   5.096   7.996  0.5352 -0.3824  0.5673
   55CHL1   H20 4047  -0.247   5.007   7.981  1.8649 -1.5805  1.6964
   55CHL1   C21 4048  -0.270   5.224   7.966  0.3450  0.5381  0.3368
   55CHL1  H21A 4049  -0.309   5.230   7.863  2.2703 -1.9019 -0.6498
   55CHL1  H21B 4050  -0.208   5.316   7.973  2.4410 -0.7157 -0.6539
   55CHL1  H21C 4051  -0.360   5.234   8.031  0.2085  2.9882 -0.1434
   55CHL1   C22 4052  -0.122   5.104   8.141  0.4928 -0.4658  0.2538
   55CHL1  H22A 4053  -0.076   5.004   8.150  2.9973  0.3229 -2.2283
   55CHL1  H22B 4054  -0.053   5.191   8.140 -1.9500  1.6300  0.6991
   55CHL1   C23 4055  -0.226   5.137   8.248 -0.0003 -0.2351  0.2911
   55CHL1  H23A 4056  -0.263   5.241   8.254  2.8694  1.1394 -2.8304
   55CHL1  H23B 4057  -0.306   5.059   8.242 -0.5958  0.4406 -0.9138
   55CHL1   C24 4058  -0.176   5.111   8.388  0.7483  0.0946  0.0823
   55CHL1  H24A 4059  -0.168   5.002   8.408  0.9137  0.1949  0.5891
   55CHL1  H24B 4060  -0.072   5.140   8.414  0.5004 -0.9895  2.5757
   55CHL1   C25 4061  -0.260   5.180   8.496 -0.0771  0.6452  0.5234
   55CHL1   H25 4062  -0.287   5.278   8.451  1.8621  0.6831 -0.6580
   55CHL1   C26 4063  -0.392   5.103   8.514  0.5423 -0.2175 -0.2469
   55CHL1  H26A 4064  -0.447   5.094   8.418  1.2025  2.8156 -1.0170
   55CHL1  H26B 4065  -0.382   4.993   8.529  0.2308 -0.4944 -1.8315
   55CHL1  H26C 4066  -0.457   5.151   8.590  1.6811 -0.1159  0.6826
   55CHL1   C27 4067  -0.182   5.210   8.623 -0.1286  0.4744  0.8850
   55CHL1  H27A 4068  -0.095   5.278   8.618  1.1917 -1.1507 -4.1219
   55CHL1  H27B 4069  -0.249   5.261   8.696 -0.7535  1.3562 -0.2665
   55CHL1  H27C 4070  -0.146   5.117   8.673 -0.9806  0.5504  1.6881
   56CHL1    C3 4071   3.408   3.977   6.714  0.2416  0.6584 -0.1266
   56CHL1    H3 4072   3.477   3.891   6.726 -0.5100  0.2209  1.3231
   56CHL1    O3 4073   3.360   4.005   6.580 -0.3107  0.9169 -0.0328
   56CHL1   H3' 4074   3.292   4.072   6.594  0.4347  1.3986  1.5069
   56CHL1    C4 4075   3.282   3.944   6.797  0.6159  0.0868 -0.0679
   56CHL1   H4A 4076   3.210   4.024   6.772 -0.6432 -0.1390  2.4771
   56CHL1   H4B 4077   3.232   3.850   6.764 -0.9338  0.9408 -0.2036
   56CHL1    C5 4078   3.291   3.950   6.949 -0.1578  0.6487  0.8345
   56CHL1    C6 4079   3.236   3.849   7.030  0.2754  0.1777  0.0409
   56CHL1    H6 4080   3.190   3.761   6.983 -0.5163  1.4884 -1.7363
   56CHL1    C7 4081   3.230   3.859   7.181  0.4000  0.3129 -0.0216
   56CHL1   H7A 4082   3.122   3.858   7.209  0.2592 -2.1880 -0.4159
   56CHL1   H7B 4083   3.287   3.777   7.229  1.1917  1.3257  0.8058
   56CHL1    C8 4084   3.287   3.995   7.242  0.3019  0.9680 -0.2790
   56CHL1    H8 4085   3.201   4.063   7.227 -0.0819  0.3189 -1.1113
   56CHL1   C14 4086   3.333   3.986   7.385  0.3041 -1.2963 -0.3603
   56CHL1   H14 4087   3.424   3.922   7.392 -0.4308 -2.2736  0.8489
   56CHL1   C15 4088   3.240   3.902   7.477  0.0571  0.3870 -0.0117
   56CHL1  H15A 4089   3.132   3.924   7.462 -0.2700  0.5914  2.2106
   56CHL1  H15B 4090   3.251   3.793   7.457  0.6662  0.2922  0.7664
   56CHL1   C16 4091   3.287   3.943   7.615  0.3811 -0.1853  0.7851
   56CHL1  H16A 4092   3.206   3.955   7.689 -1.2990  2.5279 -1.3331
   56CHL1  H16B 4093   3.349   3.856   7.646  2.9683  1.2785  0.0316
   56CHL1   C17 4094   3.387   4.061   7.594 -0.2936 -0.7303 -0.1723
   56CHL1   H17 4095   3.491   4.022   7.599 -0.0860 -0.0149  2.1371
   56CHL1   C13 4096   3.360   4.120   7.448 -0.1199 -0.1482 -0.7266
   56CHL1   C18 4097   3.243   4.224   7.440 -0.3847  0.3782 -0.0570
   56CHL1  H18A 4098   3.273   4.324   7.479 -1.2685  0.7925 -0.4073
   56CHL1  H18B 4099   3.211   4.242   7.335  1.6503 -0.1088 -0.7996
   56CHL1  H18C 4100   3.159   4.193   7.505 -1.2843  0.7222 -1.0257
   56CHL1   C12 4101   3.486   4.164   7.380 -0.3684 -0.2546 -0.3632
   56CHL1  H12A 4102   3.504   4.265   7.422 -1.6670 -1.5266  3.7263
   56CHL1  H12B 4103   3.573   4.097   7.399 -1.4358 -1.4725  0.3952
   56CHL1   C11 4104   3.470   4.176   7.233 -0.2674  0.0655  0.6192
   56CHL1  H11A 4105   3.407   4.262   7.201  0.7138 -0.0404 -1.8041
   56CHL1  H11B 4106   3.571   4.190   7.192  0.8416 -3.4428  1.7322
   56CHL1    C9 4107   3.406   4.047   7.162 -0.6010  0.1364  0.0260
   56CHL1    H9 4108   3.478   3.963   7.164  0.2352  0.8131  2.5353
   56CHL1   C10 4109   3.367   4.070   7.007  0.6587  0.0766 -0.5171
   56CHL1   C19 4110   3.280   4.199   6.986 -0.4378 -0.3128 -0.3199
   56CHL1  H19A 4111   3.193   4.197   7.055  0.1841  1.2007  0.5600
   56CHL1  H19B 4112   3.342   4.290   7.003 -1.1364  0.4814 -1.7658
   56CHL1  H19C 4113   3.254   4.206   6.878  0.2117  0.5623 -0.4276
   56CHL1    C1 4114   3.499   4.095   6.925 -0.3282  0.1512 -0.8364
   56CHL1   H1A 4115   3.547   4.189   6.960 -1.7688  0.5120  0.2358
   56CHL1   H1B 4116   3.572   4.014   6.949 -1.4645  0.0427  2.8293
   56CHL1    C2 4117   3.475   4.099   6.771 -0.0216  0.4518  0.1868
   56CHL1   H2A 4118   3.573   4.114   6.720 -0.7194 -1.3539 -1.8978
   56CHL1   H2B 4119   3.406   4.183   6.751 -0.5795 -0.2224 -0.8461
   56CHL1   C20 4120   3.391   4.170   7.710 -0.5942  0.1298 -0.1392
   56CHL1   H20 4121   3.303   4.237   7.694 -1.5820 -0.8341  1.0672
   56CHL1   C21 4122   3.523   4.253   7.702  0.4704 -0.4678  0.7108
   56CHL1  H21A 4123   3.527   4.319   7.613 -0.7856  0.4867  1.3247
   56CHL1  H21B 4124   3.619   4.196   7.708  0.1299 -1.3046 -1.0476
   56CHL1  H21C 4125   3.521   4.326   7.785 -1.5031 -0.9974  1.1707
   56CHL1   C22 4126   3.375   4.116   7.855  0.2048 -0.0816  0.2641
   56CHL1  H22A 4127   3.283   4.053   7.850  1.5688 -2.2291  0.9305
   56CHL1  H22B 4128   3.464   4.058   7.886 -0.0971 -0.1905  0.9375
   56CHL1   C23 4129   3.349   4.222   7.961 -0.7147 -0.3038 -0.0818
   56CHL1  H23A 4130   3.451   4.253   7.992  0.7001 -2.4962 -2.1777
   56CHL1  H23B 4131   3.283   4.300   7.917 -2.0885 -0.7212  1.1445
   56CHL1   C24 4132   3.270   4.160   8.078 -0.0375 -0.1862 -0.2913
   56CHL1  H24A 4133   3.164   4.147   8.044 -0.0992  1.7611 -0.9376
   56CHL1  H24B 4134   3.303   4.057   8.104 -0.4358  0.1367  1.6605
   56CHL1   C25 4135   3.266   4.252   8.209 -0.0089 -0.3168  1.0864
   56CHL1   H25 4136   3.246   4.357   8.179  1.6166 -0.0177  0.9145
   56CHL1   C26 4137   3.159   4.214   8.303 -0.5708 -0.1115  1.0879
   56CHL1  H26A 4138   3.153   4.288   8.385 -1.3497  1.3874 -0.2540
   56CHL1  H26B 4139   3.183   4.113   8.342 -0.2079  0.0152  1.1977
   56CHL1  H26C 4140   3.067   4.206   8.241  0.9979 -0.4503 -1.3718
   56CHL1   C27 4141   3.400   4.263   8.271 -0.4819 -0.6266 -0.6535
   56CHL1  H27A 4142   3.469   4.307   8.197 -0.6091 -1.2380 -1.1414
   56CHL1  H27B 4143   3.393   4.321   8.366  2.3531 -1.7996  0.3861
   56CHL1  H27C 4144   3.435   4.164   8.305  0.8107  0.0090 -0.0566
   57SAPC     N 4145   5.203   4.639  10.945 -0.1626 -0.0886  0.0671
   57SAPC   C12 4146   5.257   4.771  10.997 -0.3570  0.3439  0.0924
   57SAPC  H12A 4147   5.331   4.749  11.072 -1.5384 -1.7064  0.7493
   57SAPC  H12B 4148   5.177   4.819  11.050 -0.5476 -0.9974  1.0751
   57SAPC   C13 4149   5.082   4.661  10.864 -0.3496 -0.1347  0.3922
   57SAPC  H13A 4150   5.095   4.717  10.772  0.1242 -0.1308  0.4618
   57SAPC  H13B 4151   5.038   4.568  10.832 -1.1181  0.0867  0.7720
   57SAPC  H13C 4152   5.004   4.717  10.913 -1.6386  0.4902 -2.1601
   57SAPC   C14 4153   5.301   4.564  10.855 -0.4163  0.4943  0.4097
   57SAPC  H14A 4154   5.256   4.483  10.800 -0.3066  1.0470 -0.5130
   57SAPC  H14B 4155   5.327   4.638  10.781 -0.0380  0.9765  1.0100
   57SAPC  H14C 4156   5.388   4.534  10.911 -0.9391 -0.2437  0.8461
   57SAPC   C15 4157   5.162   4.549  11.065 -0.2415 -0.6193 -0.2695
   57SAPC  H15A 4158   5.130   4.451  11.031 -0.3012 -1.2385  1.4926
   57SAPC  H15B 4159   5.251   4.529  11.123  0.0409  1.2838 -0.0104
   57SAPC  H15C 4160   5.084   4.606  11.111  1.5145  1.5075  0.2540
   57SAPC   C11 4161   5.317   4.872  10.902 -0.3990 -0.0660 -0.2620
   57SAPC  H11A 4162   5.322   4.976  10.941 -0.8808  0.6096 -1.9327
   57SAPC  H11B 4163   5.256   4.874  10.809 -0.1396 -1.3803 -0.4864
   57SAPC     P 4164   5.576   4.865  10.955 -0.1242 -0.0503  0.1494
   57SAPC   O13 4165   5.555   4.978  11.048  0.7624 -0.1547 -0.2673
   57SAPC   O14 4166   5.619   4.738  11.025 -0.4432  0.4208 -0.1560
   57SAPC   O12 4167   5.447   4.825  10.859  0.4343  0.8872 -0.4539
   57SAPC   O11 4168   5.683   4.918  10.845  0.3603  0.6155 -0.5672
   57SAPC    C1 4169   5.745   4.837  10.751 -1.1544  0.2123  0.5811
   57SAPC    HA 4170   5.854   4.853  10.740 -1.3108  1.6542  0.8347
   57SAPC    HB 4171   5.736   4.727  10.763  0.2323  0.1129  0.8086
   57SAPC    C2 4172   5.683   4.853  10.610  0.2960  0.3005  0.0606
   57SAPC    HS 4173   5.573   4.840  10.617  0.4037 -0.9065 -0.2440
   57SAPC   O21 4174   5.744   4.756  10.526 -0.5994 -0.0051  0.3718
   57SAPC   C21 4175   5.665   4.697  10.444  0.0547  0.0397  0.1438
   57SAPC   O22 4176   5.540   4.710  10.440  0.5887  0.0229  0.3124
   57SAPC   C22 4177   5.759   4.629  10.340  1.0683  1.0215  0.2655
   57SAPC   H2R 4178   5.853   4.601  10.393 -0.0704 -2.3102  0.8131
   57SAPC   H2S 4179   5.716   4.526  10.337  2.9608  0.0839  2.1857
   57SAPC    C3 4180   5.714   4.996  10.554 -0.2617  0.2308 -0.1030
   57SAPC    HX 4181   5.824   5.012  10.557 -0.3701  0.8150  1.8749
   57SAPC    HY 4182   5.664   5.065  10.625  0.5242 -0.5700  1.2790
   57SAPC   O31 4183   5.679   5.013  10.410 -0.3119  0.2012 -0.2829
   57SAPC   C31 4184   5.558   5.043  10.388  0.2537 -0.3630  0.4511
   57SAPC   O32 4185   5.480   5.086  10.470 -0.3648  0.2455 -0.0159
   57SAPC   C32 4186   5.526   5.031  10.237  0.4062 -0.8504 -0.7648
   57SAPC   H2X 4187   5.597   4.957  10.194  1.2769 -0.1211 -0.5967
   57SAPC   H2Y 4188   5.551   5.128  10.189 -0.5627 -1.2862 -2.2399
   57SAPC   C23 4189   5.770   4.697  10.210 -0.0841 -0.1222  0.2602
   57SAPC   H3R 4190   5.804   4.801  10.227 -2.3678  0.5078  1.2939
   57SAPC   H3S 4191   5.672   4.707  10.159 -0.0173  1.1245  0.3507
   57SAPC   C24 4192   5.883   4.634  10.120  0.3353  0.1120  0.0352
   57SAPC   H4R 4193   5.985   4.647  10.162  1.5097 -0.4861 -2.4307
   57SAPC   H4S 4194   5.878   4.692  10.025 -0.8202 -2.1595 -1.3618
   57SAPC   C25 4195   5.844   4.499  10.090  0.2106  0.0775  0.0502
   57SAPC   H5R 4196   5.852   4.435  10.179 -0.2647  2.3283  1.7957
   57SAPC   C26 4197   5.815   4.446   9.965 -0.6581 -0.1540 -0.3717
   57SAPC   H6R 4198   5.773   4.346   9.949 -2.2390  0.0421  2.0026
   57SAPC   C27 4199   5.822   4.525   9.832  0.3126  0.2181 -0.9498
   57SAPC   H7R 4200   5.842   4.453   9.749  1.6247 -1.4882  0.7497
   57SAPC   H7S 4201   5.897   4.607   9.836  0.3823  0.1318 -0.4211
   57SAPC   C28 4202   5.685   4.592   9.801  0.0756  0.8195 -0.1468
   57SAPC   H8R 4203   5.603   4.565   9.868  0.0710  0.0163 -0.4706
   57SAPC   C29 4204   5.657   4.673   9.695 -0.2371  0.1862  0.4002
   57SAPC   H9R 4205   5.567   4.737   9.695 -0.6381 -0.3426  1.5960
   57SAPC  C210 4206   5.753   4.703   9.580  0.1627  0.7515  0.4438
   57SAPC  H10R 4207   5.857   4.665   9.589  0.9274  1.8294 -2.5397
   57SAPC  H10S 4208   5.770   4.812   9.593  0.0429  0.4777  3.6406
   57SAPC  C211 4209   5.679   4.673   9.452  0.4684  1.1213 -0.0296
   57SAPC  H11R 4210   5.604   4.594   9.463  1.4587  0.3357  1.4169
   57SAPC  C212 4211   5.691   4.732   9.332 -0.7222  0.3384  0.1976
   57SAPC  H12R 4212   5.629   4.703   9.246  0.2936 -0.5407 -0.2778
   57SAPC  C213 4213   5.791   4.838   9.297 -0.0012 -0.6598  0.8577
   57SAPC  H13R 4214   5.873   4.804   9.230  1.5041  2.6518  0.8169
   57SAPC  H13S 4215   5.837   4.879   9.390 -0.0907  0.2317  0.5145
   57SAPC  C214 4216   5.710   4.948   9.237  0.1044 -0.5673 -0.0968
   57SAPC  H14R 4217   5.665   5.021   9.307 -1.1201  1.3623 -2.7158
   57SAPC  C215 4218   5.689   4.965   9.106 -0.2863 -0.4121 -0.2117
   57SAPC  H15R 4219   5.626   5.050   9.075  0.0967  0.2420  0.7492
   57SAPC  C216 4220   5.744   4.882   8.993 -0.4111 -0.2540  0.6323
   57SAPC  H16R 4221   5.658   4.836   8.939 -1.0068 -1.3416  2.4223
   57SAPC  H16S 4222   5.811   4.796   9.015 -0.1959 -0.6239 -1.3492
   57SAPC  C217 4223   5.818   4.967   8.888  0.1777 -0.7274 -0.0104
   57SAPC  H17R 4224   5.745   5.035   8.839 -2.0529 -0.5088  3.3161
   57SAPC  H17S 4225   5.862   4.898   8.812  1.6150  0.2944 -0.1518
   57SAPC  C218 4226   5.941   5.035   8.940 -0.1046 -0.8171 -0.5853
   57SAPC  H18R 4227   5.992   4.960   9.004  1.1535 -1.6249 -2.4459
   57SAPC  H18S 4228   5.910   5.118   9.006 -1.2226  0.0774 -2.1668
   57SAPC  C219 4229   6.034   5.092   8.833 -0.0912 -0.3197 -0.1174
   57SAPC  H19R 4230   6.078   5.004   8.782 -1.3634 -1.2755  0.3862
   57SAPC  H19S 4231   6.108   5.158   8.883 -2.0363  1.0308  1.1173
   57SAPC  C220 4232   5.971   5.187   8.728  0.2484  0.4004  0.2250
   57SAPC  H20R 4233   5.923   5.277   8.773 -0.6299 -0.3506  0.8058
   57SAPC  H20S 4234   5.881   5.138   8.687 -0.5923  1.0643  1.2196
   57SAPC  H20T 4235   6.036   5.213   8.641 -1.0268  1.1277 -0.5503
   57SAPC   C33 4236   5.376   5.003  10.210  0.1754 -0.3456 -0.2189
   57SAPC   H3X 4237   5.361   5.025  10.102  1.9907  0.4087 -0.3660
   57SAPC   H3Y 4238   5.313   5.077  10.264 -1.5804 -1.0040 -1.3177
   57SAPC   C34 4239   5.332   4.860  10.242 -0.1974  0.2183 -0.4981
   57SAPC   H4X 4240   5.331   4.840  10.351  2.3133 -2.6612 -0.8477
   57SAPC   H4Y 4241   5.402   4.782  10.204  0.6354 -1.4546  3.9247
   57SAPC   C35 4242   5.196   4.821  10.179 -0.5781 -0.3743 -0.3569
   57SAPC   H5X 4243   5.122   4.882  10.235  0.8895  3.3721 -2.1955
   57SAPC   H5Y 4244   5.181   4.714  10.204 -3.0263  0.0500  0.2639
   57SAPC   C36 4245   5.199   4.841  10.028  0.6310 -0.5688  0.5046
   57SAPC   H6X 4246   5.218   4.948  10.004 -1.3107  0.1053  1.7283
   57SAPC   H6Y 4247   5.097   4.818   9.989  0.2361  1.6469  0.1049
   57SAPC   C37 4248   5.305   4.755   9.963 -0.0555 -0.5273 -0.6523
   57SAPC   H7X 4249   5.320   4.658  10.015  2.0560  0.2823  0.3736
   57SAPC   H7Y 4250   5.398   4.811   9.987 -2.7479  3.2984  2.0352
   57SAPC   C38 4251   5.275   4.725   9.817  0.2943 -0.1109 -0.6377
   57SAPC   H8X 4252   5.178   4.673   9.807 -0.7629  2.0146 -2.1564
   57SAPC   H8Y 4253   5.345   4.645   9.786  1.1041 -0.6503  2.2532
   57SAPC   C39 4254   5.290   4.845   9.720  0.2430 -0.2203  0.3980
   57SAPC   H9X 4255   5.387   4.895   9.744  0.1872  0.2421 -0.3077
   57SAPC   H9Y 4256   5.211   4.912   9.760 -0.3439 -1.8027  2.0329
   57SAPC  C310 4257   5.290   4.808   9.576  0.1127  0.3937 -0.1032
   57SAPC  H10X 4258   5.208   4.739   9.547  0.1820  0.3872 -0.2877
   57SAPC  H10Y 4259   5.377   4.741   9.559  0.9423  1.3391  0.2644
   57SAPC  C311 4260   5.301   4.920   9.466  0.3324 -0.3993 -0.2431
   57SAPC  H11X 4261   5.389   4.981   9.497 -0.0786 -0.4948  1.1734
   57SAPC  H11Y 4262   5.214   4.988   9.482 -0.0519 -1.0430  0.4306
   57SAPC  C312 4263   5.303   4.861   9.326 -0.1195 -0.2105 -0.0846
   57SAPC  H12X 4264   5.205   4.815   9.298  0.0065  0.2423 -1.3265
   57SAPC  H12Y 4265   5.377   4.778   9.323 -1.2108 -1.2685  0.8361
   57SAPC  C313 4266   5.331   4.976   9.225 -0.5163  0.6511 -0.2359
   57SAPC  H13X 4267   5.419   5.035   9.260 -1.4499  1.2749  1.1546
   57SAPC  H13Y 4268   5.249   5.051   9.221  0.0310  1.2919  0.2655
   57SAPC  C314 4269   5.350   4.900   9.087  0.2382 -0.2091 -0.6040
   57SAPC  H14X 4270   5.261   4.836   9.072  0.3630 -0.2654 -1.1341
   57SAPC  H14Y 4271   5.438   4.833   9.100  0.4538  0.2651  0.5396
   57SAPC  C315 4272   5.348   5.001   8.971  0.4036  0.4085 -0.4988
   57SAPC  H15X 4273   5.434   5.069   8.987 -0.2295  0.9630  0.6669
   57SAPC  H15Y 4274   5.252   5.056   8.984  0.0677 -0.2981  0.1083
   57SAPC  C316 4275   5.342   4.931   8.831  0.3462 -0.2599 -0.2909
   57SAPC  H16X 4276   5.239   4.895   8.814 -0.0382  1.3300 -1.6985
   57SAPC  H16Y 4277   5.404   4.842   8.809  0.1140  0.1019 -2.7053
   57SAPC  C317 4278   5.390   5.035   8.721 -0.0836  0.0470 -0.0991
   57SAPC  H17X 4279   5.501   5.039   8.715  0.0658  1.4731  2.3344
   57SAPC  H17Y 4280   5.350   5.130   8.763  0.0661  0.3937 -0.7343
   57SAPC  C318 4281   5.326   5.028   8.584  0.4717 -0.1060  0.5826
   57SAPC  H18X 4282   5.348   5.113   8.516 -0.5515 -0.4816 -0.2490
   57SAPC  H18Y 4283   5.216   5.033   8.593  0.4027  2.5530 -0.8670
   57SAPC  H18Z 4284   5.365   4.939   8.529  1.7049  0.7552  0.0255
   58SAPC     N 4285   0.721   1.013  11.148  0.3801  0.2480  0.0620
   58SAPC   C12 4286   0.668   1.012  11.009 -0.3105  0.0797 -0.6357
   58SAPC  H12A 4287   0.614   1.102  10.982 -0.3320 -0.3659 -2.1451
   58SAPC  H12B 4288   0.601   0.932  10.986  0.5700 -0.1439 -2.6258
   58SAPC   C13 4289   0.609   1.027  11.246 -0.0979 -0.1152 -0.7666
   58SAPC  H13A 4290   0.531   0.953  11.241 -0.6789  0.1865  1.9383
   58SAPC  H13B 4291   0.641   1.019  11.349 -0.2704  0.3080 -0.6756
   58SAPC  H13C 4292   0.571   1.128  11.241 -1.4689 -0.6287 -1.0787
   58SAPC   C14 4293   0.792   0.885  11.181  0.2893 -0.7690  0.3853
   58SAPC  H14A 4294   0.871   0.871  11.109 -1.6030  0.8096 -2.1567
   58SAPC  H14B 4295   0.844   0.883  11.276  2.0195 -1.8341 -0.5275
   58SAPC  H14C 4296   0.719   0.805  11.179  1.7904 -2.1843  0.0017
   58SAPC   C15 4297   0.825   1.127  11.167 -0.2968 -0.5645  0.0658
   58SAPC  H15A 4298   0.857   1.120  11.270 -1.0834  1.3112  0.4835
   58SAPC  H15B 4299   0.909   1.132  11.100  0.7633  1.9808  1.4523
   58SAPC  H15C 4300   0.767   1.218  11.167 -2.0246 -1.6018 -0.9906
   58SAPC   C11 4301   0.772   0.973  10.890  0.2173 -0.3774 -0.6465
   58SAPC  H11A 4302   0.857   1.043  10.904 -0.7931  0.6591  0.7514
   58SAPC  H11B 4303   0.743   1.000  10.786 -1.1695  2.0416  0.2596
   58SAPC     P 4304   0.763   0.701  10.855  0.1485  0.2118  0.3203
   58SAPC   O13 4305   0.866   0.594  10.838  0.2451 -0.8395  0.2452
   58SAPC   O14 4306   0.660   0.663  10.956 -0.2366  0.3942 -0.3892
   58SAPC   O12 4307   0.830   0.841  10.897  0.7278  0.2383 -0.3851
   58SAPC   O11 4308   0.692   0.725  10.704  0.1383 -0.4436 -0.0433
   58SAPC    C1 4309   0.787   0.744  10.596 -0.7860 -0.0030  0.5804
   58SAPC    HA 4310   0.881   0.796  10.623  0.9934 -3.1960  0.9649
   58SAPC    HB 4311   0.812   0.644  10.556 -0.1304  1.5358 -3.3250
   58SAPC    C2 4312   0.724   0.822  10.479  0.8863  0.0901 -0.2198
   58SAPC    HS 4313   0.793   0.822  10.391 -0.2397  0.0356 -1.1194
   58SAPC   O21 4314   0.707   0.960  10.528  0.3060  0.8944  0.2927
   58SAPC   C21 4315   0.697   1.054  10.431  0.8083  0.5461 -0.4427
   58SAPC   O22 4316   0.697   1.032  10.316 -0.0940 -0.3160  0.1693
   58SAPC   C22 4317   0.673   1.195  10.487 -0.4661  0.5809  0.8633
   58SAPC   H2R 4318   0.573   1.190  10.535 -0.6688 -3.2367  0.3427
   58SAPC   H2S 4319   0.752   1.213  10.564  2.9343 -1.0952 -1.9424
   58SAPC    C3 4320   0.592   0.746  10.426 -0.1814 -0.2574 -0.3564
   58SAPC    HX 4321   0.513   0.762  10.502 -1.7557  0.0834 -1.9970
   58SAPC    HY 4322   0.613   0.637  10.429  5.7268  0.4056 -2.6158
   58SAPC   O31 4323   0.555   0.789  10.292 -0.2974  0.2475  0.1364
   58SAPC   C31 4324   0.619   0.716  10.199 -0.2308 -0.6667  0.1421
   58SAPC   O32 4325   0.686   0.615  10.214 -0.0320 -0.1392 -0.8034
   58SAPC   C32 4326   0.593   0.786  10.060  0.1725  0.0216  0.4565
   58SAPC   H2X 4327   0.611   0.895  10.070 -2.4398  0.5510  0.2575
   58SAPC   H2Y 4328   0.482   0.778  10.049  0.3481 -1.7225 -0.3005
   58SAPC   C23 4329   0.688   1.303  10.382 -0.3651 -0.9299  0.0972
   58SAPC   H3R 4330   0.616   1.291  10.298 -0.5501 -1.1932  0.2933
   58SAPC   H3S 4331   0.787   1.290  10.333  0.7795 -0.0028  2.0405
   58SAPC   C24 4332   0.690   1.448  10.437 -0.2417 -0.4223 -1.4797
   58SAPC   H4R 4333   0.734   1.443  10.539  0.0546 -1.6641 -1.6451
   58SAPC   H4S 4334   0.587   1.482  10.459  0.0337 -0.3173 -0.2850
   58SAPC   C25 4335   0.771   1.552  10.367 -0.9283 -0.0542 -0.6464
   58SAPC   H5R 4336   0.852   1.608  10.416 -1.2727  0.1452 -0.2939
   58SAPC   C26 4337   0.757   1.591  10.238  0.5291 -0.3701 -0.4427
   58SAPC   H6R 4338   0.818   1.669  10.189 -1.8636  0.8583 -1.6399
   58SAPC   C27 4339   0.655   1.540  10.137 -0.2703  0.5413  0.0896
   58SAPC   H7R 4340   0.584   1.619  10.106  0.2657 -0.2248 -3.4657
   58SAPC   H7S 4341   0.580   1.472  10.182 -1.3579  0.7179 -1.3762
   58SAPC   C28 4342   0.710   1.480  10.015  0.0939 -0.5241 -0.2672
   58SAPC   H8R 4343   0.767   1.388  10.035  0.4740 -0.2489 -0.0614
   58SAPC   C29 4344   0.682   1.506   9.886 -0.4555 -0.2526 -0.0779
   58SAPC   H9R 4345   0.721   1.428   9.820  0.2550 -0.3970  0.4998
   58SAPC  C210 4346   0.576   1.592   9.825  0.4669 -0.6481  0.0400
   58SAPC  H10R 4347   0.474   1.565   9.861  0.3038 -2.5529 -1.6890
   58SAPC  H10S 4348   0.585   1.572   9.716 -1.0804 -1.2606  0.0033
   58SAPC  C211 4349   0.603   1.744   9.851 -0.5543 -0.2153  0.7401
   58SAPC  H11R 4350   0.615   1.776   9.955 -3.5558  1.0274  0.8090
   58SAPC  C212 4351   0.591   1.845   9.761 -0.4610  0.2481 -0.5889
   58SAPC  H12R 4352   0.626   1.944   9.794  1.0713 -0.3120 -0.4696
   58SAPC  C213 4353   0.567   1.835   9.612 -0.5957  0.5824 -0.3816
   58SAPC  H13R 4354   0.591   1.937   9.574 -0.9911  1.4509  1.5524
   58SAPC  H13S 4355   0.462   1.808   9.589 -0.1468 -1.7650  0.1001
   58SAPC  C214 4356   0.653   1.741   9.530 -0.1092  0.5976 -0.4394
   58SAPC  H14R 4357   0.744   1.705   9.581 -1.3155 -0.6958  0.8833
   58SAPC  C215 4358   0.626   1.679   9.411  0.7111 -0.5352 -0.3062
   58SAPC  H15R 4359   0.689   1.601   9.366 -1.6540 -1.9145 -1.3962
   58SAPC  C216 4360   0.498   1.708   9.331 -0.1683  0.0454 -0.5188
   58SAPC  H16R 4361   0.411   1.678   9.392 -1.2117  0.4162 -1.7639
   58SAPC  H16S 4362   0.498   1.647   9.238 -2.9323 -1.1426  0.1533
   58SAPC  C217 4363   0.487   1.854   9.276 -0.1015 -0.6080 -0.5858
   58SAPC  H17R 4364   0.518   1.913   9.366  3.2317  0.9960 -2.5791
   58SAPC  H17S 4365   0.378   1.869   9.259  0.0066  0.7346 -0.2313
   58SAPC  C218 4366   0.573   1.900   9.163 -0.4958  0.1136  0.0443
   58SAPC  H18R 4367   0.585   1.823   9.085 -0.3713  0.1712  0.0063
   58SAPC  H18S 4368   0.676   1.922   9.198  0.8538 -3.3039 -1.4003
   58SAPC  C219 4369   0.510   2.026   9.095 -0.4739  0.4962 -0.1119
   58SAPC  H19R 4370   0.480   2.101   9.171 -1.5920  0.1339 -0.1680
   58SAPC  H19S 4371   0.423   1.988   9.036 -0.7110  2.4377 -1.0671
   58SAPC  C220 4372   0.599   2.087   8.986 -0.9342 -0.0875  0.0843
   58SAPC  H20R 4373   0.676   2.154   9.031  1.5321 -1.6994 -1.4782
   58SAPC  H20S 4374   0.537   2.157   8.928 -1.7715 -0.6856  0.2373
   58SAPC  H20T 4375   0.649   2.008   8.925  0.4978 -0.4958  1.7105
   58SAPC   C33 4376   0.678   0.708   9.961  0.1583 -0.3658 -0.3491
   58SAPC   H3X 4377   0.649   0.601   9.967  0.8886 -0.6228 -1.2353
   58SAPC   H3Y 4378   0.785   0.711   9.989  0.0607 -0.7998  0.0944
   58SAPC   C34 4379   0.646   0.757   9.818  0.5786  0.3590 -0.3757
   58SAPC   H4X 4380   0.681   0.862   9.803 -0.3391  0.3638 -3.0405
   58SAPC   H4Y 4381   0.537   0.761   9.797  0.2080  1.3554  1.5163
   58SAPC   C35 4382   0.702   0.658   9.715 -0.2630 -0.0617 -0.6322
   58SAPC   H5X 4383   0.645   0.563   9.720 -2.2311  1.0482 -1.1075
   58SAPC   H5Y 4384   0.812   0.650   9.734 -0.6750 -0.5613  1.9003
   58SAPC   C36 4385   0.676   0.704   9.573  0.5923 -0.3186 -0.1427
   58SAPC   H6X 4386   0.751   0.671   9.498 -2.4338 -0.9581 -3.1339
   58SAPC   H6Y 4387   0.658   0.814   9.574 -1.7493 -0.6509 -0.2220
   58SAPC   C37 4388   0.552   0.649   9.514 -0.0098  0.3702 -0.5545
   58SAPC   H7X 4389   0.478   0.678   9.591  0.0865 -0.4560 -0.1332
   58SAPC   H7Y 4390   0.563   0.538   9.508  1.2329  0.5372 -2.3901
   58SAPC   C38 4391   0.506   0.686   9.365 -0.1719  0.2389 -0.2362
   58SAPC   H8X 4392   0.424   0.620   9.328 -0.1008 -0.2805  0.5141
   58SAPC   H8Y 4393   0.590   0.666   9.296 -0.1182 -1.9453  0.3637
   58SAPC   C39 4394   0.469   0.835   9.353  0.3216 -0.1622  0.1907
   58SAPC   H9X 4395   0.561   0.893   9.376  1.7421 -2.8101  1.6851
   58SAPC   H9Y 4396   0.388   0.858   9.426  0.6277  0.4386  0.3485
   58SAPC  C310 4397   0.423   0.873   9.212  0.9228  0.7909  0.0041
   58SAPC  H10X 4398   0.394   0.980   9.223 -1.9953  0.1912 -0.9234
   58SAPC  H10Y 4399   0.335   0.811   9.184  0.7687 -0.2948  2.6433
   58SAPC  C311 4400   0.530   0.857   9.100  0.0029  0.5513  0.0526
   58SAPC  H11X 4401   0.555   0.752   9.076 -3.5999 -0.5075  0.3135
   58SAPC  H11Y 4402   0.618   0.922   9.119 -0.0979  0.7612 -0.1827
   58SAPC  C312 4403   0.477   0.902   8.965  0.4268 -1.4058  0.2673
   58SAPC  H12X 4404   0.484   1.012   8.952  2.0274 -1.6569 -1.5405
   58SAPC  H12Y 4405   0.370   0.876   8.954 -0.5387  1.6972  1.1698
   58SAPC  C313 4406   0.557   0.854   8.845  0.3740  0.8574 -0.5431
   58SAPC  H13X 4407   0.505   0.872   8.748  1.8834 -0.2956 -1.6057
   58SAPC  H13Y 4408   0.556   0.743   8.853 -0.3478  0.9158  0.2955
   58SAPC  C314 4409   0.697   0.918   8.841 -0.0578 -0.2380 -0.3395
   58SAPC  H14X 4410   0.745   0.889   8.937  1.1745  0.3313 -0.7595
   58SAPC  H14Y 4411   0.693   1.029   8.844  0.5034 -0.1956 -0.9501
   58SAPC  C315 4412   0.780   0.889   8.719 -0.8049  0.6445  0.4755
   58SAPC  H15X 4413   0.735   0.907   8.619 -0.8458  2.3661  0.7743
   58SAPC  H15Y 4414   0.803   0.782   8.738  1.2576  1.3079  2.2244
   58SAPC  C316 4415   0.921   0.951   8.723  0.0525 -0.1545 -0.3636
   58SAPC  H16X 4416   0.992   0.908   8.649 -0.4792  0.1103 -1.0394
   58SAPC  H16Y 4417   0.953   0.931   8.827 -2.8232  1.2144  0.8758
   58SAPC  C317 4418   0.926   1.098   8.696  0.4166 -0.2866  0.8207
   58SAPC  H17X 4419   0.848   1.149   8.756  1.7706  0.8106  1.7162
   58SAPC  H17Y 4420   0.905   1.135   8.593 -2.4525 -1.3797  0.9289
   58SAPC  C318 4421   1.062   1.160   8.737 -0.2200  0.0847 -0.3035
   58SAPC  H18X 4422   1.084   1.139   8.844  1.6445  0.5691 -0.5510
   58SAPC  H18Y 4423   1.051   1.270   8.739  0.3050  0.1358  0.2554
   58SAPC  H18Z 4424   1.143   1.142   8.664 -1.1500 -1.2618 -1.0395
   59SAPC     N 4425   3.200   0.834  11.355 -0.2575 -0.1261 -0.1474
   59SAPC   C12 4426   3.280   0.789  11.233  0.2601 -0.1775  0.0079
   59SAPC  H12A 4427   3.209   0.772  11.153  0.3102 -1.3511  0.1879
   59SAPC  H12B 4428   3.328   0.695  11.257 -0.1038 -0.2658  0.4092
   59SAPC   C13 4429   3.106   0.725  11.396  0.0222 -0.2367  0.0404
   59SAPC  H13A 4430   3.168   0.645  11.432  1.2172 -0.6455 -2.6869
   59SAPC  H13B 4431   3.049   0.764  11.479 -1.4160 -2.8900  0.3959
   59SAPC  H13C 4432   3.039   0.700  11.315 -0.2373  2.4710 -0.6746
   59SAPC   C14 4433   3.296   0.869  11.470 -0.0736  0.1822  0.2936
   59SAPC  H14A 4434   3.253   0.918  11.556  0.6129 -0.9943  1.3458
   59SAPC  H14B 4435   3.361   0.787  11.496  0.9800  1.1426  0.7650
   59SAPC  H14C 4436   3.358   0.948  11.431 -0.4515  0.5524  0.4448
   59SAPC   C15 4437   3.123   0.951  11.326  0.2106  0.6112  0.5129
   59SAPC  H15A 4438   3.081   0.992  11.417  0.0823 -0.5360  0.9921
   59SAPC  H15B 4439   3.185   1.022  11.274 -0.9875  1.3105  0.0146
   59SAPC  H15C 4440   3.032   0.935  11.270  1.6047 -1.5919 -1.2704
   59SAPC   C11 4441   3.388   0.885  11.179  0.4488 -0.0978 -0.4658
   59SAPC  H11A 4442   3.448   0.844  11.095  3.0708  4.0760 -0.9483
   59SAPC  H11B 4443   3.457   0.902  11.265  2.7576 -0.8292 -2.0721
   59SAPC     P 4444   3.255   1.012  10.998  0.0649 -0.4853  0.0924
   59SAPC   O13 4445   3.116   1.050  11.023 -0.7087  0.3776 -0.5787
   59SAPC   O14 4446   3.324   1.102  10.901  0.3953  0.8931 -0.3782
   59SAPC   O12 4447   3.332   1.008  11.133 -0.3335  0.6511  0.3792
   59SAPC   O11 4448   3.256   0.855  10.954 -0.3953 -0.0868 -0.0198
   59SAPC    C1 4449   3.345   0.791  10.857  1.6765 -0.2209  0.3044
   59SAPC    HA 4450   3.451   0.786  10.890  1.1232 -0.4514  2.1148
   59SAPC    HB 4451   3.316   0.686  10.836  2.8072 -0.3863 -0.5247
   59SAPC    C2 4452   3.338   0.862  10.712 -0.2272  0.0310  0.2541
   59SAPC    HS 4453   3.394   0.957  10.723  0.0591 -0.1674  0.5373
   59SAPC   O21 4454   3.196   0.876  10.678 -0.9212 -0.4000  0.7380
   59SAPC   C21 4455   3.178   0.977  10.586  0.1470 -0.6598 -0.2676
   59SAPC   O22 4456   3.247   1.075  10.585 -0.3428 -0.5371 -0.3826
   59SAPC   C22 4457   3.052   0.948  10.508  0.3662  0.8474 -0.1062
   59SAPC   H2R 4458   2.992   0.859  10.535  4.4711 -2.2751 -0.2531
   59SAPC   H2S 4459   2.987   1.038  10.515 -2.4210 -1.1250  1.8310
   59SAPC    C3 4460   3.422   0.779  10.610  0.3797 -0.0392  0.4441
   59SAPC    HX 4461   3.382   0.677  10.590  1.6657 -0.7688  1.5141
   59SAPC    HY 4462   3.517   0.760  10.663  0.2365  1.1559  1.1790
   59SAPC   O31 4463   3.425   0.853  10.490  0.3796 -0.3822  0.0944
   59SAPC   C31 4464   3.527   0.946  10.485  0.4814 -0.3050 -0.5517
   59SAPC   O32 4465   3.606   0.962  10.576  0.1064 -0.0883  0.0563
   59SAPC   C32 4466   3.526   1.024  10.356 -0.2337 -0.6843 -0.2970
   59SAPC   H2X 4467   3.427   1.071  10.341  0.2064  0.9282  1.4354
   59SAPC   H2Y 4468   3.535   0.943  10.281  1.0657  1.0220 -2.1080
   59SAPC   C23 4469   3.072   0.920  10.351 -0.3188  0.0484  0.2651
   59SAPC   H3R 4470   3.134   0.999  10.305 -0.8858  0.7344  0.6672
   59SAPC   H3S 4471   2.970   0.910  10.310 -0.2891  0.8878 -0.0160
   59SAPC   C24 4472   3.137   0.781  10.315  0.2238 -0.0129 -0.6882
   59SAPC   H4R 4473   3.205   0.735  10.389 -0.0022 -0.6178 -0.8541
   59SAPC   H4S 4474   3.188   0.775  10.217  1.2521 -1.3570 -0.1001
   59SAPC   C25 4475   3.027   0.680  10.308  0.4577 -0.1053 -0.0034
   59SAPC   H5R 4476   2.995   0.654  10.410 -1.6209  1.4964 -0.1893
   59SAPC   C26 4477   2.959   0.643  10.191 -0.0753  0.3700 -1.5113
   59SAPC   H6R 4478   2.882   0.564  10.198  1.1877 -0.7677  0.5096
   59SAPC   C27 4479   2.988   0.680  10.050  0.2360  0.3724 -0.5270
   59SAPC   H7R 4480   3.096   0.662  10.031  0.0867 -1.6534  0.2332
   59SAPC   H7S 4481   2.957   0.785  10.032  0.8877  0.4964 -0.9420
   59SAPC   C28 4482   2.907   0.593   9.959 -0.2628  1.0957  0.1552
   59SAPC   H8R 4483   2.818   0.544  10.001  0.8491 -1.0897  0.1224
   59SAPC   C29 4484   2.936   0.549   9.831 -0.2691 -0.1773 -0.1870
   59SAPC   H9R 4485   2.870   0.486   9.769  0.1450  0.9836 -1.8800
   59SAPC  C210 4486   3.055   0.600   9.754  0.8199 -0.1304  0.7226
   59SAPC  H10R 4487   3.092   0.523   9.684  0.7630 -1.5238  2.1673
   59SAPC  H10S 4488   3.150   0.597   9.811  1.6991  1.5081 -0.5635
   59SAPC  C211 4489   3.034   0.741   9.692  0.0788  0.3777  0.4727
   59SAPC  H11R 4490   3.075   0.820   9.755  1.4366 -0.3626  0.5624
   59SAPC  C212 4491   2.996   0.768   9.562 -0.2302  0.8511  0.6328
   59SAPC  H12R 4492   2.983   0.870   9.524  3.3177  1.5324  0.9126
   59SAPC  C213 4493   2.953   0.666   9.456 -0.0987  0.3362  0.2280
   59SAPC  H13R 4494   2.845   0.676   9.434 -0.4118 -0.4252  1.3498
   59SAPC  H13S 4495   2.958   0.564   9.499  2.0209  1.0721  1.9442
   59SAPC  C214 4496   3.042   0.683   9.334 -0.2229 -0.5311  0.1951
   59SAPC  H14R 4497   3.058   0.786   9.299  0.8730 -0.4054  1.0085
   59SAPC  C215 4498   3.098   0.578   9.279 -0.1205 -0.1606 -0.4826
   59SAPC  H15R 4499   3.164   0.607   9.196  0.7390 -0.2279  0.1651
   59SAPC  C216 4500   3.097   0.434   9.319  0.4966 -0.7789  0.0201
   59SAPC  H16R 4501   3.082   0.415   9.427  0.7726 -2.9460 -0.2899
   59SAPC  H16S 4502   3.197   0.391   9.299  1.3881  1.5980 -1.1041
   59SAPC  C217 4503   2.999   0.354   9.244  0.1011 -0.4744  0.4228
   59SAPC  H17R 4504   2.895   0.377   9.277 -0.2411 -0.3621 -0.6895
   59SAPC  H17S 4505   3.014   0.248   9.273 -0.6063 -0.8302 -0.4539
   59SAPC  C218 4506   3.014   0.354   9.094  0.0705 -0.1553 -0.6394
   59SAPC  H18R 4507   3.115   0.321   9.063 -0.5878 -1.5605 -1.3795
   59SAPC  H18S 4508   2.998   0.450   9.041 -2.1346  0.3919  0.8634
   59SAPC  C219 4509   2.925   0.262   9.019  0.3585 -0.1686  0.7012
   59SAPC  H19R 4510   2.822   0.292   9.049 -0.2874  0.7412 -2.0810
   59SAPC  H19S 4511   2.937   0.165   9.072  0.6765 -0.0633  0.8173
   59SAPC  C220 4512   2.918   0.244   8.869 -0.1617  0.0548 -0.5660
   59SAPC  H20R 4513   2.912   0.344   8.820  0.6387 -0.4253 -1.6865
   59SAPC  H20S 4514   2.847   0.168   8.830 -0.1502  0.0818 -0.6417
   59SAPC  H20T 4515   3.015   0.195   8.849  0.2145 -1.3224  3.6157
   59SAPC   C33 4516   3.650   1.121  10.338  0.1887  0.3202 -0.6614
   59SAPC   H3X 4517   3.746   1.067  10.357  0.9238  1.5361 -0.7695
   59SAPC   H3Y 4518   3.642   1.210  10.405  3.1141  1.8021 -2.0612
   59SAPC   C34 4519   3.662   1.186  10.200 -0.4333 -0.6567 -0.5576
   59SAPC   H4X 4520   3.751   1.249  10.183 -0.5961 -0.9902 -2.9300
   59SAPC   H4Y 4521   3.581   1.261  10.186 -0.4694 -0.5401  0.2180
   59SAPC   C35 4522   3.664   1.079  10.091  0.1743  0.0127  0.1807
   59SAPC   H5X 4523   3.568   1.024  10.081 -1.5708  2.8754  0.2290
   59SAPC   H5Y 4524   3.744   1.001  10.097  1.9820  1.3224 -3.6246
   59SAPC   C36 4525   3.673   1.152   9.965 -0.2127 -0.6694  0.7762
   59SAPC   H6X 4526   3.756   1.227   9.961  1.7540 -2.7642 -1.0620
   59SAPC   H6Y 4527   3.578   1.205   9.944 -0.2458 -0.6784  0.9065
   59SAPC   C37 4528   3.705   1.066   9.843 -0.1281  0.0120  0.1766
   59SAPC   H7X 4529   3.637   0.979   9.835 -0.4223  0.2898 -0.4316
   59SAPC   H7Y 4530   3.811   1.030   9.843  0.0196  0.3332  2.1970
   59SAPC   C38 4531   3.677   1.140   9.714  0.2848  0.4366  0.2004
   59SAPC   H8X 4532   3.711   1.246   9.716  0.6665  0.3162  0.1783
   59SAPC   H8Y 4533   3.569   1.133   9.689  0.4433 -1.2348 -0.1127
   59SAPC   C39 4534   3.764   1.081   9.601  0.4233 -0.1769 -0.6375
   59SAPC   H9X 4535   3.743   0.973   9.589  2.5455 -0.8984  1.4450
   59SAPC   H9Y 4536   3.871   1.090   9.630  0.0125  0.8292  0.6949
   59SAPC  C310 4537   3.750   1.148   9.462 -0.2253 -0.2145  0.7166
   59SAPC  H10X 4538   3.799   1.074   9.396  1.3318  0.7905  0.7118
   59SAPC  H10Y 4539   3.793   1.250   9.450 -1.8487  0.3516 -0.7602
   59SAPC  C311 4540   3.608   1.161   9.397  0.1960  0.3514  0.2411
   59SAPC  H11X 4541   3.555   1.243   9.451  0.1862 -0.0126  0.7865
   59SAPC  H11Y 4542   3.546   1.076   9.432 -0.8285  1.5945  1.5996
   59SAPC  C312 4543   3.614   1.185   9.241  0.3732 -0.0326  0.5042
   59SAPC  H12X 4544   3.670   1.279   9.225 -0.6682  0.8505  1.7214
   59SAPC  H12Y 4545   3.507   1.201   9.216  0.8360  2.5357 -0.0867
   59SAPC  C313 4546   3.669   1.063   9.170  0.6474 -0.0915 -0.1579
   59SAPC  H13X 4547   3.625   0.967   9.203 -2.0565  1.3312  0.6560
   59SAPC  H13Y 4548   3.777   1.053   9.195  0.0650 -2.8446  1.5611
   59SAPC  C314 4549   3.664   1.081   9.020  0.5182  0.6978  0.4278
   59SAPC  H14X 4550   3.685   1.188   8.997 -1.1681  0.4571 -2.7710
   59SAPC  H14Y 4551   3.557   1.096   8.997  0.1593  0.2330  1.7051
   59SAPC  C315 4552   3.729   0.980   8.927  0.7661 -0.5981 -0.3832
   59SAPC  H15X 4553   3.658   0.895   8.929  0.2251 -0.1546 -0.4884
   59SAPC  H15Y 4554   3.826   0.951   8.974  1.0198  0.4174 -0.2453
   59SAPC  C316 4555   3.732   1.017   8.783  0.1315 -0.1078 -0.1968
   59SAPC  H16X 4556   3.781   1.116   8.771 -2.1035  1.1051  0.2662
   59SAPC  H16Y 4557   3.625   1.026   8.756 -0.5094  0.3106  2.1892
   59SAPC  C317 4558   3.798   0.912   8.690 -0.4788 -0.4338 -0.0955
   59SAPC  H17X 4559   3.745   0.815   8.697  0.4194 -0.8221  3.6548
   59SAPC  H17Y 4560   3.905   0.907   8.719 -0.5456 -1.4681  0.0118
   59SAPC  C318 4561   3.801   0.956   8.536  0.4464 -0.1740 -0.0106
   59SAPC  H18X 4562   3.887   0.916   8.478  2.4623  0.4130  2.3955
   59SAPC  H18Y 4563   3.822   1.065   8.544 -0.3265 -0.1222  1.6834
   59SAPC  H18Z 4564   3.708   0.932   8.480  0.5597  2.6117 -1.5667
   60SAPC     N 4565   4.834   0.050  10.910  0.4851 -0.3049 -0.3215
   60SAPC   C12 4566   4.730   0.104  10.814 -0.9189  0.2269 -0.4757
   60SAPC  H12A 4567   4.657   0.157  10.873 -0.4768 -0.9787  1.2201
   60SAPC  H12B 4568   4.671   0.024  10.773 -3.0380  1.8366 -0.7596
   60SAPC   C13 4569   4.759  -0.028  11.017  0.3278  0.3719  0.1031
   60SAPC  H13A 4570   4.730  -0.124  10.977  1.2788  0.0291  0.2139
   60SAPC  H13B 4571   4.831  -0.040  11.096  0.4303 -0.0453 -0.0540
   60SAPC  H13C 4572   4.672   0.027  11.049 -0.2895 -0.3387 -0.3229
   60SAPC   C14 4573   4.936  -0.033  10.840 -0.2804 -0.3313 -0.4239
   60SAPC  H14A 4574   4.901  -0.125  10.797  1.5748 -1.5042  0.4421
   60SAPC  H14B 4575   4.992   0.034  10.776 -0.6049  0.2212 -0.1465
   60SAPC  H14C 4576   5.002  -0.064  10.919 -1.5834  0.9198  1.2302
   60SAPC   C15 4577   4.894   0.167  10.975  0.5878 -0.2514  0.6856
   60SAPC  H15A 4578   4.906   0.241  10.897 -3.3417 -0.3626 -0.2562
   60SAPC  H15B 4579   4.828   0.220  11.041 -1.3440 -0.3407 -1.0532
   60SAPC  H15C 4580   4.986   0.146  11.027  0.4356 -2.8361  0.0746
   60SAPC   C11 4581   4.779   0.177  10.690 -0.3504  0.3134 -0.4397
   60SAPC  H11A 4582   4.686   0.200  10.634 -0.0419  1.0137 -0.6829
   60SAPC  H11B 4583   4.846   0.112  10.630 -0.3639 -0.8280  0.7351
   60SAPC     P 4584   4.789   0.432  10.737 -0.0960  0.0155  0.3512
   60SAPC   O13 4585   4.662   0.427  10.808  0.0963 -0.1328 -0.1434
   60SAPC   O14 4586   4.890   0.524  10.795  0.0819 -0.1616  0.1476
   60SAPC   O12 4587   4.855   0.292  10.724  0.3108 -0.0727 -0.8914
   60SAPC   O11 4588   4.760   0.463  10.586 -0.1565 -0.4080  0.0928
   60SAPC    C1 4589   4.856   0.520  10.496  0.3716  0.3732 -0.3215
   60SAPC    HA 4590   4.812   0.619  10.473 -3.1476 -0.8281  0.6686
   60SAPC    HB 4591   4.955   0.525  10.546  0.6656 -1.7922 -0.5991
   60SAPC    C2 4592   4.880   0.435  10.364 -0.5657  0.3060  0.5459
   60SAPC    HS 4593   4.965   0.491  10.320 -1.3030  0.8403 -0.2234
   60SAPC   O21 4594   4.769   0.449  10.266  0.7203 -0.0596 -0.1261
   60SAPC   C21 4595   4.742   0.571  10.215 -0.5859  0.0297 -0.5028
   60SAPC   O22 4596   4.809   0.667  10.249 -0.9897  0.2818  0.0476
   60SAPC   C22 4597   4.648   0.558  10.098  0.4335 -0.0057  0.7547
   60SAPC   H2R 4598   4.645   0.449  10.079  1.2456 -0.2481  1.9215
   60SAPC   H2S 4599   4.543   0.580  10.126  0.3716  0.9378 -0.1545
   60SAPC    C3 4600   4.911   0.277  10.391 -0.1872 -0.2586 -0.0684
   60SAPC    HX 4601   4.808   0.242  10.411 -1.1971  1.7254 -1.5350
   60SAPC    HY 4602   4.963   0.262  10.488 -1.6408 -3.1541  0.3679
   60SAPC   O31 4603   4.986   0.223  10.276  0.3059  0.0245 -0.0488
   60SAPC   C31 4604   4.959   0.087  10.279 -0.6321 -0.9964 -0.3159
   60SAPC   O32 4605   4.894   0.038  10.369 -0.3286  0.1019  0.4306
   60SAPC   C32 4606   5.019   0.011  10.165 -0.5096  0.5755  0.4018
   60SAPC   H2X 4607   5.128   0.017  10.186 -1.0064  0.4508  3.5199
   60SAPC   H2Y 4608   5.002   0.060  10.067  0.5201  1.1612  0.5075
   60SAPC   C23 4609   4.681   0.646   9.974 -1.1164 -0.2463 -0.0791
   60SAPC   H3R 4610   4.786   0.683   9.983 -0.2563 -2.8730  2.3611
   60SAPC   H3S 4611   4.606   0.725   9.957 -1.8846 -0.9292  0.0502
   60SAPC   C24 4612   4.681   0.574   9.835 -0.3326 -0.0745  1.0785
   60SAPC   H4R 4613   4.761   0.499   9.848  0.7102  0.9568  0.7159
   60SAPC   H4S 4614   4.716   0.651   9.764 -0.9503 -0.2252  0.5998
   60SAPC   C25 4615   4.547   0.498   9.801  0.1916 -0.8214  0.2085
   60SAPC   H5R 4616   4.505   0.435   9.881 -0.9384 -0.7914 -0.3378
   60SAPC   C26 4617   4.485   0.513   9.686 -0.6875  1.0755 -0.2204
   60SAPC   H6R 4618   4.395   0.452   9.667  0.6303 -1.5468  1.3258
   60SAPC   C27 4619   4.531   0.592   9.561  0.3337 -0.6036 -0.4973
   60SAPC   H7R 4620   4.642   0.596   9.554  0.2809  0.0755 -1.0379
   60SAPC   H7S 4621   4.505   0.698   9.580  0.5787 -0.1823 -2.3226
   60SAPC   C28 4622   4.468   0.550   9.433  0.4657  0.5711  0.1308
   60SAPC   H8R 4623   4.361   0.522   9.433  0.5148  0.1781  2.5015
   60SAPC   C29 4624   4.536   0.527   9.314 -0.1366 -0.5967  0.1341
   60SAPC   H9R 4625   4.478   0.505   9.223 -0.9348  0.5757  0.3339
   60SAPC  C210 4626   4.682   0.538   9.292 -0.3335 -0.1540 -0.5042
   60SAPC  H10R 4627   4.718   0.499   9.195 -0.2024 -1.5138  0.0687
   60SAPC  H10S 4628   4.743   0.489   9.371 -0.3074  0.3193 -0.2250
   60SAPC  C211 4629   4.735   0.683   9.293  0.3586  0.0111 -0.2374
   60SAPC  H11R 4630   4.661   0.758   9.326  0.4454  0.1890 -0.4442
   60SAPC  C212 4631   4.852   0.725   9.248  0.3127  0.4900  0.0179
   60SAPC  H12R 4632   4.868   0.833   9.262  2.8841  0.3152 -0.9026
   60SAPC  C213 4633   4.975   0.653   9.196  0.7948 -0.2487  0.5428
   60SAPC  H13R 4634   5.052   0.727   9.226 -1.1952  1.7029  1.1066
   60SAPC  H13S 4635   4.972   0.640   9.086 -2.6656  2.2030  0.2196
   60SAPC  C214 4636   5.013   0.528   9.270 -0.0171 -0.0727  0.2302
   60SAPC  H14R 4637   4.954   0.441   9.236 -0.8127  0.2749  0.6912
   60SAPC  C215 4638   5.108   0.512   9.369 -0.1409  0.1109  0.2403
   60SAPC  H15R 4639   5.121   0.411   9.410 -1.7530  0.0172  0.5776
   60SAPC  C216 4640   5.205   0.615   9.425 -0.2348  0.0317  0.4383
   60SAPC  H16R 4641   5.219   0.694   9.349 -4.6360  1.1569  0.5256
   60SAPC  H16S 4642   5.298   0.557   9.440 -1.5705 -1.9429  1.6489
   60SAPC  C217 4643   5.165   0.690   9.556  0.1972  0.0661 -0.1410
   60SAPC  H17R 4644   5.255   0.740   9.596  0.0684  1.1925 -1.1862
   60SAPC  H17S 4645   5.129   0.600   9.610  1.5055 -0.0083  0.6421
   60SAPC  C218 4646   5.067   0.807   9.546  0.2621  0.6912 -0.8841
   60SAPC  H18R 4647   4.980   0.770   9.486  1.5831 -1.8068 -1.4087
   60SAPC  H18S 4648   5.109   0.895   9.493 -0.5901  0.8598 -1.3033
   60SAPC  C219 4649   5.014   0.849   9.682 -0.5235 -0.1878  0.6045
   60SAPC  H19R 4650   4.944   0.771   9.720 -1.9917  1.0492  0.5436
   60SAPC  H19S 4651   4.949   0.938   9.671 -1.8204 -1.2415 -0.6955
   60SAPC  C220 4652   5.110   0.868   9.802 -0.2475  0.0993 -0.8789
   60SAPC  H20R 4653   5.049   0.895   9.891 -1.2190 -0.0823 -1.4772
   60SAPC  H20S 4654   5.186   0.944   9.776  0.9519 -0.9274 -0.4797
   60SAPC  H20T 4655   5.162   0.772   9.823 -2.9565 -1.0795  1.1011
   60SAPC   C33 4656   4.967  -0.130  10.162 -0.2428  0.0747  0.2033
   60SAPC   H3X 4657   4.861  -0.141  10.131 -0.3204 -0.9177  0.7795
   60SAPC   H3Y 4658   4.971  -0.185  10.258  0.2624 -1.2724 -0.5637
   60SAPC   C34 4659   5.037  -0.225  10.071 -0.2628  1.1603  0.1082
   60SAPC   H4X 4660   5.005  -0.328  10.095 -0.3792  1.0279 -0.6063
   60SAPC   H4Y 4661   5.147  -0.213  10.075  0.1399 -0.8276 -2.5101
   60SAPC   C35 4662   4.992  -0.200   9.932 -0.6315 -0.4355 -0.0843
   60SAPC   H5X 4663   5.016  -0.096   9.903 -1.3686 -0.1973  0.1233
   60SAPC   H5Y 4664   4.889  -0.234   9.907 -0.5648 -2.7276  2.3543
   60SAPC   C36 4665   5.087  -0.272   9.829 -0.2725 -0.2088 -0.4978
   60SAPC   H6X 4666   5.089  -0.382   9.818 -1.1486 -0.3435  0.5621
   60SAPC   H6Y 4667   5.184  -0.221   9.851 -1.4314  1.6567  0.6487
   60SAPC   C37 4668   5.044  -0.236   9.684 -0.5299 -0.2229  0.6002
   60SAPC   H7X 4669   5.011  -0.130   9.678 -4.6956 -1.4361 -2.9783
   60SAPC   H7Y 4670   4.956  -0.295   9.652  0.3560  0.1211 -2.8444
   60SAPC   C38 4671   5.151  -0.264   9.578  0.4574  0.4864 -0.1335
   60SAPC   H8X 4672   5.160  -0.374   9.594  0.3651  0.7349  1.9230
   60SAPC   H8Y 4673   5.248  -0.213   9.599  0.7304 -0.3688  0.7639
   60SAPC   C39 4674   5.103  -0.216   9.443  0.4939  0.3760  0.4127
   60SAPC   H9X 4675   5.150  -0.116   9.425  1.7447  0.2598  2.6465
   60SAPC   H9Y 4676   4.994  -0.201   9.436  0.1959 -1.9061 -0.6989
   60SAPC  C310 4677   5.146  -0.292   9.313 -0.2193  0.4116 -0.6728
   60SAPC  H10X 4678   5.118  -0.399   9.307 -0.8536  0.6471 -2.5478
   60SAPC  H10Y 4679   5.256  -0.279   9.312  0.1050 -1.8639 -1.5276
   60SAPC  C311 4680   5.085  -0.231   9.190 -0.5388  0.0066  0.1212
   60SAPC  H11X 4681   5.099  -0.121   9.190 -2.0925  0.2706  1.8247
   60SAPC  H11Y 4682   4.974  -0.234   9.190 -0.5241 -1.4366  0.6863
   60SAPC  C312 4683   5.132  -0.295   9.054  0.3293  0.5031 -0.0684
   60SAPC  H12X 4684   5.236  -0.265   9.032  0.0917  1.4673  0.0533
   60SAPC  H12Y 4685   5.064  -0.248   8.980  1.8217  3.4184  0.2729
   60SAPC  C313 4686   5.118  -0.446   9.051 -0.1701  0.3217 -0.3026
   60SAPC  H13X 4687   5.016  -0.481   9.079 -0.2580 -0.8391 -1.9306
   60SAPC  H13Y 4688   5.182  -0.506   9.119 -1.7529 -0.6805  0.3761
   60SAPC  C314 4689   5.167  -0.498   8.917 -0.0466  0.0129  0.0026
   60SAPC  H14X 4690   5.264  -0.449   8.891 -0.1676 -0.2243 -0.9271
   60SAPC  H14Y 4691   5.090  -0.470   8.843 -0.5092  0.1883  0.5437
   60SAPC  C315 4692   5.206  -0.642   8.910 -0.1923  0.0869 -0.0888
   60SAPC  H15X 4693   5.111  -0.699   8.906  0.2462 -0.6627  0.0335
   60SAPC  H15Y 4694   5.257  -0.676   9.003 -1.8452 -0.5885  0.6150
   60SAPC  C316 4695   5.279  -0.685   8.787 -0.6170 -0.2405  0.0695
   60SAPC  H16X 4696   5.314  -0.788   8.807 -2.2928 -0.3472  3.0441
   60SAPC  H16Y 4697   5.366  -0.621   8.760 -0.0119 -0.9767  0.2239
   60SAPC  C317 4698   5.182  -0.694   8.667 -0.3312  0.5139  0.2126
   60SAPC  H17X 4699   5.078  -0.714   8.701 -1.0858 -0.2276 -2.3282
   60SAPC  H17Y 4700   5.217  -0.774   8.599  0.6148 -1.4393  2.8214
   60SAPC  C318 4701   5.181  -0.560   8.589  0.4972 -0.0704 -0.2379
   60SAPC  H18X 4702   5.084  -0.553   8.536  0.2403 -0.5369  0.1636
   60SAPC  H18Y 4703   5.265  -0.549   8.517  0.3046 -0.2768 -0.4946
   60SAPC  H18Z 4704   5.189  -0.472   8.657 -2.0181 -1.6218  2.3280
   61SAPC     N 4705   6.788   6.257  11.336  0.2537 -0.1912 -0.1897
   61SAPC   C12 4706   6.853   6.326  11.224 -0.2945  0.2554  0.4355
   61SAPC  H12A 4707   6.938   6.378  11.268 -0.1653  0.2390  0.2056
   61SAPC  H12B 4708   6.785   6.402  11.190 -0.2694 -0.5528 -1.5168
   61SAPC   C13 4709   6.895   6.171  11.406  0.6647  0.3170  0.5154
   61SAPC  H13A 4710   6.860   6.133  11.500  1.9347  0.0148  0.8812
   61SAPC  H13B 4711   6.935   6.096  11.339  2.3703  0.0936  1.7422
   61SAPC  H13C 4712   6.983   6.231  11.419  0.8334 -0.1825  1.7428
   61SAPC   C14 4713   6.758   6.355  11.449  0.0230  0.5370  0.3854
   61SAPC  H14A 4714   6.689   6.307  11.517 -1.2459  2.0472  0.2257
   61SAPC  H14B 4715   6.852   6.380  11.496  0.0201 -0.9819  1.2693
   61SAPC  H14C 4716   6.711   6.445  11.412 -4.2152 -0.1306  3.4602
   61SAPC   C15 4717   6.667   6.185  11.285 -0.1593 -0.2411  0.3297
   61SAPC  H15A 4718   6.590   6.253  11.251 -0.9156 -0.6322  1.2041
   61SAPC  H15B 4719   6.692   6.119  11.203  0.8203 -2.5459  2.3669
   61SAPC  H15C 4720   6.615   6.133  11.365 -1.7507  0.5437 -0.1516
   61SAPC   C11 4721   6.883   6.247  11.098  0.2149 -0.0871  0.3683
   61SAPC  H11A 4722   6.929   6.147  11.114 -0.6751 -0.6066 -0.2373
   61SAPC  H11B 4723   6.958   6.312  11.047  0.5072  0.2358  1.1976
   61SAPC     P 4724   6.707   6.336  10.925  0.0373 -0.0307 -0.1126
   61SAPC   O13 4725   6.560   6.306  10.906  0.1496  0.5037  0.2443
   61SAPC   O14 4726   6.746   6.471  10.967 -0.5386 -0.4117  0.2837
   61SAPC   O12 4727   6.759   6.236  11.030 -0.2334 -0.0924 -0.0253
   61SAPC   O11 4728   6.792   6.284  10.797  0.1288  0.2047 -0.2613
   61SAPC    C1 4729   6.806   6.148  10.775 -0.3470  0.8364  0.2021
   61SAPC    HA 4730   6.870   6.107  10.856  0.1041  0.5047 -0.3186
   61SAPC    HB 4731   6.706   6.102  10.792 -0.5838  1.7287  1.3682
   61SAPC    C2 4732   6.864   6.116  10.634  0.1084  0.1615 -0.3541
   61SAPC    HS 4733   6.962   6.166  10.617 -0.0250  1.3725  1.9913
   61SAPC   O21 4734   6.767   6.181  10.541  0.4018  0.2581 -0.1559
   61SAPC   C21 4735   6.820   6.216  10.418  0.5844 -0.2007 -0.0217
   61SAPC   O22 4736   6.937   6.207  10.391 -0.6458 -0.2707 -0.5684
   61SAPC   C22 4737   6.712   6.291  10.333 -0.3553  0.0145 -0.0033
   61SAPC   H2R 4738   6.634   6.335  10.399 -0.7610  1.1803 -1.2055
   61SAPC   H2S 4739   6.758   6.374  10.275 -3.4239  0.7615 -1.6316
   61SAPC    C3 4740   6.867   5.961  10.614 -0.3743  0.0975 -0.0679
   61SAPC    HX 4741   6.780   5.916  10.667  0.8683  0.5544  2.5128
   61SAPC    HY 4742   6.945   5.914  10.677 -1.4994  0.0081  1.3185
   61SAPC   O31 4743   6.869   5.916  10.474  0.1057  0.0222 -0.1297
   61SAPC   C31 4744   6.978   5.862  10.424 -0.9767 -0.6083  0.2518
   61SAPC   O32 4745   7.079   5.841  10.491 -0.0685 -0.0632  0.5000
   61SAPC   C32 4746   6.950   5.797  10.283 -0.9609 -0.3986  0.3580
   61SAPC   H2X 4747   6.864   5.727  10.287  0.0259 -1.9371 -2.4879
   61SAPC   H2Y 4748   7.048   5.755  10.251  0.7523  2.2577  1.7574
   61SAPC   C23 4749   6.644   6.207  10.225 -0.6227  0.3863 -0.5243
   61SAPC   H3R 4750   6.540   6.238  10.200 -1.3188  0.6901  2.3570
   61SAPC   H3S 4751   6.650   6.100  10.253  1.6867  1.2703  3.0190
   61SAPC   C24 4752   6.722   6.215  10.088  0.5290  0.4526  0.4065
   61SAPC   H4R 4753   6.826   6.177  10.092  0.1763 -0.5511  0.2287
   61SAPC   H4S 4754   6.728   6.326  10.075  0.0824  0.4062 -0.2522
   61SAPC   C25 4755   6.660   6.164   9.959 -0.2050  0.2577  0.6526
   61SAPC   H5R 4756   6.622   6.062   9.966  1.0722 -0.2296  0.6893
   61SAPC   C26 4757   6.675   6.226   9.837 -0.8684  0.1504 -0.4971
   61SAPC   H6R 4758   6.654   6.167   9.747  1.2838 -0.5271 -0.6004
   61SAPC   C27 4759   6.728   6.363   9.809  0.0103 -0.0750 -0.0520
   61SAPC   H7R 4760   6.762   6.413   9.902  2.0138 -0.6957 -0.4164
   61SAPC   H7S 4761   6.633   6.407   9.771  0.4490  1.0203  0.0736
   61SAPC   C28 4762   6.846   6.362   9.718 -0.5109 -0.0079 -0.0690
   61SAPC   H8R 4763   6.928   6.314   9.774 -1.6505 -2.4116 -0.3512
   61SAPC   C29 4764   6.860   6.402   9.590 -0.5927 -0.2242 -1.0415
   61SAPC   H9R 4765   6.959   6.402   9.542 -0.9661  1.7251 -1.9301
   61SAPC  C210 4766   6.748   6.474   9.511  0.0312  0.2127  0.2159
   61SAPC  H10R 4767   6.720   6.571   9.557  1.0846 -0.3117  2.0599
   61SAPC  H10S 4768   6.663   6.402   9.508 -0.5988  0.9368  0.2933
   61SAPC  C211 4769   6.773   6.516   9.368  0.0924  0.4321 -0.0458
   61SAPC  H11R 4770   6.783   6.625   9.359  1.2174  0.3880  0.4468
   61SAPC  C212 4771   6.786   6.437   9.258 -0.2306  0.2511  0.3148
   61SAPC  H12R 4772   6.814   6.493   9.167 -1.5662  0.3549 -0.0600
   61SAPC  C213 4773   6.778   6.288   9.228 -0.0878  0.1120 -0.6062
   61SAPC  H13R 4774   6.712   6.232   9.298 -0.1950  1.3924  0.3524
   61SAPC  H13S 4775   6.882   6.252   9.242 -0.5275 -1.3728 -1.0160
   61SAPC  C214 4776   6.741   6.248   9.090 -0.3350 -0.5878  0.0194
   61SAPC  H14R 4777   6.829   6.213   9.033  0.3447  0.5977  0.3219
   61SAPC  C215 4778   6.615   6.257   9.040  0.5785 -0.5859  0.1205
   61SAPC  H15R 4779   6.587   6.203   8.949  0.7057 -1.3521  0.5282
   61SAPC  C216 4780   6.502   6.313   9.112 -0.8857 -0.5742  0.4713
   61SAPC  H16R 4781   6.523   6.327   9.220 -0.5468 -0.9454  0.4511
   61SAPC  H16S 4782   6.424   6.234   9.114  1.0449 -2.5561  0.8514
   61SAPC  C217 4783   6.434   6.444   9.061  0.3861  0.2068  0.0867
   61SAPC  H17R 4784   6.513   6.522   9.068  0.8866 -0.4023  1.9126
   61SAPC  H17S 4785   6.355   6.458   9.138  1.8299 -0.3114  1.7393
   61SAPC  C218 4786   6.376   6.435   8.916 -0.4052  0.4135 -0.7284
   61SAPC  H18R 4787   6.312   6.344   8.911 -0.5020  0.3746  0.7359
   61SAPC  H18S 4788   6.460   6.413   8.847  0.9455 -0.8075  1.2053
   61SAPC  C219 4789   6.297   6.561   8.870  0.6439  0.4880 -0.3183
   61SAPC  H19R 4790   6.361   6.649   8.850 -0.8804  1.5166 -0.8680
   61SAPC  H19S 4791   6.240   6.588   8.962  2.5959  0.6981  0.8975
   61SAPC  C220 4792   6.218   6.542   8.740 -0.6356 -0.0429  0.0351
   61SAPC  H20R 4793   6.286   6.522   8.655  1.1345  0.0785  1.3509
   61SAPC  H20S 4794   6.177   6.644   8.724  1.1046  0.7307  0.3196
   61SAPC  H20T 4795   6.147   6.457   8.749  0.8909 -1.2539  0.9844
   61SAPC   C33 4796   6.916   5.914  10.187 -0.7107 -0.0599 -0.1444
   61SAPC   H3X 4797   7.000   5.987  10.176  0.3605 -1.1852  0.3320
   61SAPC   H3Y 4798   6.835   5.980  10.226 -0.7892  0.8273 -1.7061
   61SAPC   C34 4799   6.880   5.889  10.040 -0.1144 -0.1679 -0.1072
   61SAPC   H4X 4800   6.887   5.981   9.979 -1.0322 -0.2930 -0.4113
   61SAPC   H4Y 4801   6.773   5.860  10.043  0.3702 -2.1394  0.1511
   61SAPC   C35 4802   6.962   5.781   9.975  0.6994 -0.0283  0.1297
   61SAPC   H5X 4803   6.942   5.684  10.025  0.6292 -0.3698 -0.5358
   61SAPC   H5Y 4804   7.068   5.813   9.982  0.5687  0.7432 -1.0631
   61SAPC   C36 4805   6.911   5.766   9.832  0.3151  0.2642  0.1132
   61SAPC   H6X 4806   6.930   5.869   9.796  1.3110  0.0785  0.0791
   61SAPC   H6Y 4807   6.803   5.742   9.830  0.1887  0.6702 -2.8333
   61SAPC   C37 4808   6.990   5.661   9.756  0.2555 -0.4128 -0.5349
   61SAPC   H7X 4809   6.968   5.561   9.800 -1.4158  0.4157  0.6151
   61SAPC   H7Y 4810   7.100   5.675   9.763  0.5693 -2.1537 -1.4031
   61SAPC   C38 4811   6.951   5.654   9.611  0.3913  0.6130 -0.0627
   61SAPC   H8X 4812   6.854   5.601   9.600  0.6310 -0.4152  2.2314
   61SAPC   H8Y 4813   7.030   5.590   9.565 -0.7357  0.2202 -1.5360
   61SAPC   C39 4814   6.938   5.786   9.537 -0.1315  0.0647 -0.0093
   61SAPC   H9X 4815   7.030   5.846   9.555  0.2387 -0.0960 -1.2990
   61SAPC   H9Y 4816   6.853   5.839   9.585 -1.0872 -1.2033 -0.2427
   61SAPC  C310 4817   6.927   5.758   9.385 -0.1289 -0.1767  0.0294
   61SAPC  H10X 4818   6.831   5.707   9.361  0.4899 -0.7440 -1.3078
   61SAPC  H10Y 4819   7.006   5.685   9.359 -0.4553  0.0438 -1.7220
   61SAPC  C311 4820   6.957   5.886   9.301 -0.6531 -0.2509  0.3988
   61SAPC  H11X 4821   7.057   5.917   9.338 -0.9153 -0.7398  1.5556
   61SAPC  H11Y 4822   6.889   5.973   9.314  1.3455  1.2365  1.6684
   61SAPC  C312 4823   6.976   5.841   9.152 -0.0595  0.0276 -0.6688
   61SAPC  H12X 4824   7.057   5.765   9.149  1.2748  1.2320  1.7806
   61SAPC  H12Y 4825   7.010   5.933   9.099  0.6489  1.0747  1.4909
   61SAPC  C313 4826   6.843   5.779   9.095 -0.2831 -0.0566  0.1433
   61SAPC  H13X 4827   6.765   5.856   9.115 -1.6543 -1.1800 -0.6783
   61SAPC  H13Y 4828   6.816   5.684   9.146 -0.6987 -0.1478 -0.2424
   61SAPC  C314 4829   6.833   5.774   8.938  0.4152 -0.6786  0.9851
   61SAPC  H14X 4830   6.774   5.689   8.898 -0.9621  0.5096  0.3981
   61SAPC  H14Y 4831   6.938   5.775   8.902 -0.2315  1.8676 -1.0820
   61SAPC  C315 4832   6.766   5.899   8.884  0.3803 -0.1049  0.2452
   61SAPC  H15X 4833   6.815   5.987   8.928 -1.1866  0.9601 -0.0677
   61SAPC  H15Y 4834   6.661   5.891   8.919 -0.5780  2.3228 -1.7848
   61SAPC  C316 4835   6.767   5.925   8.731 -0.2806 -0.0056  0.3694
   61SAPC  H16X 4836   6.874   5.922   8.699  0.9126  0.1709  3.8310
   61SAPC  H16Y 4837   6.731   6.028   8.714 -2.0113 -0.5289  0.6862
   61SAPC  C317 4838   6.671   5.834   8.655  0.1477  0.2995 -0.2071
   61SAPC  H17X 4839   6.575   5.827   8.711  0.8280  2.6759  1.4574
   61SAPC  H17Y 4840   6.714   5.732   8.656 -0.2734  0.1197  0.6972
   61SAPC  C318 4841   6.646   5.866   8.507  0.2971 -1.1644 -0.9901
   61SAPC  H18X 4842   6.617   5.973   8.504  1.9385 -0.6305  0.2578
   61SAPC  H18Y 4843   6.575   5.794   8.461 -1.2287 -0.6511  0.4615
   61SAPC  H18Z 4844   6.745   5.851   8.458  2.1699 -0.1538  2.1752
   62SAPC     N 4845   4.869   5.923  11.098  0.5363  0.1766  0.3469
   62SAPC   C12 4846   4.825   5.861  10.967 -0.3110  0.2164 -0.3601
   62SAPC  H12A 4847   4.724   5.890  10.941 -1.0253 -2.2582 -0.5787
   62SAPC  H12B 4848   4.813   5.754  10.977  0.0682  0.0861 -1.2791
   62SAPC   C13 4849   4.872   6.070  11.093  0.7245 -0.7962 -0.5979
   62SAPC  H13A 4850   4.777   6.112  11.062  0.6198 -1.1756 -0.7864
   62SAPC  H13B 4851   4.913   6.108  11.185  0.0515 -2.5781  0.4976
   62SAPC  H13C 4852   4.934   6.098  11.010 -0.3168  0.7650 -0.8883
   62SAPC   C14 4853   4.769   5.869  11.191 -0.1069 -0.7384  0.2461
   62SAPC  H14A 4854   4.776   5.761  11.202 -1.4937 -0.6708  2.7056
   62SAPC  H14B 4855   4.781   5.925  11.282 -2.4752  0.4898 -0.1266
   62SAPC  H14C 4856   4.668   5.889  11.157  0.8006  2.3579 -0.9307
   62SAPC   C15 4857   5.003   5.878  11.144 -0.5030 -0.3386  0.0154
   62SAPC  H15A 4858   5.010   5.771  11.128 -0.4632 -0.3926  0.3747
   62SAPC  H15B 4859   5.088   5.911  11.086 -1.3198  2.9289  0.5089
   62SAPC  H15C 4860   5.026   5.893  11.249  1.3691 -1.1027 -0.2307
   62SAPC   C11 4861   4.923   5.886  10.857  0.0858 -0.0480  0.5669
   62SAPC  H11A 4862   4.902   5.834  10.760 -0.5468  1.0844  0.0753
   62SAPC  H11B 4863   5.019   5.837  10.883 -1.2835 -2.5861  1.1291
   62SAPC     P 4864   4.839   6.116  10.748 -0.3719  0.4512 -0.0198
   62SAPC   O13 4865   4.729   6.163  10.836  0.2423 -0.2067 -0.2543
   62SAPC   O14 4866   4.910   6.217  10.667  0.1037 -0.1667  0.8892
   62SAPC   O12 4867   4.937   6.023  10.833 -0.5627 -0.1309 -0.1557
   62SAPC   O11 4868   4.781   6.017  10.642  0.0044 -0.2004 -0.1323
   62SAPC    C1 4869   4.645   5.970  10.661  1.3624 -0.0512 -0.2096
   62SAPC    HA 4870   4.624   5.948  10.768  1.5713  1.3494  0.1281
   62SAPC    HB 4871   4.575   6.050  10.630  0.5931 -2.3632 -5.5948
   62SAPC    C2 4872   4.606   5.843  10.579  0.1538  0.0272  0.2021
   62SAPC    HS 4873   4.675   5.769  10.625 -0.9532 -1.0623  0.1452
   62SAPC   O21 4874   4.635   5.863  10.441  0.3833  0.0218 -0.0780
   62SAPC   C21 4875   4.692   5.762  10.381 -0.1135  0.0070 -0.1390
   62SAPC   O22 4876   4.739   5.659  10.431  0.2649 -0.3171  0.1690
   62SAPC   C22 4877   4.703   5.796  10.233 -0.2211  0.4740  0.3434
   62SAPC   H2R 4878   4.618   5.860  10.199  0.4731  1.0495 -0.3485
   62SAPC   H2S 4879   4.792   5.862  10.228 -0.1650  0.3468 -0.4397
   62SAPC    C3 4880   4.465   5.795  10.586 -0.9627  0.7783 -0.6392
   62SAPC    HX 4881   4.397   5.879  10.559  0.0392  1.4096 -1.2366
   62SAPC    HY 4882   4.437   5.776  10.692  0.0085 -2.5518 -0.8539
   62SAPC   O31 4883   4.438   5.679  10.500  0.2875  0.1662  0.0816
   62SAPC   C31 4884   4.476   5.557  10.540  0.3775 -0.2785  0.1129
   62SAPC   O32 4885   4.507   5.531  10.654  0.3802 -0.5228 -0.1795
   62SAPC   C32 4886   4.476   5.455  10.430 -0.5705 -0.3467 -0.0556
   62SAPC   H2X 4887   4.448   5.355  10.471 -2.1264  0.2023  0.2862
   62SAPC   H2Y 4888   4.580   5.445  10.394 -0.0040 -1.7815  1.7838
   62SAPC   C23 4889   4.703   5.661  10.149  0.1025  0.1102  0.3830
   62SAPC   H3R 4890   4.608   5.606  10.168 -1.2960  2.1979 -0.1698
   62SAPC   H3S 4891   4.795   5.601  10.165 -1.3043 -3.1712 -2.3438
   62SAPC   C24 4892   4.703   5.676   9.992  0.1879 -0.2101  0.1361
   62SAPC   H4R 4893   4.645   5.768   9.970  2.4717  1.4181  0.6077
   62SAPC   H4S 4894   4.657   5.586   9.947 -0.6663  0.8462 -1.1699
   62SAPC   C25 4895   4.839   5.702   9.945  0.4589  0.0795 -0.5882
   62SAPC   H5R 4896   4.913   5.715  10.026  1.0492  1.4121 -1.3095
   62SAPC   C26 4897   4.894   5.686   9.825  0.4853 -0.1709 -0.1910
   62SAPC   H6R 4898   5.003   5.698   9.817  0.2565  1.7043 -0.8804
   62SAPC   C27 4899   4.820   5.642   9.701 -0.6835 -0.3255  0.3743
   62SAPC   H7R 4900   4.736   5.713   9.684  1.5054  1.9392 -1.9911
   62SAPC   H7S 4901   4.773   5.541   9.703 -0.6043 -0.3637  0.3201
   62SAPC   C28 4902   4.907   5.660   9.571  1.4893 -0.8250 -0.1515
   62SAPC   H8R 4903   5.016   5.662   9.587  1.5692 -2.0473 -0.3998
   62SAPC   C29 4904   4.852   5.676   9.447 -0.6344 -0.0230  0.7701
   62SAPC   H9R 4905   4.912   5.710   9.362 -1.3612  0.5217  0.4658
   62SAPC  C210 4906   4.709   5.667   9.422 -0.4727 -0.5945  0.3677
   62SAPC  H10R 4907   4.687   5.744   9.345 -0.9910 -1.4517 -0.3512
   62SAPC  H10S 4908   4.649   5.691   9.512  2.6821  1.1615  2.2116
   62SAPC  C211 4909   4.665   5.534   9.376  0.5264 -0.1897 -0.0109
   62SAPC  H11R 4910   4.654   5.448   9.443 -0.9951 -0.8448 -1.0294
   62SAPC  C212 4911   4.628   5.509   9.248  0.2381  0.3616 -0.3029
   62SAPC  H12R 4912   4.597   5.407   9.223  0.0316 -0.1426  1.8405
   62SAPC  C213 4913   4.634   5.609   9.133  0.1373 -0.7825  0.3074
   62SAPC  H13R 4914   4.720   5.589   9.065  0.2836  0.7622 -0.0115
   62SAPC  H13S 4915   4.653   5.712   9.171  0.2339 -1.3486  1.8631
   62SAPC  C214 4916   4.514   5.597   9.046  0.0170  0.3587  0.1848
   62SAPC  H14R 4917   4.424   5.655   9.073 -1.3761 -0.5014 -2.3194
   62SAPC  C215 4918   4.493   5.529   8.940  0.0068 -0.3445  0.1212
   62SAPC  H15R 4919   4.395   5.537   8.889  1.3980  0.0098 -2.6927
   62SAPC  C216 4920   4.588   5.456   8.855  0.0111  0.5688 -0.5186
   62SAPC  H16R 4921   4.690   5.450   8.899  0.4434  2.5405 -1.1488
   62SAPC  H16S 4922   4.603   5.524   8.769  1.0811 -0.3861 -1.0997
   62SAPC  C217 4923   4.535   5.314   8.832  0.2260  0.0951  0.1211
   62SAPC  H17R 4924   4.452   5.317   8.758 -1.1083 -4.2376  1.1214
   62SAPC  H17S 4925   4.495   5.273   8.928 -0.2587  1.6494  0.6109
   62SAPC  C218 4926   4.635   5.203   8.795  0.1680 -0.3278 -0.9953
   62SAPC  H18R 4927   4.594   5.100   8.787  0.9982 -0.8508  0.7692
   62SAPC  H18S 4928   4.705   5.194   8.882  0.4486 -1.3433 -1.3051
   62SAPC  C219 4929   4.718   5.248   8.674 -0.4905 -0.0160  0.2436
   62SAPC  H19R 4930   4.779   5.340   8.685 -3.0743  2.0776 -1.6186
   62SAPC  H19S 4931   4.653   5.263   8.585  0.9743  0.0342 -0.8401
   62SAPC  C220 4932   4.813   5.140   8.635  0.1177 -0.2617 -0.3367
   62SAPC  H20R 4933   4.879   5.116   8.721  1.8497 -2.2588 -2.0974
   62SAPC  H20S 4934   4.870   5.167   8.543  0.1816  0.7638 -0.0090
   62SAPC  H20T 4935   4.763   5.044   8.609 -1.7068  0.9369 -1.4885
   62SAPC   C33 4936   4.394   5.487  10.303 -0.6319 -0.4770 -0.6068
   62SAPC   H3X 4937   4.417   5.586  10.258  2.2404  0.4421  2.4757
   62SAPC   H3Y 4938   4.286   5.483  10.329 -0.2156 -1.5741  1.1081
   62SAPC   C34 4939   4.419   5.389  10.190  0.4052 -0.3687 -0.1712
   62SAPC   H4X 4940   4.416   5.285  10.229  1.0708 -0.7565 -1.1400
   62SAPC   H4Y 4941   4.513   5.401  10.132  2.3517  0.3313  2.8828
   62SAPC   C35 4942   4.306   5.412  10.088  0.7434  0.2259  0.5886
   62SAPC   H5X 4943   4.300   5.523  10.084  3.3061  0.6166  3.2537
   62SAPC   H5Y 4944   4.203   5.378  10.111 -0.0670  2.2088  0.0872
   62SAPC   C36 4945   4.328   5.340   9.955  0.1135  0.0528  0.9253
   62SAPC   H6X 4946   4.242   5.344   9.885  0.4838 -3.4747  0.1008
   62SAPC   H6Y 4947   4.344   5.232   9.973 -1.5645 -0.7582 -1.8452
   62SAPC   C37 4948   4.446   5.405   9.876  0.2195 -0.0377 -0.7079
   62SAPC   H7X 4949   4.532   5.340   9.902 -0.0399 -0.7494 -1.5677
   62SAPC   H7Y 4950   4.437   5.513   9.901  0.2573 -0.3121  0.5499
   62SAPC   C38 4951   4.431   5.400   9.719 -0.0148  0.1701 -1.0377
   62SAPC   H8X 4952   4.490   5.486   9.681  1.5694  0.0842  0.9768
   62SAPC   H8Y 4953   4.323   5.403   9.694 -0.3391 -2.0043 -0.1765
   62SAPC   C39 4954   4.504   5.277   9.659  0.3881 -0.9843 -0.0789
   62SAPC   H9X 4955   4.494   5.189   9.725 -1.4737 -1.4316 -0.9148
   62SAPC   H9Y 4956   4.613   5.300   9.658  0.3435 -0.7124  0.7228
   62SAPC  C310 4957   4.456   5.243   9.518 -0.1534  0.4209  0.2879
   62SAPC  H10X 4958   4.462   5.326   9.445  0.6986 -1.3238 -1.7697
   62SAPC  H10Y 4959   4.351   5.211   9.530  0.2132 -0.7128  0.7020
   62SAPC  C311 4960   4.541   5.137   9.450  0.2717  0.3225  0.3205
   62SAPC  H11X 4961   4.531   5.045   9.512 -1.1711 -0.0921 -0.4919
   62SAPC  H11Y 4962   4.649   5.163   9.449  0.2787  0.2822 -0.8149
   62SAPC  C312 4963   4.489   5.096   9.309 -0.2740  0.5484  0.2979
   62SAPC  H12X 4964   4.493   5.182   9.239  1.2084 -0.0758 -0.4166
   62SAPC  H12Y 4965   4.382   5.067   9.319 -0.3164  0.2130 -1.0219
   62SAPC  C313 4966   4.572   4.977   9.255 -0.8365  0.0457 -0.3020
   62SAPC  H13X 4967   4.552   4.883   9.311 -0.6618 -0.1042 -0.4901
   62SAPC  H13Y 4968   4.682   4.991   9.259 -0.4773 -2.4943  1.6961
   62SAPC  C314 4969   4.531   4.956   9.109  0.6561  0.5065  0.5119
   62SAPC  H14X 4970   4.550   5.046   9.047 -0.0583 -0.5019 -1.2442
   62SAPC  H14Y 4971   4.421   4.950   9.095  0.6423  1.3241  0.1945
   62SAPC  C315 4972   4.583   4.832   9.031  0.1366  0.1583  0.4940
   62SAPC  H15X 4973   4.549   4.840   8.925  2.7020 -0.3813 -0.4455
   62SAPC  H15Y 4974   4.524   4.743   9.063 -1.2949  0.3430 -1.4024
   62SAPC  C316 4975   4.735   4.812   9.019 -0.0175  0.3034 -0.2134
   62SAPC  H16X 4976   4.754   4.709   8.982  2.2866  0.2408  0.9628
   62SAPC  H16Y 4977   4.767   4.807   9.125  0.7191  0.4924 -0.4213
   62SAPC  C317 4978   4.824   4.907   8.938  0.8595 -0.1832 -0.1553
   62SAPC  H17X 4979   4.808   5.007   8.982 -0.6459  0.0862 -1.2275
   62SAPC  H17Y 4980   4.790   4.913   8.832 -0.7632 -0.6638  0.3216
   62SAPC  C318 4981   4.971   4.870   8.942  0.1112 -0.6669 -0.0342
   62SAPC  H18X 4982   4.990   4.773   8.892 -0.6322 -0.7647 -0.1291
   62SAPC  H18Y 4983   5.008   4.865   9.047  0.0446 -1.6684 -0.0516
   62SAPC  H18Z 4984   5.030   4.950   8.892 -1.2126  0.3361 -0.0556
   63SAPC     N 4985   1.187   2.926   6.038  0.1800 -0.4091 -0.7923
   63SAPC   C12 4986   1.145   2.987   6.173  0.9780 -0.5146  0.6584
   63SAPC  H12A 4987   1.076   3.069   6.161 -0.1380 -1.2893  1.5206
   63SAPC  H12B 4988   1.230   3.036   6.218  1.5661 -2.2994  1.6100
   63SAPC   C13 4989   1.303   2.829   6.057  0.1837  0.1826  0.0061
   63SAPC  H13A 4990   1.396   2.878   6.081  1.0589 -1.3030 -0.2125
   63SAPC  H13B 4991   1.279   2.752   6.129 -2.4753  0.3724 -0.5756
   63SAPC  H13C 4992   1.319   2.778   5.963  0.1123  1.9009 -0.9751
   63SAPC   C14 4993   1.069   2.862   5.969  0.5223 -0.3964 -0.0302
   63SAPC  H14A 4994   1.075   2.873   5.861 -1.5246 -1.8021 -0.3484
   63SAPC  H14B 4995   1.065   2.761   6.004  1.8069 -0.1840  0.7734
   63SAPC  H14C 4996   0.974   2.901   6.004  0.9209  0.1593  0.4501
   63SAPC   C15 4997   1.246   3.032   5.950 -0.3332 -0.1730 -0.2140
   63SAPC  H15A 4998   1.292   2.990   5.862 -0.4108  0.9272 -0.7984
   63SAPC  H15B 4999   1.164   3.096   5.921 -0.0645 -1.3232 -4.0771
   63SAPC  H15C 5000   1.318   3.090   6.005  0.5520 -1.5250  0.1227
   63SAPC   C11 5001   1.084   2.897   6.282 -0.0770  0.3464 -0.1934
   63SAPC  H11A 5002   1.001   2.849   6.226 -0.6519  1.2728 -0.1422
   63SAPC  H11B 5003   1.052   2.959   6.368  1.1456  1.8644 -0.7917
   63SAPC     P 5004   1.301   2.849   6.419  0.1234 -0.2107  0.0958
   63SAPC   O13 5005   1.415   2.756   6.408 -0.1410 -0.4711  0.0648
   63SAPC   O14 5006   1.336   2.992   6.399  0.5568 -0.0667  0.3003
   63SAPC   O12 5007   1.186   2.801   6.325  0.6952 -0.0892  0.5400
   63SAPC   O11 5008   1.231   2.845   6.559  0.1006 -0.1150 -0.5779
   63SAPC    C1 5009   1.132   2.740   6.591 -0.4862  0.4596 -0.1972
   63SAPC    HA 5010   1.051   2.737   6.515 -1.2667 -0.0879  0.6347
   63SAPC    HB 5011   1.179   2.640   6.578  0.7763  0.8776  0.9327
   63SAPC    C2 5012   1.092   2.741   6.740 -0.4503  0.0853 -0.4717
   63SAPC    HS 5013   1.026   2.660   6.778  1.8859 -2.3825 -1.3762
   63SAPC   O21 5014   1.035   2.874   6.773  0.0935  0.7887  0.1847
   63SAPC   C21 5015   0.962   2.870   6.883 -0.3970 -0.0505  0.6873
   63SAPC   O22 5016   0.922   2.766   6.934  0.2656 -0.3332  0.1513
   63SAPC   C22 5017   0.943   3.013   6.933  0.9682 -0.0665 -0.9709
   63SAPC   H2R 5018   1.005   3.085   6.875  0.9363 -0.1330 -1.0878
   63SAPC   H2S 5019   0.837   3.035   6.907  0.5699  0.1328  0.7103
   63SAPC    C3 5020   1.219   2.729   6.830  0.1599 -0.7612  0.2526
   63SAPC    HX 5021   1.281   2.820   6.814 -0.1386 -1.0483 -3.3727
   63SAPC    HY 5022   1.282   2.655   6.775  2.2121  0.5788  0.7145
   63SAPC   O31 5023   1.195   2.705   6.967 -0.4572  0.6202  0.3598
   63SAPC   C31 5024   1.160   2.578   7.000  0.3311 -0.6581  0.0892
   63SAPC   O32 5025   1.135   2.495   6.912 -0.5776 -0.1193  0.1391
   63SAPC   C32 5026   1.119   2.566   7.146 -0.4912 -0.0990  0.0937
   63SAPC   H2X 5027   1.028   2.502   7.150  0.6248 -1.7138  1.3756
   63SAPC   H2Y 5028   1.106   2.661   7.202 -0.3365  0.9807 -1.6643
   63SAPC   C23 5029   0.966   3.023   7.088 -0.4639 -0.1424 -0.2487
   63SAPC   H3R 5030   0.955   2.928   7.145 -0.1163  0.7402  1.3640
   63SAPC   H3S 5031   0.880   3.084   7.123 -0.0693  0.0925  0.3277
   63SAPC   C24 5032   1.105   3.079   7.130  0.2750 -0.4268 -0.1855
   63SAPC   H4R 5033   1.098   3.111   7.236 -2.1026 -0.9793 -0.1112
   63SAPC   H4S 5034   1.127   3.171   7.072  1.7545 -1.8902 -2.1261
   63SAPC   C25 5035   1.221   2.985   7.108 -0.8049 -0.0865  0.0774
   63SAPC   H5R 5036   1.273   2.990   7.011  2.8903 -2.3223  1.7153
   63SAPC   C26 5037   1.256   2.898   7.208  0.0025  0.6438  0.1287
   63SAPC   H6R 5038   1.334   2.825   7.182  0.3336  1.0690 -0.0912
   63SAPC   C27 5039   1.180   2.876   7.336 -0.1720 -0.2411  0.0668
   63SAPC   H7R 5040   1.206   2.775   7.375  1.9467  0.2774  0.1256
   63SAPC   H7S 5041   1.070   2.879   7.319 -0.1986  0.7946  0.3695
   63SAPC   C28 5042   1.210   2.978   7.442  0.1175 -0.3712 -0.1231
   63SAPC   H8R 5043   1.247   3.070   7.396  2.1380 -0.1275  1.8213
   63SAPC   C29 5044   1.232   2.954   7.572 -0.5617 -0.4428 -0.1584
   63SAPC   H9R 5045   1.268   3.043   7.626  2.3758 -0.6628 -1.5496
   63SAPC  C210 5046   1.227   2.827   7.642  0.0623  0.6992  0.2076
   63SAPC  H10R 5047   1.246   2.846   7.750 -1.2583  2.5337  0.1665
   63SAPC  H10S 5048   1.308   2.766   7.596  1.8582  3.4668 -0.5670
   63SAPC  C211 5049   1.092   2.758   7.645  0.2644  0.1722  0.0227
   63SAPC  H11R 5050   1.043   2.751   7.547  0.8141 -0.8095 -0.2031
   63SAPC  C212 5051   1.035   2.697   7.756  0.4552 -0.2720  0.2477
   63SAPC  H12R 5052   0.945   2.636   7.739 -0.6964  1.0529  1.3662
   63SAPC  C213 5053   1.080   2.705   7.900 -0.1692 -0.2299  0.6986
   63SAPC  H13R 5054   1.002   2.655   7.962  0.5488  0.6705  2.3723
   63SAPC  H13S 5055   1.081   2.813   7.923 -0.3801 -0.2793  0.9382
   63SAPC  C214 5056   1.216   2.652   7.935  0.3545 -0.0546 -0.7864
   63SAPC  H14R 5057   1.305   2.688   7.881  0.7656 -2.1412 -1.6163
   63SAPC  C215 5058   1.237   2.550   8.025  0.2220 -0.9158  0.8290
   63SAPC  H15R 5059   1.340   2.539   8.061  0.2291  1.0128  1.5155
   63SAPC  C216 5060   1.132   2.482   8.101  0.7810  0.4915 -0.1777
   63SAPC  H16R 5061   1.037   2.472   8.044  1.1707 -5.1114 -0.4037
   63SAPC  H16S 5062   1.106   2.531   8.197 -1.1938  0.9155 -0.8914
   63SAPC  C217 5063   1.169   2.336   8.124  0.3411 -0.2846  0.0107
   63SAPC  H17R 5064   1.181   2.271   8.036  1.7304  0.2711 -0.2331
   63SAPC  H17S 5065   1.089   2.296   8.190 -0.8107  1.1895 -0.4027
   63SAPC  C218 5066   1.294   2.324   8.210 -0.1053 -0.0753 -0.1024
   63SAPC  H18R 5067   1.290   2.419   8.266 -0.5294 -0.0604 -0.1560
   63SAPC  H18S 5068   1.391   2.322   8.156  0.3857  0.2421  0.7536
   63SAPC  C219 5069   1.295   2.205   8.305 -0.0574 -0.4663 -0.7728
   63SAPC  H19R 5070   1.225   2.229   8.388 -1.0533  0.2575 -1.7976
   63SAPC  H19S 5071   1.397   2.199   8.348 -0.0825 -2.9793 -0.9003
   63SAPC  C220 5072   1.264   2.069   8.247 -0.4848 -0.2670 -0.3097
   63SAPC  H20R 5073   1.217   2.003   8.322  0.2582 -1.3445 -0.7556
   63SAPC  H20S 5074   1.366   2.030   8.226  1.6244  2.6920  3.1966
   63SAPC  H20T 5075   1.215   2.067   8.147  2.3475 -1.2605 -1.8137
   63SAPC   C33 5076   1.222   2.488   7.231 -0.1270  0.5241 -0.0921
   63SAPC   H3X 5077   1.191   2.503   7.337 -0.0385  0.8742 -0.1124
   63SAPC   H3Y 5078   1.321   2.536   7.215 -0.0568  0.2333 -0.5408
   63SAPC   C34 5079   1.219   2.342   7.200 -0.2930  0.2044  0.2029
   63SAPC   H4X 5080   1.245   2.317   7.094  2.8978 -3.5949  1.6204
   63SAPC   H4Y 5081   1.113   2.311   7.209 -1.0429  2.7486  0.6604
   63SAPC   C35 5082   1.312   2.255   7.290 -0.1720  0.0679 -0.2215
   63SAPC   H5X 5083   1.296   2.287   7.395 -4.0263  1.7205 -1.1345
   63SAPC   H5Y 5084   1.420   2.275   7.271 -0.4559  1.4537 -0.4874
   63SAPC   C36 5085   1.260   2.107   7.288 -0.1308 -0.1396 -0.3141
   63SAPC   H6X 5086   1.318   2.050   7.363 -0.1349 -0.5454 -0.6129
   63SAPC   H6Y 5087   1.269   2.068   7.184 -0.6163  0.5640 -0.6317
   63SAPC   C37 5088   1.108   2.081   7.330 -0.0886  0.9547 -0.6765
   63SAPC   H7X 5089   1.087   1.974   7.309 -3.0470  1.4834 -0.7732
   63SAPC   H7Y 5090   1.034   2.133   7.266 -0.3014 -1.2231 -2.3349
   63SAPC   C38 5091   1.071   2.122   7.470 -0.0714  0.0776  0.2932
   63SAPC   H8X 5092   1.051   2.230   7.480 -0.1862  0.1839 -0.9705
   63SAPC   H8Y 5093   1.155   2.101   7.539 -1.2839  3.1974  2.9393
   63SAPC   C39 5094   0.946   2.058   7.533 -0.8102  0.2207  1.0445
   63SAPC   H9X 5095   0.959   1.948   7.534 -0.6316  0.2249  0.2493
   63SAPC   H9Y 5096   0.859   2.080   7.468  0.0143 -0.2091 -0.2562
   63SAPC  C310 5097   0.919   2.106   7.679  0.3933  0.1212  0.3331
   63SAPC  H10X 5098   0.893   2.214   7.680  0.6691  0.1852  0.5931
   63SAPC  H10Y 5099   1.009   2.107   7.743 -0.1948 -3.4832  1.4551
   63SAPC  C311 5100   0.791   2.037   7.745 -0.7595  0.6105 -0.7121
   63SAPC  H11X 5101   0.826   1.933   7.760 -1.4266  0.6332  1.4005
   63SAPC  H11Y 5102   0.701   2.042   7.680 -0.3503 -1.3204 -1.4820
   63SAPC  C312 5103   0.763   2.095   7.892 -0.1463  0.2614  0.1179
   63SAPC  H12X 5104   0.652   2.102   7.893 -0.3948 -1.3138 -3.1754
   63SAPC  H12Y 5105   0.809   2.196   7.896 -0.1912  0.2327  1.6692
   63SAPC  C313 5106   0.804   2.004   8.009 -0.2513  0.7472 -0.1563
   63SAPC  H13X 5107   0.910   2.018   8.041 -0.4074  0.4960  0.4831
   63SAPC  H13Y 5108   0.808   1.896   7.980 -0.7783  1.1089 -1.6563
   63SAPC  C314 5109   0.721   2.016   8.142  0.4524  0.3700  0.3513
   63SAPC  H14X 5110   0.617   1.977   8.136  1.2552 -1.9357  0.1743
   63SAPC  H14Y 5111   0.714   2.123   8.167  1.2780  0.5176 -0.0072
   63SAPC  C315 5112   0.793   1.946   8.257  0.1758 -0.4993 -0.2781
   63SAPC  H15X 5113   0.885   2.006   8.270 -0.1714 -0.0368  0.0543
   63SAPC  H15Y 5114   0.827   1.844   8.229  1.9679  0.3610 -1.3659
   63SAPC  C316 5115   0.719   1.965   8.389  0.3863 -0.0969  0.6049
   63SAPC  H16X 5116   0.610   1.945   8.385 -0.0307  2.1593 -1.0555
   63SAPC  H16Y 5117   0.733   2.071   8.420 -1.5672 -0.6023  3.6131
   63SAPC  C317 5118   0.784   1.875   8.490 -0.6735  0.7846  0.5396
   63SAPC  H17X 5119   0.894   1.870   8.474 -0.4138  3.1538  1.1734
   63SAPC  H17Y 5120   0.743   1.774   8.475  0.5253  0.2052  0.9889
   63SAPC  C318 5121   0.760   1.914   8.636 -0.6032 -0.5089 -0.1467
   63SAPC  H18X 5122   0.651   1.914   8.660 -0.4159 -0.7962  0.7604
   63SAPC  H18Y 5123   0.800   2.014   8.660  1.6260 -1.4543  0.3199
   63SAPC  H18Z 5124   0.822   1.846   8.699  0.0252  0.7380  0.6113
   64SAPC     N 5125   4.995   0.750   5.987  0.1270 -0.4145 -0.2053
   64SAPC   C12 5126   5.121   0.791   5.917 -0.5032 -0.0082 -0.3038
   64SAPC  H12A 5127   5.101   0.799   5.811 -0.2914  2.5069 -0.2084
   64SAPC  H12B 5128   5.197   0.715   5.930  1.2186  1.4138 -1.4392
   64SAPC   C13 5129   5.014   0.738   6.134 -0.6124  0.1927  0.0254
   64SAPC  H13A 5130   5.094   0.667   6.153  1.8493  2.9126  0.5268
   64SAPC  H13B 5131   5.030   0.834   6.179  0.2402  0.6105 -1.1235
   64SAPC  H13C 5132   4.918   0.711   6.175 -1.6202 -0.6526 -2.6856
   64SAPC   C14 5133   4.884   0.845   5.959  0.2265  0.5107  0.0012
   64SAPC  H14A 5134   4.884   0.878   5.856 -1.3818 -0.5644 -0.3809
   64SAPC  H14B 5135   4.789   0.794   5.970  1.4777 -1.9322  0.2318
   64SAPC  H14C 5136   4.887   0.931   6.024  0.8491 -0.3617  1.1549
   64SAPC   C15 5137   4.951   0.616   5.947 -0.2317 -0.1952 -0.6213
   64SAPC  H15A 5138   4.919   0.617   5.844 -0.9545  0.2684 -0.4088
   64SAPC  H15B 5139   5.018   0.535   5.970 -1.2401 -0.6399  0.9752
   64SAPC  H15C 5140   4.864   0.588   6.005 -0.5703 -0.1811 -1.1154
   64SAPC   C11 5141   5.191   0.923   5.969 -0.9016 -0.3283 -0.2740
   64SAPC  H11A 5142   5.273   0.953   5.900 -1.3224 -1.1941 -1.1755
   64SAPC  H11B 5143   5.239   0.891   6.064  2.0946  0.3082 -1.4416
   64SAPC     P 5144   5.061   1.134   5.887 -0.1686  0.0741 -0.3389
   64SAPC   O13 5145   5.145   1.106   5.767  0.1229 -0.0535  0.7121
   64SAPC   O14 5146   4.913   1.132   5.877 -0.7389  0.3979  0.7571
   64SAPC   O12 5147   5.107   1.035   6.002  0.5394  0.3687 -0.0027
   64SAPC   O11 5148   5.094   1.271   5.948 -0.2181  0.1592 -0.0930
   64SAPC    C1 5149   5.214   1.304   6.023  0.4204 -0.3507  0.7007
   64SAPC    HA 5150   5.302   1.238   6.008 -0.3474 -1.3462  0.4739
   64SAPC    HB 5151   5.242   1.402   5.980  2.4032 -0.7118  1.0814
   64SAPC    C2 5152   5.185   1.338   6.170  0.4841 -0.8624  0.2790
   64SAPC    HS 5153   5.274   1.384   6.217  0.0895 -1.1195  1.2993
   64SAPC   O21 5154   5.146   1.222   6.240 -0.0781  0.4178 -0.2678
   64SAPC   C21 5155   5.244   1.142   6.281  0.7190  0.2993  0.3709
   64SAPC   O22 5156   5.361   1.162   6.262  0.1480 -0.7538 -0.0100
   64SAPC   C22 5157   5.186   1.011   6.342  0.3150 -0.1799  0.2583
   64SAPC   H2R 5158   5.093   0.998   6.283  1.8275 -1.2320 -2.0155
   64SAPC   H2S 5159   5.257   0.932   6.312 -0.2659  0.2358 -2.4979
   64SAPC    C3 5160   5.072   1.445   6.183  0.2514 -0.4273  0.0216
   64SAPC    HX 5161   4.972   1.410   6.149  0.4015  0.2574 -1.1723
   64SAPC    HY 5162   5.098   1.527   6.112  2.3920 -0.6200  0.5211
   64SAPC   O31 5163   5.058   1.496   6.313  0.2143  0.6071  0.0398
   64SAPC   C31 5164   4.991   1.430   6.395  0.5670 -0.2237  0.2617
   64SAPC   O32 5165   4.915   1.337   6.370  0.2426  0.5386 -0.3064
   64SAPC   C32 5166   5.018   1.491   6.532 -0.1177  0.2864 -0.7017
   64SAPC   H2X 5167   4.923   1.475   6.589  0.7138  1.0518  0.9842
   64SAPC   H2Y 5168   5.047   1.597   6.517 -1.8204  0.7261 -1.1215
   64SAPC   C23 5169   5.156   1.020   6.494 -0.5521 -0.5345 -0.2455
   64SAPC   H3R 5170   5.096   0.929   6.518 -0.5743 -0.1174  1.4251
   64SAPC   H3S 5171   5.098   1.114   6.501  0.4297  0.3007 -2.5064
   64SAPC   C24 5172   5.280   1.031   6.589 -0.3017 -0.1912 -0.0641
   64SAPC   H4R 5173   5.247   1.025   6.695  1.3098  2.4250  0.6752
   64SAPC   H4S 5174   5.303   1.140   6.586 -4.1580  0.8598  1.6720
   64SAPC   C25 5175   5.405   0.952   6.564  0.2441  0.1648  0.3190
   64SAPC   H5R 5176   5.443   0.967   6.462 -0.8080 -2.1387 -0.4651
   64SAPC   C26 5177   5.470   0.862   6.641 -0.2370  0.7063  0.4101
   64SAPC   H6R 5178   5.562   0.816   6.602 -0.1302 -1.3289  2.8063
   64SAPC   C27 5179   5.443   0.818   6.780 -0.1323 -0.4329  0.1347
   64SAPC   H7R 5180   5.334   0.811   6.801 -0.1460  0.7148  0.5390
   64SAPC   H7S 5181   5.487   0.895   6.846  0.9454  0.7820 -1.8825
   64SAPC   C28 5182   5.497   0.687   6.827 -0.0969  0.3807 -0.3431
   64SAPC   H8R 5183   5.428   0.602   6.817  1.4512 -0.9292 -0.2170
   64SAPC   C29 5184   5.620   0.652   6.874  0.2424 -0.2941  0.3895
   64SAPC   H9R 5185   5.646   0.545   6.881 -1.3690 -0.9698 -2.5444
   64SAPC  C210 5186   5.732   0.755   6.900  0.1153 -0.4574 -0.0084
   64SAPC  H10R 5187   5.683   0.838   6.956  2.3926  1.4776 -0.7190
   64SAPC  H10S 5188   5.766   0.800   6.804 -0.6527  1.9824  0.7894
   64SAPC  C211 5189   5.846   0.699   6.974  0.7275  0.3683 -0.0060
   64SAPC  H11R 5190   5.932   0.691   6.906  0.9436  1.3466  0.1409
   64SAPC  C212 5191   5.851   0.652   7.099 -0.7772  0.2419 -0.1148
   64SAPC  H12R 5192   5.947   0.609   7.131 -1.3423 -0.3460  0.8596
   64SAPC  C213 5193   5.741   0.653   7.201  0.6144  0.3215 -0.8158
   64SAPC  H13R 5194   5.698   0.552   7.212  1.1754  0.1093 -0.5110
   64SAPC  H13S 5195   5.663   0.724   7.167 -1.6527 -1.1267  1.0784
   64SAPC  C214 5196   5.789   0.708   7.333 -0.1826 -1.0032 -0.0818
   64SAPC  H14R 5197   5.875   0.775   7.316 -1.7407  0.8995 -0.8839
   64SAPC  C215 5198   5.748   0.680   7.454 -0.0235 -0.2419  0.2333
   64SAPC  H15R 5199   5.794   0.744   7.531 -1.1249  0.0639  0.6619
   64SAPC  C216 5200   5.638   0.583   7.488  0.4329 -0.7476 -0.3797
   64SAPC  H16R 5201   5.629   0.500   7.414  0.2833 -0.2388 -0.9419
   64SAPC  H16S 5202   5.539   0.633   7.482 -1.6138 -4.3150  0.7534
   64SAPC  C217 5203   5.668   0.510   7.623 -0.1599 -0.1998 -0.3388
   64SAPC  H17R 5204   5.766   0.459   7.623 -0.6828 -1.2340 -0.9711
   64SAPC  H17S 5205   5.599   0.425   7.639 -0.3270  0.2016  1.2738
   64SAPC  C218 5206   5.646   0.614   7.742  0.6763 -0.0769 -0.6408
   64SAPC  H18R 5207   5.537   0.632   7.735  0.3768 -0.6639  1.6967
   64SAPC  H18S 5208   5.698   0.706   7.707 -0.9446  0.1913 -2.5402
   64SAPC  C219 5209   5.690   0.574   7.886 -0.1801 -0.1767 -0.4456
   64SAPC  H19R 5210   5.798   0.550   7.887 -0.0672  0.3183 -0.3423
   64SAPC  H19S 5211   5.645   0.477   7.916 -1.5021  0.6390  0.3361
   64SAPC  C220 5212   5.656   0.666   8.006  0.0769  1.1855  0.3230
   64SAPC  H20R 5213   5.695   0.619   8.098 -0.6525 -1.6458 -0.7287
   64SAPC  H20S 5214   5.545   0.670   8.005 -0.0015 -0.1956  1.7524
   64SAPC  H20T 5215   5.711   0.763   7.999  1.2447  0.4417 -1.4368
   64SAPC   C33 5216   5.132   1.415   6.608  0.0192  0.3738  0.0999
   64SAPC   H3X 5217   5.229   1.404   6.555 -0.6287 -0.4904 -0.9538
   64SAPC   H3Y 5218   5.102   1.310   6.631  0.5983  0.6369  2.3881
   64SAPC   C34 5219   5.165   1.489   6.744 -0.6134  0.0061  0.2873
   64SAPC   H4X 5220   5.068   1.493   6.797 -0.0284  1.6064  1.3147
   64SAPC   H4Y 5221   5.196   1.595   6.728  0.9187 -0.5218 -0.4922
   64SAPC   C35 5222   5.285   1.423   6.813  0.2166  0.4223 -0.1084
   64SAPC   H5X 5223   5.363   1.416   6.734  1.3355 -2.2413  1.1222
   64SAPC   H5Y 5224   5.269   1.315   6.832  0.8346  0.0869 -1.3736
   64SAPC   C36 5225   5.316   1.495   6.939 -0.2181  0.2843 -0.2184
   64SAPC   H6X 5226   5.298   1.605   6.935  3.4659  1.1347  2.2878
   64SAPC   H6Y 5227   5.423   1.483   6.964 -0.0409 -0.4667 -1.2720
   64SAPC   C37 5228   5.224   1.448   7.059  0.1443  0.2154 -0.9324
   64SAPC   H7X 5229   5.236   1.339   7.080 -1.1877 -0.0343 -1.3529
   64SAPC   H7Y 5230   5.124   1.468   7.015  0.6545  0.7391 -1.8867
   64SAPC   C38 5231   5.258   1.526   7.185 -0.5652  0.2570 -0.4637
   64SAPC   H8X 5232   5.210   1.626   7.177 -1.0495 -0.0805 -2.2009
   64SAPC   H8Y 5233   5.367   1.534   7.202 -0.6637  0.8919 -0.0924
   64SAPC   C39 5234   5.193   1.466   7.309  0.4690 -0.4401  0.1109
   64SAPC   H9X 5235   5.206   1.356   7.300 -0.3075 -0.4788 -0.7243
   64SAPC   H9Y 5236   5.083   1.483   7.310  0.6744  1.0815 -0.4803
   64SAPC  C310 5237   5.257   1.512   7.437 -0.3127 -0.5772  0.2760
   64SAPC  H10X 5238   5.192   1.553   7.517 -1.2485  1.0232 -1.2338
   64SAPC  H10Y 5239   5.329   1.592   7.409  0.1046 -0.8556  0.5392
   64SAPC  C311 5240   5.317   1.392   7.517 -0.4805  0.3647  0.0537
   64SAPC  H11X 5241   5.357   1.317   7.445 -1.1380  1.7100 -1.8074
   64SAPC  H11Y 5242   5.232   1.346   7.572 -0.6469 -0.1727 -0.6310
   64SAPC  C312 5243   5.431   1.422   7.611 -0.1654 -0.1840 -0.4994
   64SAPC  H12X 5244   5.514   1.459   7.546 -0.0599  0.1112 -0.2033
   64SAPC  H12Y 5245   5.457   1.325   7.657  1.1244 -0.2285 -1.2776
   64SAPC  C313 5246   5.399   1.542   7.701 -0.6190  0.6883 -0.4258
   64SAPC  H13X 5247   5.301   1.522   7.751 -0.3199  1.2845  0.4194
   64SAPC  H13Y 5248   5.393   1.629   7.632  1.5035  0.9528 -0.3198
   64SAPC  C314 5249   5.508   1.568   7.809 -0.1370  0.3193  0.3312
   64SAPC  H14X 5250   5.598   1.611   7.759 -1.0987  2.5898  0.4701
   64SAPC  H14Y 5251   5.542   1.471   7.852 -1.6054  0.0090  0.8500
   64SAPC  C315 5252   5.457   1.647   7.920 -0.0364  0.1439  0.5379
   64SAPC  H15X 5253   5.358   1.601   7.942 -0.4641 -0.7877 -2.7694
   64SAPC  H15Y 5254   5.434   1.753   7.896 -0.3852  0.0641  0.5169
   64SAPC  C316 5255   5.546   1.654   8.049 -0.0401 -0.0250 -0.1979
   64SAPC  H16X 5256   5.638   1.707   8.016 -0.1468  0.6997  0.6410
   64SAPC  H16Y 5257   5.561   1.552   8.091  0.5565  0.3539  0.5459
   64SAPC  C317 5258   5.474   1.730   8.156  0.1688  0.5282  0.6634
   64SAPC  H17X 5259   5.433   1.828   8.122 -2.8659 -0.2411  1.7808
   64SAPC  H17Y 5260   5.552   1.747   8.234  2.8641  0.9820 -1.9459
   64SAPC  C318 5261   5.354   1.668   8.231 -0.1022  0.4529  0.0197
   64SAPC  H18X 5262   5.275   1.640   8.159  0.2937 -0.0687 -0.2203
   64SAPC  H18Y 5263   5.314   1.742   8.303  0.0929  0.3009  0.2893
   64SAPC  H18Z 5264   5.385   1.577   8.287 -0.6393  0.1545 -0.1639
   65SAPC     N 5265   2.979   6.381   6.211  0.1197 -0.1344 -0.1503
   65SAPC   C12 5266   2.837   6.338   6.264  0.1251 -0.1129 -0.4320
   65SAPC  H12A 5267   2.775   6.336   6.175  2.3731  0.3999 -2.1108
   65SAPC  H12B 5268   2.803   6.418   6.328 -1.3505 -0.9823 -0.0899
   65SAPC   C13 5269   3.031   6.268   6.122 -0.0454 -0.2355  0.4322
   65SAPC  H13A 5270   3.024   6.175   6.176 -2.7060 -0.5043 -0.2289
   65SAPC  H13B 5271   2.982   6.250   6.027  3.3098 -0.4764 -1.3989
   65SAPC  H13C 5272   3.134   6.281   6.092  0.0023 -2.6084 -0.6604
   65SAPC   C14 5273   2.963   6.506   6.135  0.2422 -0.4694 -0.7466
   65SAPC  H14A 5274   2.951   6.596   6.194 -3.5385 -0.2766 -1.5300
   65SAPC  H14B 5275   3.050   6.515   6.072  0.3534  1.1358 -0.4021
   65SAPC  H14C 5276   2.875   6.505   6.073  0.1663  0.2923 -0.6649
   65SAPC   C15 5277   3.063   6.405   6.337  0.1004  0.4155  0.8864
   65SAPC  H15A 5278   3.071   6.313   6.392  2.2380  2.7139  4.9469
   65SAPC  H15B 5279   3.163   6.438   6.314 -0.3261 -0.4356 -2.7914
   65SAPC  H15C 5280   3.023   6.484   6.400 -1.1723  0.8090 -0.3707
   65SAPC   C11 5281   2.817   6.206   6.344  0.0499  0.3292 -0.0651
   65SAPC  H11A 5282   2.708   6.203   6.366  0.4665 -0.1925  2.1916
   65SAPC  H11B 5283   2.869   6.217   6.442 -0.9790 -1.9075  0.8020
   65SAPC     P 5284   2.770   5.998   6.196 -0.1707 -0.3187 -0.5960
   65SAPC   O13 5285   2.656   6.074   6.136 -0.0108 -0.4656  0.1136
   65SAPC   O14 5286   2.865   5.935   6.098  0.2572 -0.7119 -0.2911
   65SAPC   O12 5287   2.861   6.087   6.283 -0.4191  0.2343  0.0418
   65SAPC   O11 5288   2.732   5.892   6.302  0.2961  0.2403 -0.5422
   65SAPC    C1 5289   2.638   5.898   6.408 -0.2711 -0.1636  0.5756
   65SAPC    HA 5290   2.619   6.005   6.431  1.7222  0.3412  0.0973
   65SAPC    HB 5291   2.544   5.846   6.379 -1.2950  0.7932  2.0014
   65SAPC    C2 5292   2.697   5.826   6.538  0.0275  0.6338 -0.4321
   65SAPC    HS 5293   2.640   5.842   6.633 -1.1183  0.2381 -1.0318
   65SAPC   O21 5294   2.824   5.885   6.563 -0.5625  0.5668  0.0550
   65SAPC   C21 5295   2.825   6.007   6.620 -0.3722  0.4451  0.3408
   65SAPC   O22 5296   2.731   6.067   6.670 -0.4803  0.9043  0.2754
   65SAPC   C22 5297   2.973   6.044   6.639 -0.2237 -0.1123  0.3571
   65SAPC   H2R 5298   3.012   6.023   6.537  0.2768  0.2507  0.4688
   65SAPC   H2S 5299   2.989   6.152   6.660  2.3699 -0.5751  1.1844
   65SAPC    C3 5300   2.719   5.671   6.508 -0.7087 -0.0079 -0.4767
   65SAPC    HX 5301   2.756   5.658   6.404 -0.4848 -0.7565 -0.3036
   65SAPC    HY 5302   2.626   5.612   6.497 -0.7696  0.0683 -0.3740
   65SAPC   O31 5303   2.799   5.594   6.602  0.1269 -0.1301  0.4548
   65SAPC   C31 5304   2.932   5.581   6.578  0.9418  0.8154  0.7286
   65SAPC   O32 5305   2.992   5.606   6.476 -0.2635  0.4988 -0.0199
   65SAPC   C32 5306   2.997   5.550   6.712  0.1380 -0.2339  0.5285
   65SAPC   H2X 5307   2.934   5.476   6.765 -0.6578  0.3581  0.4287
   65SAPC   H2Y 5308   2.983   5.635   6.783  0.4625 -0.4719  0.8866
   65SAPC   C23 5309   3.044   5.963   6.747 -0.1032  0.1221  0.0880
   65SAPC   H3R 5310   3.155   5.970   6.746  0.1812 -2.3157  2.4871
   65SAPC   H3S 5311   3.034   5.854   6.723 -1.5177  0.3506 -0.4602
   65SAPC   C24 5312   2.990   5.991   6.888 -0.0529  0.1543  0.0899
   65SAPC   H4R 5313   2.881   5.970   6.899  0.1261  0.0470  1.8734
   65SAPC   H4S 5314   3.011   6.099   6.899  2.6973 -0.3129 -0.0148
   65SAPC   C25 5315   3.062   5.935   7.004 -0.0749  0.2913  0.5663
   65SAPC   H5R 5316   3.166   5.968   7.016  0.2656  0.2015 -1.7809
   65SAPC   C26 5317   3.025   5.836   7.084  0.2014  0.0644  0.0794
   65SAPC   H6R 5318   3.082   5.823   7.177 -1.5181  2.5998  1.6215
   65SAPC   C27 5319   2.892   5.758   7.073 -0.1508  0.0787 -0.0675
   65SAPC   H7R 5320   2.861   5.755   6.966 -1.2251 -1.9183  0.2511
   65SAPC   H7S 5321   2.811   5.809   7.128  0.8155  1.6648 -0.0663
   65SAPC   C28 5322   2.889   5.611   7.115 -0.1397 -0.5203 -0.1568
   65SAPC   H8R 5323   2.882   5.542   7.030  0.1541  0.2469 -0.8183
   65SAPC   C29 5324   2.899   5.546   7.236  0.2924  0.2326  1.2489
   65SAPC   H9R 5325   2.886   5.437   7.229  0.9534  0.2015  0.3364
   65SAPC  C210 5326   2.918   5.605   7.370  0.5669  0.3874 -0.0932
   65SAPC  H10R 5327   2.940   5.713   7.359 -0.9950  0.9154  1.5476
   65SAPC  H10S 5328   3.007   5.552   7.411  0.3147 -0.8541 -1.0803
   65SAPC  C211 5329   2.800   5.592   7.454 -0.2147 -0.0865  0.3355
   65SAPC  H11R 5330   2.711   5.623   7.398  0.3590 -0.4130 -0.7890
   65SAPC  C212 5331   2.790   5.572   7.586  0.1812 -0.1959 -0.2045
   65SAPC  H12R 5332   2.695   5.586   7.640 -0.8105 -1.0999 -1.6332
   65SAPC  C213 5333   2.910   5.557   7.676  0.0232  0.0384  0.7910
   65SAPC  H13R 5334   2.993   5.499   7.631 -0.3532  0.9024 -1.1157
   65SAPC  H13S 5335   2.875   5.495   7.761 -2.9710  1.4161  0.7221
   65SAPC  C214 5336   2.964   5.692   7.721 -1.3285 -0.4258  0.0340
   65SAPC  H14R 5337   2.967   5.767   7.640  1.5747  1.5976  1.8487
   65SAPC  C215 5338   3.019   5.719   7.838 -0.2064 -0.1639  0.6018
   65SAPC  H15R 5339   3.057   5.820   7.858  1.0142 -0.3109 -0.7483
   65SAPC  C216 5340   3.043   5.616   7.946  0.0084  0.3115 -0.1017
   65SAPC  H16R 5341   3.132   5.646   8.007  1.1800  0.3831 -1.7846
   65SAPC  H16S 5342   3.077   5.517   7.908 -0.9553 -0.1995  0.3234
   65SAPC  C217 5343   2.928   5.601   8.048 -0.7384 -0.4115 -0.4554
   65SAPC  H17R 5344   2.840   5.560   7.994 -1.2996  2.6169 -2.1034
   65SAPC  H17S 5345   2.890   5.697   8.090  0.3692 -0.5548  0.9342
   65SAPC  C218 5346   2.969   5.517   8.168 -0.1962  0.2040 -0.0760
   65SAPC  H18R 5347   2.968   5.590   8.252  0.4098  0.1488 -0.0177
   65SAPC  H18S 5348   3.070   5.475   8.151  0.2754  1.4783 -0.5679
   65SAPC  C219 5349   2.857   5.425   8.189  0.7880 -0.6714 -0.1598
   65SAPC  H19R 5350   2.850   5.353   8.105  1.6047  0.4993 -1.2739
   65SAPC  H19S 5351   2.764   5.487   8.192  2.9060  2.7319  2.6857
   65SAPC  C220 5352   2.863   5.346   8.321  0.3161  0.4454  0.2250
   65SAPC  H20R 5353   2.864   5.411   8.411 -1.5972  0.2041  0.4797
   65SAPC  H20S 5354   2.950   5.277   8.313 -0.4116 -0.7214  1.6616
   65SAPC  H20T 5355   2.771   5.283   8.326  0.3406  0.3193 -0.8184
   65SAPC   C33 5356   3.148   5.501   6.715  0.3321 -0.0187  0.2214
   65SAPC   H3X 5357   3.197   5.586   6.663 -0.6524 -0.2995 -1.2382
   65SAPC   H3Y 5358   3.148   5.409   6.653  0.8454 -0.9640  1.5600
   65SAPC   C34 5359   3.222   5.474   6.848 -0.2227  0.2839 -0.5543
   65SAPC   H4X 5360   3.314   5.417   6.823  0.5269  0.2757  2.0041
   65SAPC   H4Y 5361   3.167   5.401   6.911 -0.5728  0.7840 -0.2710
   65SAPC   C35 5362   3.274   5.606   6.913  0.2405  0.4633 -0.6774
   65SAPC   H5X 5363   3.182   5.666   6.929  0.1640  0.2883 -0.4518
   65SAPC   H5Y 5364   3.334   5.663   6.839 -0.1052 -0.1906 -1.4727
   65SAPC   C36 5365   3.336   5.581   7.054 -0.4054  0.0584  0.1137
   65SAPC   H6X 5366   3.429   5.535   7.013 -0.3987  0.4532 -0.3193
   65SAPC   H6Y 5367   3.280   5.506   7.114 -1.9920 -0.3366 -1.7554
   65SAPC   C37 5368   3.368   5.707   7.133 -0.0599  0.3459  0.0571
   65SAPC   H7X 5369   3.297   5.793   7.127 -0.3182  0.0355 -2.1487
   65SAPC   H7Y 5370   3.456   5.757   7.089 -0.4026  0.5206 -0.4465
   65SAPC   C38 5371   3.394   5.676   7.281 -1.3214  0.3178 -0.0904
   65SAPC   H8X 5372   3.432   5.764   7.336 -0.2216 -0.7519  0.9243
   65SAPC   H8Y 5373   3.477   5.605   7.299  0.3997  2.1527 -0.5677
   65SAPC   C39 5374   3.275   5.632   7.358 -0.4506  0.0551 -0.6373
   65SAPC   H9X 5375   3.254   5.524   7.346 -1.2929 -0.1682  2.1263
   65SAPC   H9Y 5376   3.176   5.671   7.324 -0.6592 -0.0863 -0.2022
   65SAPC  C310 5377   3.280   5.645   7.511  0.7335 -0.3917 -0.0965
   65SAPC  H10X 5378   3.180   5.625   7.554  0.6104  2.3677  1.1517
   65SAPC  H10Y 5379   3.300   5.749   7.546  0.2810 -0.0244 -0.9049
   65SAPC  C311 5380   3.385   5.552   7.578 -0.0591  0.1002  0.7473
   65SAPC  H11X 5381   3.488   5.564   7.539  0.0172 -0.0612  0.8989
   65SAPC  H11Y 5382   3.371   5.446   7.549  0.8865  0.8763 -3.0735
   65SAPC  C312 5383   3.374   5.553   7.732 -0.0014 -0.4464  0.2539
   65SAPC  H12X 5384   3.268   5.538   7.761 -0.8568 -0.1929 -2.4674
   65SAPC  H12Y 5385   3.390   5.661   7.754 -1.4788 -0.5228  1.8590
   65SAPC  C313 5386   3.466   5.456   7.810  0.0093  0.5961 -0.1099
   65SAPC  H13X 5387   3.570   5.469   7.774  0.8185 -0.4119  1.7065
   65SAPC  H13Y 5388   3.439   5.353   7.780 -0.8316  0.0194  2.3897
   65SAPC  C314 5389   3.457   5.463   7.965 -0.0879 -0.2947  0.9232
   65SAPC  H14X 5390   3.533   5.392   8.005  2.8870  2.7585  1.1290
   65SAPC  H14Y 5391   3.367   5.418   8.012 -0.3988  0.4425  1.0447
   65SAPC  C315 5392   3.488   5.599   8.023 -0.2327 -0.2906  0.0911
   65SAPC  H15X 5393   3.400   5.666   8.012 -0.9090 -1.3128 -0.8851
   65SAPC  H15Y 5394   3.574   5.648   7.974 -0.6203 -0.1350 -0.4363
   65SAPC  C316 5395   3.514   5.600   8.174  0.0011  1.1066 -0.0493
   65SAPC  H16X 5396   3.614   5.559   8.200 -0.5449 -2.4804 -2.7400
   65SAPC  H16Y 5397   3.436   5.535   8.220 -0.5325  2.5324  1.1164
   65SAPC  C317 5398   3.490   5.736   8.228  0.1755  0.3874  0.2307
   65SAPC  H17X 5399   3.395   5.778   8.188  0.4957 -0.0755 -1.0618
   65SAPC  H17Y 5400   3.572   5.787   8.174  1.4536 -0.7138  1.0741
   65SAPC  C318 5401   3.498   5.761   8.373 -0.6411 -0.6007 -0.2051
   65SAPC  H18X 5402   3.497   5.871   8.388  0.0533 -0.5923 -0.1788
   65SAPC  H18Y 5403   3.591   5.726   8.423 -0.4544  0.1438 -0.0232
   65SAPC  H18Z 5404   3.408   5.723   8.426  0.7879 -2.2289  1.1504
   66SAPC     N 5405   2.126   2.020   6.038 -0.5170 -0.4636  0.2482
   66SAPC   C12 5406   2.083   2.108   6.157 -0.5356  0.2337 -0.9129
   66SAPC  H12A 5407   2.082   2.049   6.248  2.0751  0.6427 -0.5492
   66SAPC  H12B 5408   1.980   2.137   6.141 -0.5379  0.1646 -1.0208
   66SAPC   C13 5409   2.274   1.984   6.036 -0.3555  1.0262  0.1402
   66SAPC  H13A 5410   2.290   1.909   6.112  1.1293 -0.3376 -1.4440
   66SAPC  H13B 5411   2.311   1.957   5.938 -0.6710 -0.4507  0.4004
   66SAPC  H13C 5412   2.336   2.068   6.063  1.9523 -0.1536 -1.2210
   66SAPC   C14 5413   2.057   1.887   6.031  0.0974  0.2401 -0.8100
   66SAPC  H14A 5414   1.957   1.902   5.995 -0.2134  0.0653 -0.0418
   66SAPC  H14B 5415   2.119   1.823   5.970  0.8419 -0.3413  0.5236
   66SAPC  H14C 5416   2.054   1.846   6.131  1.8911 -1.3109 -1.3375
   66SAPC   C15 5417   2.087   2.094   5.911 -0.6580  0.2256 -0.1305
   66SAPC  H15A 5418   2.110   2.043   5.819 -0.8184  0.6432 -0.4032
   66SAPC  H15B 5419   1.980   2.102   5.913 -0.7380 -0.6853  0.0137
   66SAPC  H15C 5420   2.146   2.184   5.915 -0.4877  0.2154 -1.7715
   66SAPC   C11 5421   2.168   2.237   6.192  0.0285  0.1518 -0.0349
   66SAPC  H11A 5422   2.276   2.214   6.196 -0.0491 -0.0501  2.1441
   66SAPC  H11B 5423   2.148   2.270   6.296  2.1932  2.6565 -0.3002
   66SAPC     P 5424   2.011   2.413   6.110  0.4265 -0.1689 -0.4988
   66SAPC   O13 5425   2.005   2.515   6.008 -0.2372 -0.3377 -0.1323
   66SAPC   O14 5426   1.905   2.312   6.106 -0.6736  0.1989  0.0964
   66SAPC   O12 5427   2.146   2.335   6.093  0.6151  0.7630 -0.4568
   66SAPC   O11 5428   2.015   2.487   6.246  0.1626  0.3516 -0.6864
   66SAPC    C1 5429   2.128   2.569   6.287  0.5972 -0.4830 -0.6597
   66SAPC    HA 5430   2.220   2.509   6.272  0.0157 -1.6523  0.2330
   66SAPC    HB 5431   2.148   2.657   6.223  0.4887  0.4492  0.5588
   66SAPC    C2 5432   2.118   2.614   6.427 -0.6133  0.3434  0.4477
   66SAPC    HS 5433   2.216   2.663   6.442 -0.6227  1.1119 -1.6733
   66SAPC   O21 5434   2.090   2.509   6.520  0.2820 -0.0540  0.2710
   66SAPC   C21 5435   2.183   2.430   6.548 -1.0558  0.3840 -0.1868
   66SAPC   O22 5436   2.297   2.447   6.504 -0.0244 -0.3403 -0.5524
   66SAPC   C22 5437   2.135   2.306   6.634 -0.1869 -0.7487 -0.0504
   66SAPC   H2R 5438   2.086   2.351   6.722 -0.6360  2.0088 -1.5803
   66SAPC   H2S 5439   2.064   2.244   6.575  0.6733 -0.0692 -1.8853
   66SAPC    C3 5440   2.012   2.725   6.440  0.7146 -0.1383 -0.3109
   66SAPC    HX 5441   1.929   2.699   6.371  0.7136 -2.5935  0.5003
   66SAPC    HY 5442   2.053   2.813   6.386  0.0407  1.3450  1.5153
   66SAPC   O31 5443   1.971   2.744   6.572 -0.3543 -0.1284  0.6408
   66SAPC   C31 5444   2.056   2.822   6.640  0.6093 -0.3608  0.7430
   66SAPC   O32 5445   2.154   2.879   6.595  0.0718  0.2393  0.3593
   66SAPC   C32 5446   2.006   2.825   6.778  0.3814  0.1775  0.1077
   66SAPC   H2X 5447   1.943   2.734   6.789 -2.4413  1.7877 -1.3659
   66SAPC   H2Y 5448   1.937   2.912   6.784 -0.7533 -0.5883 -1.1410
   66SAPC   C23 5449   2.256   2.213   6.668 -0.5991 -0.3103  0.2673
   66SAPC   H3R 5450   2.324   2.210   6.580 -1.9231 -1.2116 -0.7582
   66SAPC   H3S 5451   2.222   2.107   6.676 -0.7124 -0.4788 -1.7555
   66SAPC   C24 5452   2.319   2.249   6.802 -0.5054  0.2616 -0.2075
   66SAPC   H4R 5453   2.327   2.359   6.811  0.3403  0.4065 -2.2882
   66SAPC   H4S 5454   2.419   2.201   6.803 -1.4360 -1.7850  0.0061
   66SAPC   C25 5455   2.233   2.199   6.921  0.4875 -0.0856 -0.1368
   66SAPC   H5R 5456   2.239   2.090   6.936  0.5307 -0.4911 -2.6279
   66SAPC   C26 5457   2.155   2.282   6.997 -0.0658  0.1769 -0.3597
   66SAPC   H6R 5458   2.088   2.242   7.074 -0.3787 -0.4179 -0.9329
   66SAPC   C27 5459   2.147   2.435   6.990  0.3341 -0.0582  0.2230
   66SAPC   H7R 5460   2.069   2.455   7.067 -0.7632  0.2945 -0.9494
   66SAPC   H7S 5461   2.111   2.484   6.897 -1.1425  0.1556  0.8895
   66SAPC   C28 5462   2.278   2.503   7.038 -0.4919  0.0968 -0.2619
   66SAPC   H8R 5463   2.322   2.563   6.957 -1.0659  0.4661 -0.3064
   66SAPC   C29 5464   2.318   2.497   7.166 -0.6404  0.5986  0.4907
   66SAPC   H9R 5465   2.416   2.528   7.206 -0.1114  0.5517 -0.7214
   66SAPC  C210 5466   2.249   2.422   7.279  0.1173  0.2854 -0.1338
   66SAPC  H10R 5467   2.204   2.325   7.251  2.4408 -0.9787  0.2707
   66SAPC  H10S 5468   2.168   2.490   7.313  1.2016  1.9583 -0.7428
   66SAPC  C211 5469   2.354   2.388   7.384  0.1271  0.2364  0.3538
   66SAPC  H11R 5470   2.431   2.321   7.344 -1.7461 -0.9403 -1.4957
   66SAPC  C212 5471   2.358   2.431   7.506 -0.1868  0.0806 -0.5225
   66SAPC  H12R 5472   2.451   2.416   7.564 -0.2231 -0.8462 -0.6933
   66SAPC  C213 5473   2.254   2.513   7.580 -0.3237  0.3299 -0.0009
   66SAPC  H13R 5474   2.223   2.448   7.664  0.9911 -2.4002 -1.5119
   66SAPC  H13S 5475   2.159   2.522   7.523 -0.8233 -0.7854  0.6290
   66SAPC  C214 5476   2.302   2.654   7.617 -0.1906  0.5385  0.2789
   66SAPC  H14R 5477   2.368   2.705   7.546  0.6945  0.2277  0.8606
   66SAPC  C215 5478   2.251   2.726   7.717  0.2092 -0.5432  0.0458
   66SAPC  H15R 5479   2.291   2.827   7.730  1.4778 -1.0532  0.2970
   66SAPC  C216 5480   2.149   2.672   7.811 -0.3344  0.5842 -0.1698
   66SAPC  H16R 5481   2.083   2.599   7.759  0.4991 -0.5598  0.3206
   66SAPC  H16S 5482   2.075   2.752   7.834 -1.5867 -0.5633 -0.0241
   66SAPC  C217 5483   2.220   2.623   7.941  0.2018  0.2289 -0.0059
   66SAPC  H17R 5484   2.262   2.708   7.999  1.4730 -1.4152  1.6078
   66SAPC  H17S 5485   2.312   2.565   7.915 -0.8789 -0.9460 -1.4027
   66SAPC  C218 5486   2.139   2.520   8.020  0.0077 -0.6354  0.3388
   66SAPC  H18R 5487   2.154   2.422   7.970  0.0922 -0.9669  1.0022
   66SAPC  H18S 5488   2.032   2.550   8.016  0.2274  0.1390  0.1108
   66SAPC  C219 5489   2.175   2.502   8.167  0.7952 -0.3748  0.1747
   66SAPC  H19R 5490   2.105   2.424   8.202 -0.4055 -0.4021 -2.0783
   66SAPC  H19S 5491   2.154   2.597   8.222 -0.4403  1.2401 -2.7922
   66SAPC  C220 5492   2.309   2.440   8.195  0.2492 -0.7007 -0.2281
   66SAPC  H20R 5493   2.333   2.440   8.304  0.7872  1.1186 -0.3013
   66SAPC  H20S 5494   2.388   2.500   8.145  0.1935 -0.0028  0.4933
   66SAPC  H20T 5495   2.323   2.334   8.165  0.4488 -1.0406  1.0039
   66SAPC   C33 5496   2.116   2.831   6.885 -0.5008  0.2476 -0.1393
   66SAPC   H3X 5497   2.203   2.896   6.860 -0.0230 -0.2100  0.3180
   66SAPC   H3Y 5498   2.161   2.732   6.911 -0.3488  0.1973 -0.5831
   66SAPC   C34 5499   2.056   2.872   7.026 -0.4819 -0.0152 -0.1598
   66SAPC   H4X 5500   1.970   2.802   7.035 -0.2237 -0.3776 -0.4876
   66SAPC   H4Y 5501   2.023   2.977   7.011  1.2962  0.5108 -0.5168
   66SAPC   C35 5502   2.139   2.867   7.154  0.1668  0.2219  0.4825
   66SAPC   H5X 5503   2.235   2.812   7.139  0.2145  0.5692 -0.5375
   66SAPC   H5Y 5504   2.093   2.805   7.234  0.3912  0.5586  0.8705
   66SAPC   C36 5505   2.162   3.010   7.207 -0.0945  0.7735  0.4389
   66SAPC   H6X 5506   2.069   3.068   7.227 -0.3387 -0.0086  1.7252
   66SAPC   H6Y 5507   2.214   3.061   7.123  1.0897 -2.0833 -0.6755
   66SAPC   C37 5508   2.246   3.014   7.333 -0.5582  0.7007 -0.3502
   66SAPC   H7X 5509   2.282   3.116   7.357 -0.8996  0.6158  0.5817
   66SAPC   H7Y 5510   2.337   2.950   7.329  0.7714  2.4304  0.7328
   66SAPC   C38 5511   2.164   2.967   7.453 -0.3243  0.2486 -0.2148
   66SAPC   H8X 5512   2.234   2.976   7.539 -1.8148  0.7733  0.9723
   66SAPC   H8Y 5513   2.153   2.857   7.445  0.1318  0.3117 -2.5909
   66SAPC   C39 5514   2.043   3.046   7.502  0.3938 -0.6466  0.0111
   66SAPC   H9X 5515   1.955   3.010   7.444  1.8187  0.6010 -3.2080
   66SAPC   H9Y 5516   2.065   3.155   7.502  0.4365 -0.6554  0.0712
   66SAPC  C310 5517   2.008   3.014   7.651 -0.1215  0.0370  0.0943
   66SAPC  H10X 5518   2.012   2.906   7.674 -1.2341  0.1537  0.8813
   66SAPC  H10Y 5519   1.902   3.046   7.660 -0.4518 -0.4485 -1.5974
   66SAPC  C311 5520   2.087   3.084   7.758 -0.1304  0.7600 -0.1995
   66SAPC  H11X 5521   2.127   3.180   7.720  1.8918  0.6463  1.5296
   66SAPC  H11Y 5522   2.183   3.033   7.781  0.1706  1.0949 -0.7063
   66SAPC  C312 5523   2.012   3.088   7.890 -0.6019  0.0059 -0.9302
   66SAPC  H12X 5524   1.963   2.988   7.895 -0.2968 -0.2676 -2.7367
   66SAPC  H12Y 5525   1.926   3.157   7.878 -0.3579  0.5027  0.1280
   66SAPC  C313 5526   2.098   3.100   8.019 -0.0280  0.3131  0.8808
   66SAPC  H13X 5527   2.186   3.032   8.017  2.3677  3.2212 -0.9761
   66SAPC  H13Y 5528   2.028   3.073   8.102 -0.9513  0.5874  0.2037
   66SAPC  C314 5529   2.142   3.245   8.040  0.6337 -0.1691 -1.3270
   66SAPC  H14X 5530   2.053   3.308   8.058  0.2631 -0.6851 -1.3285
   66SAPC  H14Y 5531   2.181   3.285   7.944  2.3115 -0.4833 -0.8118
   66SAPC  C315 5532   2.254   3.262   8.151 -0.3755  0.5332 -1.7032
   66SAPC  H15X 5533   2.283   3.369   8.158  0.1887  0.2731  1.8141
   66SAPC  H15Y 5534   2.349   3.209   8.130 -1.6163 -2.7575  0.2452
   66SAPC  C316 5535   2.200   3.214   8.286 -0.4855 -0.3656 -0.5620
   66SAPC  H16X 5536   2.192   3.103   8.283 -1.0461 -0.4643  2.0644
   66SAPC  H16Y 5537   2.101   3.257   8.309  0.5554  0.5601  2.9079
   66SAPC  C317 5538   2.284   3.257   8.405 -0.2048  0.5643  0.2515
   66SAPC  H17X 5539   2.221   3.249   8.496 -1.0799 -0.0837 -0.4021
   66SAPC  H17Y 5540   2.326   3.360   8.405  0.2704  0.3815  0.9365
   66SAPC  C318 5541   2.414   3.172   8.417 -0.0150  0.5006 -0.5255
   66SAPC  H18X 5542   2.440   3.169   8.525 -1.8396  2.1607 -0.0042
   66SAPC  H18Y 5543   2.488   3.217   8.347 -1.2333 -0.1509 -2.3012
   66SAPC  H18Z 5544   2.388   3.070   8.381  2.1096 -0.3325  0.1626
   67SAPC     N 5545   3.849   0.736   5.886 -0.2991 -0.5473 -0.0762
   67SAPC   C12 5546   3.924   0.836   5.975  0.4195  0.0844 -0.3094
   67SAPC  H12A 5547   3.892   0.938   5.958 -0.2705 -0.1463 -0.4231
   67SAPC  H12B 5548   4.027   0.832   5.943  1.0783  1.0007  1.5683
   67SAPC   C13 5549   3.928   0.610   5.912  0.5454 -0.0866 -0.4299
   67SAPC  H13A 5550   4.031   0.624   5.882  0.2496  0.9215 -1.0127
   67SAPC  H13B 5551   3.931   0.594   6.019  2.2387  2.1604 -0.0902
   67SAPC  H13C 5552   3.888   0.521   5.866 -0.1003  0.0501 -0.1433
   67SAPC   C14 5553   3.707   0.724   5.917 -0.3974 -0.5339  0.5267
   67SAPC  H14A 5554   3.662   0.658   5.844  1.4021  0.2872 -1.4162
   67SAPC  H14B 5555   3.691   0.697   6.021 -2.1710 -1.1332  0.1359
   67SAPC  H14C 5556   3.664   0.821   5.899 -0.1119 -0.5851 -0.4669
   67SAPC   C15 5557   3.871   0.783   5.746  0.7257  0.6607 -0.1308
   67SAPC  H15A 5558   3.975   0.798   5.724  0.6640 -0.4455 -1.2609
   67SAPC  H15B 5559   3.841   0.706   5.677  0.9995 -1.0842  1.6189
   67SAPC  H15C 5560   3.813   0.871   5.723 -1.0724 -0.2694  0.6500
   67SAPC   C11 5561   3.930   0.822   6.133  0.5489  0.1569 -0.4645
   67SAPC  H11A 5562   3.839   0.869   6.177  0.2335  0.9718 -1.9457
   67SAPC  H11B 5563   4.019   0.881   6.163 -0.6030  1.5617  0.3435
   67SAPC     P 5564   3.975   0.659   6.326 -0.5152  0.6107  0.2747
   67SAPC   O13 5565   3.885   0.561   6.386  0.3431 -0.2983 -0.3986
   67SAPC   O14 5566   4.118   0.628   6.343 -0.1338 -0.5755 -0.4923
   67SAPC   O12 5567   3.940   0.685   6.175 -0.3065  0.3900 -0.3550
   67SAPC   O11 5568   3.954   0.797   6.401 -0.5878  0.0781  0.2809
   67SAPC    C1 5569   4.055   0.883   6.445 -0.6608 -1.0012 -1.0289
   67SAPC    HA 5570   4.146   0.871   6.383  0.3381 -1.3899  0.4679
   67SAPC    HB 5571   4.020   0.988   6.438 -0.6092 -0.8962  0.1505
   67SAPC    C2 5572   4.089   0.864   6.598  1.2587 -0.0086  0.3064
   67SAPC    HS 5573   4.146   0.769   6.608  1.3918  0.0582  0.1930
   67SAPC   O21 5574   3.968   0.877   6.675  0.3085  0.7577  0.3266
   67SAPC   C21 5575   3.958   0.790   6.773 -0.6156 -0.0530  0.4459
   67SAPC   O22 5576   4.026   0.692   6.795 -0.1271 -0.2991  0.9328
   67SAPC   C22 5577   3.840   0.828   6.858 -0.3175  0.0177  0.4563
   67SAPC   H2R 5578   3.828   0.937   6.846  0.3572  0.1992  1.3206
   67SAPC   H2S 5579   3.741   0.784   6.833  0.4932 -1.6312 -0.0478
   67SAPC    C3 5580   4.183   0.973   6.649 -0.3134 -0.0743  0.1993
   67SAPC    HX 5581   4.142   1.074   6.629 -2.4371 -0.5000  1.9540
   67SAPC    HY 5582   4.271   0.970   6.582 -0.7161 -0.0801 -0.3384
   67SAPC   O31 5583   4.226   0.963   6.789  0.8461 -0.6578  0.4988
   67SAPC   C31 5584   4.314   1.042   6.835 -1.0923  0.1124  0.0362
   67SAPC   O32 5585   4.372   1.130   6.772  0.2936  0.2470  0.0250
   67SAPC   C32 5586   4.352   1.016   6.981 -0.1052  0.1811  0.1503
   67SAPC   H2X 5587   4.260   1.023   7.044 -0.2428 -1.9805  0.2502
   67SAPC   H2Y 5588   4.418   1.103   7.001  0.2724 -0.3875  1.4609
   67SAPC   C23 5589   3.845   0.798   7.013 -0.3752  0.2286 -0.2931
   67SAPC   H3R 5590   3.845   0.687   7.025 -0.4521 -0.0184 -2.3061
   67SAPC   H3S 5591   3.756   0.840   7.066  1.2379  0.5437  2.3581
   67SAPC   C24 5592   3.967   0.856   7.073 -0.2445 -0.2190  0.3229
   67SAPC   H4R 5593   3.948   0.965   7.063 -0.0601 -0.3444 -1.9781
   67SAPC   H4S 5594   4.057   0.820   7.020 -0.9936  0.8068 -1.7467
   67SAPC   C25 5595   3.982   0.809   7.217 -0.2041  0.3563 -0.2895
   67SAPC   H5R 5596   4.001   0.701   7.231 -1.0442  0.4015  1.5812
   67SAPC   C26 5597   3.975   0.882   7.329 -0.2242 -0.1102 -0.2819
   67SAPC   H6R 5598   3.994   0.839   7.428  1.4791 -0.6195 -0.7872
   67SAPC   C27 5599   3.955   1.032   7.334 -0.0248 -0.7912  0.6866
   67SAPC   H7R 5600   3.849   1.044   7.363 -0.7421 -1.8406 -1.3157
   67SAPC   H7S 5601   3.969   1.079   7.234 -0.3194  0.4027  1.2026
   67SAPC   C28 5602   4.024   1.110   7.439  0.4662 -0.1527  0.2697
   67SAPC   H8R 5603   4.113   1.155   7.392  0.3298 -1.6823 -1.5667
   67SAPC   C29 5604   3.995   1.128   7.572 -0.6249  0.1876 -0.0327
   67SAPC   H9R 5605   4.070   1.179   7.634 -0.2378 -1.2639  0.7371
   67SAPC  C210 5606   3.883   1.067   7.655 -0.3497  0.0195 -0.2111
   67SAPC  H10R 5607   3.840   0.975   7.610 -1.6888 -0.6229  2.1707
   67SAPC  H10S 5608   3.802   1.140   7.674 -0.7437  0.3945 -2.9585
   67SAPC  C211 5609   3.948   1.025   7.783 -0.1053  0.2246  0.2753
   67SAPC  H11R 5610   4.037   0.964   7.762 -0.6775 -0.3885 -0.4272
   67SAPC  C212 5611   3.902   1.035   7.912 -0.0870 -0.6608  0.0116
   67SAPC  H12R 5612   3.965   1.005   7.997 -0.9369  0.0478  0.9188
   67SAPC  C213 5613   3.781   1.118   7.950 -0.3167  0.7014  0.1677
   67SAPC  H13R 5614   3.692   1.056   7.928  0.1244  0.4914 -1.1006
   67SAPC  H13S 5615   3.783   1.203   7.879  0.9021  0.5166 -0.0463
   67SAPC  C214 5616   3.779   1.160   8.096  0.1615 -0.1094  0.8628
   67SAPC  H14R 5617   3.844   1.247   8.117  0.7680 -0.3468  0.0488
   67SAPC  C215 5618   3.687   1.125   8.193  0.6651 -0.0761  0.1232
   67SAPC  H15R 5619   3.696   1.156   8.298  0.0743 -0.6448  0.3535
   67SAPC  C216 5620   3.570   1.040   8.176 -0.0439 -0.2885  0.1383
   67SAPC  H16R 5621   3.588   0.943   8.228  0.8404  0.3125  0.9831
   67SAPC  H16S 5622   3.567   1.017   8.068  1.7236  1.1459 -0.2503
   67SAPC  C217 5623   3.439   1.102   8.218  0.0166 -0.3683 -0.1388
   67SAPC  H17R 5624   3.355   1.036   8.187 -0.9269  0.5228  0.4482
   67SAPC  H17S 5625   3.431   1.195   8.157  0.1899 -0.9198 -1.0119
   67SAPC  C218 5626   3.418   1.125   8.369  0.2001 -0.9695  0.2773
   67SAPC  H18R 5627   3.454   1.230   8.381  0.0803 -0.6638 -1.6718
   67SAPC  H18S 5628   3.487   1.056   8.422  1.9360 -1.7898 -2.7896
   67SAPC  C219 5629   3.274   1.113   8.412  0.3225  0.4695 -0.5859
   67SAPC  H19R 5630   3.240   1.007   8.403 -0.0875 -0.0874  4.7273
   67SAPC  H19S 5631   3.215   1.181   8.347 -0.2645  0.4946 -0.0359
   67SAPC  C220 5632   3.238   1.143   8.558 -0.0680  0.0807  0.1829
   67SAPC  H20R 5633   3.327   1.126   8.623  1.0548 -2.0745 -1.7899
   67SAPC  H20S 5634   3.146   1.093   8.596  0.2487 -0.9383 -0.3555
   67SAPC  H20T 5635   3.219   1.253   8.555  0.1257  0.1075 -2.3899
   67SAPC   C33 5636   4.440   0.890   7.014 -0.6551  0.3089 -0.0496
   67SAPC   H3X 5637   4.530   0.900   6.949  0.7384 -0.5840  1.6629
   67SAPC   H3Y 5638   4.392   0.793   6.990 -0.6961 -0.0780  1.4795
   67SAPC   C34 5639   4.476   0.892   7.169 -0.2001 -0.6655  0.0506
   67SAPC   H4X 5640   4.479   0.997   7.203 -0.6054 -0.3651 -0.8128
   67SAPC   H4Y 5641   4.571   0.839   7.189 -0.4566 -1.8244 -1.5276
   67SAPC   C35 5642   4.372   0.825   7.257 -0.1589 -0.6605 -0.0257
   67SAPC   H5X 5643   4.355   0.722   7.220 -0.6556 -0.5621 -0.0886
   67SAPC   H5Y 5644   4.274   0.877   7.250  1.5325  2.7591 -0.1649
   67SAPC   C36 5645   4.413   0.824   7.404  0.0580  0.1393  0.1588
   67SAPC   H6X 5646   4.435   0.933   7.414 -0.0124  0.3486 -1.6438
   67SAPC   H6Y 5647   4.509   0.768   7.406  0.1263  0.0773 -2.0123
   67SAPC   C37 5648   4.298   0.764   7.494 -0.1940 -0.1094  0.4661
   67SAPC   H7X 5649   4.271   0.665   7.450 -0.1626 -0.3734  1.0358
   67SAPC   H7Y 5650   4.212   0.833   7.500 -0.5110 -0.4814  0.2290
   67SAPC   C38 5651   4.343   0.750   7.641 -0.0239  0.3938  0.5803
   67SAPC   H8X 5652   4.359   0.855   7.674  2.1162  0.0587  0.7813
   67SAPC   H8Y 5653   4.430   0.681   7.643  0.4383  0.9723  1.8381
   67SAPC   C39 5654   4.228   0.684   7.719  0.1452  0.1807 -0.1153
   67SAPC   H9X 5655   4.224   0.573   7.709 -3.3999  0.1340  0.5079
   67SAPC   H9Y 5656   4.126   0.714   7.688  0.4898 -0.1378 -1.6371
   67SAPC  C310 5657   4.246   0.708   7.872 -0.4763  0.2748  1.1081
   67SAPC  H10X 5658   4.239   0.819   7.875  1.0238  0.3872  1.2456
   67SAPC  H10Y 5659   4.345   0.668   7.905 -1.0372 -1.4258  0.8259
   67SAPC  C311 5660   4.131   0.648   7.949  0.5039  0.3216 -0.7805
   67SAPC  H11X 5661   4.138   0.539   7.930  2.3246  0.3888 -0.6842
   67SAPC  H11Y 5662   4.032   0.685   7.914  0.1223 -0.4944 -0.5918
   67SAPC  C312 5663   4.143   0.666   8.106 -0.0116  0.2316  0.1521
   67SAPC  H12X 5664   4.144   0.772   8.137 -0.9319  0.8633 -1.7908
   67SAPC  H12Y 5665   4.241   0.634   8.148  0.4446  3.3637  1.7648
   67SAPC  C313 5666   4.027   0.594   8.181 -0.1082  0.1357  0.4365
   67SAPC  H13X 5667   4.029   0.487   8.151 -1.2442  0.6621 -1.6900
   67SAPC  H13Y 5668   3.944   0.648   8.131  1.9828  2.8346 -0.3354
   67SAPC  C314 5669   4.010   0.620   8.334 -0.5408  1.3233  0.1577
   67SAPC  H14X 5670   3.945   0.707   8.357 -2.0131  0.3106 -0.0662
   67SAPC  H14Y 5671   4.116   0.631   8.366  0.0206  2.1880 -1.7801
   67SAPC  C315 5672   3.948   0.495   8.397 -0.3897 -0.5432  0.3327
   67SAPC  H15X 5673   4.028   0.418   8.393  0.7733  0.6634 -1.1119
   67SAPC  H15Y 5674   3.872   0.447   8.332  0.4193  0.1081 -1.1401
   67SAPC  C316 5675   3.904   0.527   8.547 -0.2873  0.2745 -0.1996
   67SAPC  H16X 5676   3.838   0.616   8.537  0.6221  1.0253  0.2763
   67SAPC  H16Y 5677   4.001   0.552   8.596 -1.1503 -0.0031  1.7644
   67SAPC  C317 5678   3.839   0.410   8.627 -0.2363  0.7862 -0.1670
   67SAPC  H17X 5679   3.747   0.384   8.571  0.9254 -2.5612 -0.7135
   67SAPC  H17Y 5680   3.808   0.436   8.730 -2.9739 -4.6319  0.7207
   67SAPC  C318 5681   3.924   0.277   8.645 -0.3244 -0.0371  0.5164
   67SAPC  H18X 5682   3.915   0.230   8.544 -0.8160 -1.6943  1.3032
   67SAPC  H18Y 5683   3.870   0.205   8.710 -0.1368 -1.5857 -0.9537
   67SAPC  H18Z 5684   4.026   0.304   8.680 -0.7289  1.5295  0.5639
   68SAPC     N 5685   3.248   4.961   5.834 -0.1998  0.1841 -0.1284
   68SAPC   C12 5686   3.313   4.916   5.964  0.8683 -0.3200  0.4232
   68SAPC  H12A 5687   3.227   4.892   6.026 -0.2953 -2.3548 -1.7987
   68SAPC  H12B 5688   3.370   4.996   6.008  2.4437 -0.6893 -0.8640
   68SAPC   C13 5689   3.354   4.987   5.732  0.6111 -0.2411  0.8232
   68SAPC  H13A 5690   3.438   5.033   5.781  1.2383  1.6012 -1.7747
   68SAPC  H13B 5691   3.400   4.896   5.697  2.8948  1.1023  0.1332
   68SAPC  H13C 5692   3.318   5.037   5.643  0.1469 -0.1569  1.0603
   68SAPC   C14 5693   3.148   4.859   5.786 -0.2850  0.0943 -0.6502
   68SAPC  H14A 5694   3.194   4.765   5.759  0.8703 -0.5732  3.0739
   68SAPC  H14B 5695   3.076   4.840   5.865  1.6965 -0.4511  1.1083
   68SAPC  H14C 5696   3.085   4.883   5.702 -0.0645 -3.1193 -1.8692
   68SAPC   C15 5697   3.168   5.089   5.855 -0.7102  0.1252  0.8212
   68SAPC  H15A 5698   3.131   5.110   5.756 -1.5770 -1.1879  0.8440
   68SAPC  H15B 5699   3.078   5.077   5.913 -1.4540  3.0831  0.4425
   68SAPC  H15C 5700   3.233   5.174   5.870  1.0234 -0.0585 -3.9922
   68SAPC   C11 5701   3.396   4.789   5.948 -0.3585  0.0218 -0.2893
   68SAPC  H11A 5702   3.352   4.724   5.869 -1.8546  1.8114 -0.9944
   68SAPC  H11B 5703   3.393   4.723   6.038 -0.2747  1.9520  1.1932
   68SAPC     P 5704   3.631   4.879   6.007 -0.0164  0.0817 -0.3232
   68SAPC   O13 5705   3.755   4.896   5.932 -0.2078 -0.1267  0.0456
   68SAPC   O14 5706   3.574   5.007   6.060 -0.4540 -0.1183  0.8225
   68SAPC   O12 5707   3.530   4.807   5.905  0.2784 -1.0548  0.3899
   68SAPC   O11 5708   3.641   4.775   6.121 -0.7288 -0.8005 -0.2825
   68SAPC    C1 5709   3.743   4.671   6.124  0.5607  0.4831  0.8464
   68SAPC    HA 5710   3.697   4.571   6.135 -1.8695  1.1496 -1.9224
   68SAPC    HB 5711   3.798   4.666   6.027 -0.4263  0.7048  0.2635
   68SAPC    C2 5712   3.850   4.701   6.232  0.1901  0.1942  0.1122
   68SAPC    HS 5713   3.901   4.794   6.202  1.8589 -1.3353 -2.1296
   68SAPC   O21 5714   3.938   4.592   6.243 -0.0899  0.3927 -0.8021
   68SAPC   C21 5715   4.064   4.611   6.218  0.0151 -0.2935 -0.1739
   68SAPC   O22 5716   4.116   4.711   6.163  0.4591  0.0006 -0.6423
   68SAPC   C22 5717   4.138   4.494   6.276 -0.0604  0.1508  0.5396
   68SAPC   H2R 5718   4.080   4.424   6.340 -0.3237 -0.8322 -0.7454
   68SAPC   H2S 5719   4.173   4.432   6.191 -0.3105  0.2914  0.3308
   68SAPC    C3 5720   3.765   4.715   6.364  0.0481  0.3708 -0.2361
   68SAPC    HX 5721   3.694   4.630   6.370  0.3114 -0.1487 -3.2177
   68SAPC    HY 5722   3.710   4.809   6.346 -0.2377  0.1519 -0.5027
   68SAPC   O31 5723   3.854   4.719   6.475 -0.5495 -0.1708 -0.6495
   68SAPC   C31 5724   3.799   4.733   6.589  1.1374  0.2478  0.2256
   68SAPC   O32 5725   3.678   4.762   6.608 -0.4860 -0.1065  0.4062
   68SAPC   C32 5726   3.896   4.705   6.701 -0.0004  0.1585  0.7168
   68SAPC   H2X 5727   3.992   4.759   6.691  0.4555 -0.8682 -0.7365
   68SAPC   H2Y 5728   3.923   4.597   6.700 -0.9679 -0.0917 -0.1621
   68SAPC   C23 5729   4.264   4.541   6.341 -0.2962 -0.4393 -0.1065
   68SAPC   H3R 5730   4.253   4.632   6.404  0.5260 -0.9100  0.7502
   68SAPC   H3S 5731   4.345   4.576   6.274  1.1498  0.9882  2.2641
   68SAPC   C24 5732   4.326   4.432   6.425 -0.5351 -0.0122  0.0344
   68SAPC   H4R 5733   4.340   4.350   6.352  3.3078 -1.5577  2.2117
   68SAPC   H4S 5734   4.254   4.392   6.499 -1.4671 -1.2397 -1.4697
   68SAPC   C25 5735   4.459   4.477   6.480  0.2447 -0.7613 -0.0870
   68SAPC   H5R 5736   4.542   4.490   6.409 -0.3955  0.7701 -0.5814
   68SAPC   C26 5737   4.487   4.481   6.616  1.3692  0.0237  0.6181
   68SAPC   H6R 5738   4.574   4.542   6.644  1.0997  0.1683  1.1567
   68SAPC   C27 5739   4.393   4.448   6.732  0.0263  0.5507  0.0496
   68SAPC   H7R 5740   4.460   4.451   6.820  1.0607  1.6302 -0.7446
   68SAPC   H7S 5741   4.357   4.344   6.712  2.3284  0.1918 -2.9539
   68SAPC   C28 5742   4.279   4.549   6.748  0.3252  0.3844 -0.2545
   68SAPC   H8R 5743   4.215   4.577   6.663  0.8952 -0.7694 -1.0881
   68SAPC   C29 5744   4.248   4.609   6.862  0.1648  0.2606 -0.2841
   68SAPC   H9R 5745   4.180   4.696   6.858  0.8697  0.8646  0.4963
   68SAPC  C210 5746   4.314   4.590   6.996 -0.3321 -0.2010 -0.2015
   68SAPC  H10R 5747   4.270   4.666   7.064 -1.4707 -1.3585  0.4004
   68SAPC  H10S 5748   4.422   4.616   6.986 -0.6735  0.6961 -1.8908
   68SAPC  C211 5749   4.312   4.450   7.056  0.3393  0.1416 -0.3516
   68SAPC  H11R 5750   4.264   4.375   6.992 -0.1532  1.0660 -1.0902
   68SAPC  C212 5751   4.338   4.414   7.181 -0.8016  0.3958 -0.9590
   68SAPC  H12R 5752   4.324   4.310   7.212 -0.9717  0.7910  0.3529
   68SAPC  C213 5753   4.397   4.490   7.296 -0.5639  0.4448 -0.4450
   68SAPC  H13R 5754   4.315   4.536   7.355  1.1635  1.2573  1.4581
   68SAPC  H13S 5755   4.456   4.578   7.262 -0.7052  1.1548  1.0322
   68SAPC  C214 5756   4.474   4.405   7.396 -0.4619 -0.1852 -0.0371
   68SAPC  H14R 5757   4.582   4.425   7.396 -0.6820  1.2246 -1.4764
   68SAPC  C215 5758   4.424   4.321   7.494 -0.6054 -0.2622 -0.4817
   68SAPC  H15R 5759   4.499   4.273   7.559 -1.7015  1.8457  2.6088
   68SAPC  C216 5760   4.280   4.292   7.528  0.5807  0.1013  0.5220
   68SAPC  H16R 5761   4.280   4.203   7.594  2.7164  1.0508  1.9021
   68SAPC  H16S 5762   4.227   4.268   7.433 -0.2755  0.3431  0.9297
   68SAPC  C217 5763   4.220   4.399   7.619 -0.2048 -0.1116 -0.2902
   68SAPC  H17R 5764   4.120   4.355   7.641  0.0715 -1.0503 -0.8843
   68SAPC  H17S 5765   4.199   4.493   7.562  0.2314 -0.1516 -0.5196
   68SAPC  C218 5766   4.282   4.426   7.754 -0.2809 -0.4215 -1.3375
   68SAPC  H18R 5767   4.371   4.491   7.743 -0.8495  0.1374 -2.9316
   68SAPC  H18S 5768   4.319   4.326   7.786 -0.7335 -1.1964 -3.1317
   68SAPC  C219 5769   4.180   4.452   7.866  0.5645  0.3855 -0.0093
   68SAPC  H19R 5770   4.103   4.371   7.866 -0.5267  1.3807 -1.0794
   68SAPC  H19S 5771   4.130   4.547   7.837  0.0894 -0.1798 -1.1162
   68SAPC  C220 5772   4.229   4.464   8.010 -0.5083  0.5765  0.2005
   68SAPC  H20R 5773   4.287   4.379   8.051 -0.4777  0.5793  0.1643
   68SAPC  H20S 5774   4.138   4.475   8.071 -1.8720  2.1051 -1.9342
   68SAPC  H20T 5775   4.297   4.552   8.017  0.5924 -0.2274 -0.0514
   68SAPC   C33 5776   3.851   4.739   6.841  0.0977 -0.6678  0.6490
   68SAPC   H3X 5777   3.910   4.682   6.916 -0.9799 -3.1227 -0.2928
   68SAPC   H3Y 5778   3.745   4.722   6.868 -0.4581  0.2234 -0.8292
   68SAPC   C34 5779   3.880   4.888   6.875 -0.0740 -0.1148 -0.5985
   68SAPC   H4X 5780   3.824   4.954   6.805 -0.1346  0.0478 -0.3999
   68SAPC   H4Y 5781   3.982   4.918   6.843 -0.6344  0.3162 -2.0571
   68SAPC   C35 5782   3.848   4.927   7.023  0.6034  0.5238  0.0443
   68SAPC   H5X 5783   3.745   4.885   7.029  0.9914 -0.4243  0.0863
   68SAPC   H5Y 5784   3.851   5.037   7.039 -0.5141  0.8735 -1.8983
   68SAPC   C36 5785   3.927   4.857   7.128  0.3475  0.3545 -0.0303
   68SAPC   H6X 5786   4.028   4.904   7.136  0.4392  0.0761  0.5503
   68SAPC   H6Y 5787   3.933   4.748   7.113  0.7575  0.5980 -1.8041
   68SAPC   C37 5788   3.846   4.868   7.262 -0.0307 -0.4121 -0.0522
   68SAPC   H7X 5789   3.875   4.789   7.336  2.1405  1.6967  1.5076
   68SAPC   H7Y 5790   3.738   4.845   7.248  0.0052  0.7101 -2.8263
   68SAPC   C38 5791   3.865   4.995   7.346 -0.5584  0.1879  0.6628
   68SAPC   H8X 5792   3.824   5.076   7.281  0.5314 -0.6770 -1.1871
   68SAPC   H8Y 5793   3.972   5.019   7.361 -0.0332 -1.0795 -0.7490
   68SAPC   C39 5794   3.794   4.975   7.477  0.2641 -0.1717 -0.1953
   68SAPC   H9X 5795   3.837   4.887   7.529  0.9727 -0.1148 -0.6603
   68SAPC   H9Y 5796   3.686   4.954   7.467 -0.0171  0.8926  0.4293
   68SAPC  C310 5797   3.796   5.108   7.562  0.0975 -0.2293  0.3949
   68SAPC  H10X 5798   3.755   5.193   7.502  1.4980  2.0566  2.4490
   68SAPC  H10Y 5799   3.901   5.134   7.586 -0.7691  1.0993  3.0906
   68SAPC  C311 5800   3.697   5.099   7.685  0.2215 -0.1413  0.4432
   68SAPC  H11X 5801   3.605   5.050   7.647  0.8359 -0.0327 -1.2771
   68SAPC  H11Y 5802   3.667   5.205   7.702 -1.6611 -0.2511 -1.6537
   68SAPC  C312 5803   3.758   5.037   7.806  0.3749 -0.0487 -0.4321
   68SAPC  H12X 5804   3.846   5.101   7.829  0.0527  0.1567  0.2388
   68SAPC  H12Y 5805   3.787   4.931   7.788 -0.6404 -0.2554 -0.9564
   68SAPC  C313 5806   3.667   5.046   7.933  0.0209 -0.3812  0.4314
   68SAPC  H13X 5807   3.573   4.994   7.907  1.8785 -3.7152 -0.1712
   68SAPC  H13Y 5808   3.648   5.155   7.938  1.0257  0.0518 -2.8495
   68SAPC  C314 5809   3.729   4.975   8.057 -0.3044 -0.0796  0.4638
   68SAPC  H14X 5810   3.819   5.033   8.086  1.8265 -1.0745 -3.5020
   68SAPC  H14Y 5811   3.767   4.876   8.022  0.5586 -0.2186  1.7291
   68SAPC  C315 5812   3.626   4.962   8.172 -0.0827  0.5675 -0.3167
   68SAPC  H15X 5813   3.542   4.910   8.122  0.1303 -0.2503  0.1517
   68SAPC  H15Y 5814   3.594   5.063   8.207 -0.5642  0.9108 -1.7040
   68SAPC  C316 5815   3.681   4.878   8.293 -0.0754  0.3368  0.1752
   68SAPC  H16X 5816   3.760   4.924   8.355  1.7697 -0.9736 -1.1139
   68SAPC  H16Y 5817   3.716   4.779   8.255  1.8121 -0.0290  2.6487
   68SAPC  C317 5818   3.567   4.852   8.395  0.3567  0.0089  0.1493
   68SAPC  H17X 5819   3.483   4.793   8.353 -0.2328 -1.2541  2.9031
   68SAPC  H17Y 5820   3.526   4.950   8.427  1.1763  0.6363 -0.6550
   68SAPC  C318 5821   3.624   4.784   8.522 -0.2000 -0.0596  1.2995
   68SAPC  H18X 5822   3.685   4.694   8.497  0.7714  1.2654 -1.4900
   68SAPC  H18Y 5823   3.540   4.751   8.587 -2.0736 -2.4402 -2.0323
   68SAPC  H18Z 5824   3.698   4.843   8.580  1.8456  0.7062 -1.8722
   69SLPC     N 5825   5.938   4.179  10.775 -0.1661 -0.5883 -0.1112
   69SLPC   C13 5826   5.823   4.269  10.818 -0.0913  0.7420 -0.8143
   69SLPC  H13A 5827   5.789   4.341  10.744 -0.0246  0.0033 -1.5746
   69SLPC  H13B 5828   5.740   4.209  10.852  1.3581 -0.4151  0.8553
   69SLPC  H13C 5829   5.849   4.336  10.899 -0.1916 -0.6934  0.4430
   69SLPC   C14 5830   5.890   4.087  10.671 -0.0931 -0.3312 -0.2882
   69SLPC  H14A 5831   5.968   4.017  10.648 -0.2289 -0.4855 -0.2764
   69SLPC  H14B 5832   5.800   4.042  10.710 -1.9108  3.2388  0.1432
   69SLPC  H14C 5833   5.859   4.143  10.584 -0.3837 -0.6696 -0.4033
   69SLPC   C15 5834   5.989   4.105  10.892 -0.0021 -0.1439 -0.1502
   69SLPC  H15A 5835   6.008   4.164  10.980  3.7165 -0.4813 -0.5719
   69SLPC  H15B 5836   5.914   4.034  10.922 -0.0438 -0.5175 -1.0784
   69SLPC  H15C 5837   6.083   4.060  10.864  0.0853  0.0665 -0.1935
   69SLPC   C12 5838   6.051   4.267  10.731  0.3005  0.7555 -0.6279
   69SLPC  H12A 5839   6.068   4.333  10.814 -1.1411  0.9571 -0.4636
   69SLPC  H12B 5840   6.015   4.328  10.650  0.2960  0.9197 -0.5024
   69SLPC   C11 5841   6.183   4.198  10.698  0.0449  0.0155 -0.3096
   69SLPC  H11A 5842   6.232   4.265  10.624 -0.6304  1.1228  0.2220
   69SLPC  H11B 5843   6.157   4.100  10.653 -0.9933 -0.0627  0.4203
   69SLPC     P 5844   6.324   4.304  10.898 -0.5248 -0.3670 -0.5221
   69SLPC   O13 5845   6.217   4.398  10.945 -0.3192  0.4130  0.4970
   69SLPC   O14 5846   6.420   4.253  11.001 -0.1078  0.4597  0.3502
   69SLPC   O12 5847   6.265   4.184  10.820  0.4375 -0.8224 -0.2319
   69SLPC   O11 5848   6.405   4.380  10.788  0.2123  0.5421  0.3029
   69SLPC    C1 5849   6.364   4.511  10.746  0.2498 -0.0065  0.5028
   69SLPC    HA 5850   6.254   4.517  10.748  0.1934 -0.4752  3.3780
   69SLPC    HB 5851   6.395   4.592  10.816  1.4758  0.2995 -0.3642
   69SLPC    C2 5852   6.428   4.543  10.607  0.1360  0.3064 -0.8515
   69SLPC    HS 5853   6.412   4.650  10.582 -0.3446  0.6719  0.8809
   69SLPC   O21 5854   6.371   4.463  10.508  0.1377 -0.4879  0.2496
   69SLPC   C21 5855   6.262   4.506  10.456  0.5485 -0.0344 -0.6540
   69SLPC   O22 5856   6.214   4.615  10.479 -0.0326 -0.4873 -0.0630
   69SLPC   C22 5857   6.206   4.395  10.368 -0.5764 -0.4455  0.4555
   69SLPC   H2R 5858   6.194   4.302  10.427 -1.2262  0.0992  1.2033
   69SLPC   H2S 5859   6.103   4.419  10.333 -0.0232  2.0393  0.3176
   69SLPC    C3 5860   6.585   4.521  10.619  0.6424 -0.6407  0.3993
   69SLPC    HX 5861   6.592   4.410  10.626 -2.1910 -0.9304  0.1285
   69SLPC    HY 5862   6.601   4.579  10.712 -0.3395  0.6438 -0.1942
   69SLPC   O31 5863   6.649   4.582  10.500  0.5671  0.0621  0.3758
   69SLPC   C31 5864   6.666   4.499  10.400 -0.5168 -0.2424  0.4836
   69SLPC   O32 5865   6.651   4.377  10.404 -0.1049 -0.1049  0.8103
   69SLPC   C32 5866   6.718   4.574  10.283 -0.4283  0.0167  0.2701
   69SLPC   H2X 5867   6.826   4.589  10.302 -0.0259 -1.9671 -0.2260
   69SLPC   H2Y 5868   6.663   4.670  10.279 -0.4889  0.0375  1.2660
   69SLPC   C23 5869   6.295   4.360  10.245  0.0140 -0.5879  0.3385
   69SLPC   H3R 5870   6.277   4.255  10.214  3.3455 -0.6706 -1.9454
   69SLPC   H3S 5871   6.406   4.363  10.252  0.1585  1.3665 -1.7079
   69SLPC   C24 5872   6.248   4.450  10.124 -0.3205 -0.0749  0.0982
   69SLPC   H4R 5873   6.261   4.559  10.141  0.4153  0.1531 -1.7715
   69SLPC   H4S 5874   6.138   4.449  10.111 -0.0873 -1.2126 -2.2219
   69SLPC   C25 5875   6.318   4.405   9.999 -0.5014  0.2775  0.6345
   69SLPC   H5R 5876   6.279   4.302   9.979  0.1772  0.3978 -1.7026
   69SLPC   H5S 5877   6.427   4.402  10.019 -0.5816 -1.1847  1.0140
   69SLPC   C26 5878   6.280   4.487   9.870 -0.1438  0.1112 -0.0410
   69SLPC   H6R 5879   6.372   4.540   9.834 -0.1212  0.6321  0.7640
   69SLPC   H6S 5880   6.208   4.562   9.908  0.1901  0.9101 -0.9116
   69SLPC   C27 5881   6.238   4.399   9.759  0.0507 -0.0902  0.5608
   69SLPC   H7R 5882   6.152   4.339   9.797 -0.5166  1.0722  1.1489
   69SLPC   H7S 5883   6.317   4.323   9.743 -0.7401 -0.3892 -2.6975
   69SLPC   C28 5884   6.224   4.467   9.622 -0.1365  0.1361  0.3286
   69SLPC   H8R 5885   6.320   4.513   9.589 -1.1934  2.3645  0.1728
   69SLPC   H8S 5886   6.158   4.554   9.642 -4.4388 -2.5904 -0.5650
   69SLPC   C29 5887   6.170   4.379   9.511  0.1589  0.4707 -0.3210
   69SLPC   H9R 5888   6.128   4.281   9.538  1.2672 -0.3876 -1.6248
   69SLPC  C210 5889   6.178   4.396   9.375 -0.0364 -0.1329 -0.4265
   69SLPC  H10R 5890   6.128   4.322   9.311  1.7265 -2.3801  0.6549
   69SLPC  C211 5891   6.256   4.514   9.311 -0.0444  0.0877 -0.2055
   69SLPC  H11R 5892   6.327   4.473   9.237 -3.3779 -1.7299 -2.6908
   69SLPC  H11S 5893   6.323   4.556   9.389  2.0682 -1.0084 -1.3363
   69SLPC  C212 5894   6.162   4.625   9.262 -1.0480  0.2933 -0.2951
   69SLPC  H12R 5895   6.061   4.582   9.252  0.1062 -3.4661  1.9359
   69SLPC  C213 5896   6.192   4.739   9.204 -0.9643 -0.3312  0.1984
   69SLPC  H13R 5897   6.109   4.800   9.165  0.2245  1.4782  0.3333
   69SLPC  C214 5898   6.325   4.798   9.189 -0.0762 -0.5352 -0.2982
   69SLPC  H14R 5899   6.395   4.735   9.248 -0.5902  1.2507  2.3849
   69SLPC  H14S 5900   6.324   4.899   9.235 -2.5438 -0.6393 -0.0150
   69SLPC  C215 5901   6.369   4.794   9.044 -0.0273 -0.3143  0.0509
   69SLPC  H15R 5902   6.285   4.822   8.977 -0.1846 -0.2206  0.2817
   69SLPC  H15S 5903   6.394   4.688   9.024 -0.3826  0.0117 -2.4464
   69SLPC  C216 5904   6.492   4.885   9.009  0.3245 -0.1985 -0.0873
   69SLPC  H16R 5905   6.544   4.882   9.107 -0.8424  0.1907  0.5702
   69SLPC  H16S 5906   6.453   4.989   8.998 -0.7257 -0.3980  1.4002
   69SLPC  C217 5907   6.582   4.844   8.891 -0.8056  0.2561  0.2883
   69SLPC  H17R 5908   6.634   4.751   8.922 -0.7995 -0.0064 -0.4961
   69SLPC  H17S 5909   6.654   4.923   8.860 -2.3610  0.3496 -3.6384
   69SLPC  C218 5910   6.501   4.792   8.766  0.2071  0.8449 -0.3994
   69SLPC  H18R 5911   6.569   4.768   8.682  1.6883  1.6706  0.5165
   69SLPC  H18S 5912   6.424   4.869   8.744 -1.7944 -0.7649  0.6810
   69SLPC  H18T 5913   6.443   4.703   8.797  0.4692  0.8547  0.1394
   69SLPC   C33 5914   6.690   4.499  10.155  0.3665 -0.1286 -0.4633
   69SLPC   H3X 5915   6.580   4.488  10.144  0.0114  1.4060  1.1989
   69SLPC   H3Y 5916   6.745   4.403  10.144  0.1895 -0.2762 -0.0829
   69SLPC   C34 5917   6.730   4.596  10.039 -0.1706  0.3465  0.1714
   69SLPC   H4X 5918   6.840   4.609  10.029  0.1062 -0.2392  2.1474
   69SLPC   H4Y 5919   6.679   4.695  10.046  0.3743  0.7807 -1.5104
   69SLPC   C35 5920   6.691   4.525   9.906 -0.3855  0.2372 -0.4638
   69SLPC   H5X 5921   6.585   4.490   9.900 -0.9855  1.6590  1.0548
   69SLPC   H5Y 5922   6.751   4.433   9.892  1.4693  1.2928  0.2833
   69SLPC   C36 5923   6.725   4.615   9.791  0.5625 -0.0633 -0.4219
   69SLPC   H6X 5924   6.835   4.626   9.781  0.3667  2.7830 -0.3459
   69SLPC   H6Y 5925   6.696   4.720   9.812  4.6256  2.1625 -4.1084
   69SLPC   C37 5926   6.662   4.567   9.656  0.1366 -0.2945 -0.3161
   69SLPC   H7X 5927   6.671   4.658   9.592 -1.8068 -0.9109 -1.5600
   69SLPC   H7Y 5928   6.557   4.537   9.674  0.0955  0.2303  0.3957
   69SLPC   C38 5929   6.735   4.452   9.592 -0.4717  0.5052  0.3039
   69SLPC   H8X 5930   6.734   4.364   9.660 -1.3946  0.8585  0.7687
   69SLPC   H8Y 5931   6.838   4.481   9.564 -0.2600 -0.2839  0.2408
   69SLPC   C39 5932   6.668   4.405   9.458 -0.4805 -0.5853  0.2746
   69SLPC   H9X 5933   6.701   4.473   9.377 -0.7391 -0.3627  0.3514
   69SLPC   H9Y 5934   6.560   4.420   9.483 -0.7754 -1.1125 -0.6481
   69SLPC  C310 5935   6.685   4.259   9.435 -0.0053  0.1201 -0.2934
   69SLPC  H10X 5936   6.663   4.191   9.520  1.0095 -0.5652 -0.5601
   69SLPC  H10Y 5937   6.788   4.231   9.404  0.3022  2.5531 -1.7273
   69SLPC  C311 5938   6.593   4.214   9.317 -0.2112 -0.1369  0.2376
   69SLPC  H11X 5939   6.486   4.220   9.344  0.0482  0.0944  1.2621
   69SLPC  H11Y 5940   6.616   4.109   9.290  1.3007  0.7439 -2.2341
   69SLPC  C312 5941   6.608   4.301   9.192 -0.5176  0.3435  0.2048
   69SLPC  H12X 5942   6.707   4.273   9.150 -1.7286 -3.2103 -0.6740
   69SLPC  H12Y 5943   6.607   4.408   9.220 -0.1700  0.1114  1.1461
   69SLPC  C313 5944   6.509   4.267   9.076  0.2292  0.6876  0.6063
   69SLPC  H13X 5945   6.404   4.298   9.095 -0.6129  0.7008 -3.2290
   69SLPC  H13Y 5946   6.512   4.157   9.065  2.4330  0.8491 -1.3041
   69SLPC  C314 5947   6.542   4.353   8.950 -0.4739 -0.6808 -0.5079
   69SLPC  H14X 5948   6.634   4.300   8.919 -0.8390 -0.4846 -2.0036
   69SLPC  H14Y 5949   6.563   4.461   8.964 -0.4087 -0.6901 -0.5324
   69SLPC  C315 5950   6.456   4.337   8.832 -0.7537 -0.0580 -0.5434
   69SLPC  H15X 5951   6.397   4.430   8.833  0.6850  0.8849 -0.0320
   69SLPC  H15Y 5952   6.392   4.247   8.846 -2.1642  0.9890 -0.1286
   69SLPC  C316 5953   6.544   4.327   8.700  0.3980  0.5382 -0.5597
   69SLPC  H16X 5954   6.620   4.250   8.722  0.7592  1.4464  1.5852
   69SLPC  H16Y 5955   6.595   4.425   8.688 -0.8469  1.3657  0.5993
   69SLPC  C317 5956   6.469   4.286   8.577  0.0632 -0.1711  0.1944
   69SLPC  H17X 5957   6.414   4.377   8.543 -1.8366 -0.6223  1.8928
   69SLPC  H17Y 5958   6.393   4.210   8.605 -0.4589  0.3395  0.1789
   69SLPC  C318 5959   6.557   4.246   8.464  0.2202  0.0144  0.2748
   69SLPC  H18X 5960   6.647   4.311   8.459  0.4325 -0.1199  1.9116
   69SLPC  H18Y 5961   6.499   4.249   8.369 -0.9860  1.2909  1.0144
   69SLPC  H18Z 5962   6.582   4.138   8.471  2.2430  0.3752 -0.7408
   70SLPC     N 5963   1.352   0.659  10.627  0.3573  0.2517 -0.2501
   70SLPC   C13 5964   1.354   0.603  10.763 -0.0585 -0.4779 -0.6401
   70SLPC  H13A 5965   1.380   0.677  10.838  2.9915 -1.8128 -0.2230
   70SLPC  H13B 5966   1.263   0.558  10.799  0.2474  0.2767  1.2188
   70SLPC  H13C 5967   1.428   0.525  10.775  0.3398  0.0261  0.3516
   70SLPC   C14 5968   1.220   0.726  10.612  0.4823  0.2297 -0.5167
   70SLPC  H14A 5969   1.198   0.806  10.682 -3.4308 -0.3353 -0.8594
   70SLPC  H14B 5970   1.188   0.751  10.512 -0.9309  0.3380 -0.0690
   70SLPC  H14C 5971   1.145   0.651  10.633 -0.0467  1.2865  1.7468
   70SLPC   C15 5972   1.357   0.541  10.536 -0.5910  0.3048  0.0592
   70SLPC  H15A 5973   1.453   0.492  10.544 -1.2471 -1.3870 -1.5033
   70SLPC  H15B 5974   1.283   0.471  10.572 -1.7854  0.4418 -1.9681
   70SLPC  H15C 5975   1.325   0.575  10.438  1.0870  0.5988 -0.4101
   70SLPC   C12 5976   1.465   0.753  10.595 -0.0032  0.0426  0.1621
   70SLPC  H12A 5977   1.447   0.847  10.646  0.9894  1.5409 -2.1026
   70SLPC  H12B 5978   1.461   0.786  10.492  0.5927  1.5291  0.5825
   70SLPC   C11 5979   1.609   0.713  10.635 -0.5011  0.1687 -0.1676
   70SLPC  H11A 5980   1.687   0.785  10.602  1.0763 -1.5051 -0.3021
   70SLPC  H11B 5981   1.624   0.613  10.588 -3.0465 -0.2985 -0.1287
   70SLPC     P 5982   1.646   0.829  10.867  0.5440  0.2102 -0.3184
   70SLPC   O13 5983   1.660   0.787  11.009  0.5572  0.1044  0.1654
   70SLPC   O14 5984   1.772   0.900  10.819  0.4024  0.2473 -0.1878
   70SLPC   O12 5985   1.621   0.704  10.776 -0.0759 -0.8284 -0.5942
   70SLPC   O11 5986   1.512   0.907  10.839  0.7949  0.5343 -0.4645
   70SLPC    C1 5987   1.514   1.034  10.767 -0.3241  0.2924  0.5211
   70SLPC    HA 5988   1.586   1.105  10.812 -1.4588  0.9832  1.2828
   70SLPC    HB 5989   1.539   1.022  10.659  0.8061 -1.3866  0.9288
   70SLPC    C2 5990   1.377   1.100  10.767  0.1207  0.7465  0.1715
   70SLPC    HS 5991   1.334   1.079  10.867  1.3960  0.7831  0.7356
   70SLPC   O21 5992   1.293   1.052  10.660  0.3061  0.1996 -0.0195
   70SLPC   C21 5993   1.164   1.094  10.662  0.3028 -0.2506 -0.3096
   70SLPC   O22 5994   1.112   1.157  10.757  0.1274  0.0100 -0.1623
   70SLPC   C22 5995   1.083   1.052  10.540 -0.0129  0.0808  0.3860
   70SLPC   H2R 5996   1.028   0.961  10.571  1.0546 -0.4616  0.7132
   70SLPC   H2S 5997   1.013   1.134  10.511  0.4353 -0.1273 -1.3667
   70SLPC    C3 5998   1.396   1.259  10.767 -0.0317 -0.1320  0.2848
   70SLPC    HX 5999   1.457   1.275  10.859  2.6462 -0.8301 -1.2851
   70SLPC    HY 6000   1.299   1.312  10.781 -0.1572  0.2453 -1.7340
   70SLPC   O31 6001   1.486   1.308  10.659 -0.2432  0.4290 -0.2176
   70SLPC   C31 6002   1.427   1.357  10.549 -0.1687 -0.1701 -0.5619
   70SLPC   O32 6003   1.306   1.381  10.538 -0.3554 -0.2611  0.0552
   70SLPC   C32 6004   1.534   1.377  10.440  0.3974  0.1746 -0.5383
   70SLPC   H2X 6005   1.604   1.292  10.451  0.4643 -0.1082 -2.7234
   70SLPC   H2Y 6006   1.593   1.472  10.444  1.1884 -0.2193 -2.2054
   70SLPC   C23 6007   1.168   1.025  10.412  0.4626 -0.1435  0.1931
   70SLPC   H3R 6008   1.245   0.945  10.418  1.5013  0.8394  0.3015
   70SLPC   H3S 6009   1.205   1.125  10.381  0.1052 -0.1740 -0.3581
   70SLPC   C24 6010   1.089   0.971  10.293  0.2829  0.1361 -0.4245
   70SLPC   H4R 6011   0.990   0.944  10.336 -0.6244  0.9874 -1.8750
   70SLPC   H4S 6012   1.142   0.883  10.250  1.0086 -0.2799  1.2559
   70SLPC   C25 6013   1.042   1.072  10.186  0.5698  0.0665  0.4442
   70SLPC   H5R 6014   1.135   1.086  10.127  0.7394 -1.8677  0.1897
   70SLPC   H5S 6015   1.002   1.165  10.233 -0.4631  0.3552 -0.9465
   70SLPC   C26 6016   0.933   1.008  10.097  0.1842 -0.3279 -0.1249
   70SLPC   H6R 6017   0.860   0.956  10.163  0.6259  0.6699  1.2028
   70SLPC   H6S 6018   0.978   0.922  10.043  2.0731  1.1765 -1.0664
   70SLPC   C27 6019   0.872   1.102  10.002  0.3749  0.0421 -0.1436
   70SLPC   H7R 6020   0.826   1.191  10.050  1.3460  0.4407  0.0866
   70SLPC   H7S 6021   0.785   1.048   9.960  0.4193 -0.2237  0.1027
   70SLPC   C28 6022   0.958   1.151   9.884  0.7185  0.4630 -0.0821
   70SLPC   H8R 6023   1.039   1.203   9.939  0.9334 -0.2262  0.2665
   70SLPC   H8S 6024   0.907   1.224   9.818  1.6079 -0.2308 -1.6161
   70SLPC   C29 6025   1.028   1.046   9.803 -0.5822 -0.6218 -0.2012
   70SLPC   H9R 6026   1.109   0.999   9.859 -1.7702  0.8412  2.9829
   70SLPC  C210 6027   1.012   1.016   9.672 -0.2115  0.6402  0.8983
   70SLPC  H10R 6028   1.066   0.927   9.636  1.5092  1.9958  0.0085
   70SLPC  C211 6029   0.920   1.076   9.565  0.1930  0.6888 -0.0903
   70SLPC  H11R 6030   0.871   1.167   9.607  1.2832  0.3472  2.0656
   70SLPC  H11S 6031   0.834   1.011   9.539  0.1418  1.1443 -1.0885
   70SLPC  C212 6032   0.980   1.100   9.431  0.5828 -0.5445  0.1263
   70SLPC  H12R 6033   1.055   1.178   9.417  3.5457 -3.2469 -0.1992
   70SLPC  C213 6034   0.974   1.014   9.326  1.0102  0.4693  0.0381
   70SLPC  H13R 6035   1.043   1.033   9.243  1.6940  0.6714  0.6430
   70SLPC  C214 6036   0.893   0.884   9.330 -0.2881  0.3422 -0.1535
   70SLPC  H14R 6037   0.787   0.902   9.302 -0.7994 -3.1568 -0.8940
   70SLPC  H14S 6038   0.905   0.816   9.417  0.0680  1.5111  0.7408
   70SLPC  C215 6039   0.941   0.793   9.210  0.0155 -0.1013 -0.9502
   70SLPC  H15R 6040   1.041   0.754   9.240 -0.6222 -0.0887  1.4449
   70SLPC  H15S 6041   0.962   0.862   9.126  0.1223  0.5627 -0.3854
   70SLPC  C216 6042   0.846   0.687   9.153  0.0474 -0.2450  0.1268
   70SLPC  H16R 6043   0.742   0.723   9.164  0.5616  1.7690 -1.1435
   70SLPC  H16S 6044   0.837   0.598   9.219  0.1963  1.7064  2.9177
   70SLPC  C217 6045   0.880   0.648   9.006 -0.4720  0.1570  0.8895
   70SLPC  H17R 6046   0.917   0.729   8.940 -2.5198 -0.8520 -1.7143
   70SLPC  H17S 6047   0.783   0.624   8.957  0.4857  0.9615 -1.5193
   70SLPC  C218 6048   0.975   0.530   8.977  0.2821 -0.5688 -0.1997
   70SLPC  H18R 6049   0.978   0.519   8.867 -1.9972 -1.1605 -0.2455
   70SLPC  H18S 6050   0.938   0.434   9.019  1.7093 -0.4974  1.3602
   70SLPC  H18T 6051   1.076   0.549   9.020  0.4903 -4.6553  1.6646
   70SLPC   C33 6052   1.468   1.382  10.297 -0.5411  1.0039 -0.6265
   70SLPC   H3X 6053   1.384   1.455  10.293 -0.1518  1.7021  2.1382
   70SLPC   H3Y 6054   1.430   1.277  10.296  2.4877 -0.2161  0.3492
   70SLPC   C34 6055   1.556   1.397  10.178  0.3096  0.0331  0.3067
   70SLPC   H4X 6056   1.621   1.307  10.171 -0.8331 -0.6550 -2.4954
   70SLPC   H4Y 6057   1.630   1.479  10.186  1.0725 -0.7375  1.7803
   70SLPC   C35 6058   1.494   1.416  10.042 -0.4399 -0.3635  0.1312
   70SLPC   H5X 6059   1.581   1.420   9.973 -0.3918  1.1021  0.2470
   70SLPC   H5Y 6060   1.442   1.514  10.039 -1.8813 -1.1198 -0.8102
   70SLPC   C36 6061   1.393   1.311   9.997 -1.0791 -0.1409  0.1630
   70SLPC   H6X 6062   1.304   1.308  10.064 -1.4033 -0.9630 -0.2937
   70SLPC   H6Y 6063   1.437   1.209   9.990  0.6934  0.6575 -0.7148
   70SLPC   C37 6064   1.343   1.328   9.849  0.5340  0.2913 -0.0480
   70SLPC   H7X 6065   1.296   1.429   9.842  3.7828  2.0950  1.7246
   70SLPC   H7Y 6066   1.270   1.246   9.831  0.7414  0.4015 -1.4907
   70SLPC   C38 6067   1.447   1.314   9.742 -0.7773 -0.5180  0.0038
   70SLPC   H8X 6068   1.492   1.218   9.773 -2.9206 -1.9088 -0.9189
   70SLPC   H8Y 6069   1.521   1.397   9.736  0.0104 -1.2774 -1.3160
   70SLPC   C39 6070   1.400   1.293   9.595 -0.1066  0.5696  0.3216
   70SLPC   H9X 6071   1.356   1.387   9.556 -1.5139  0.2169  0.9648
   70SLPC   H9Y 6072   1.308   1.229   9.597  0.8267 -0.8341 -0.1626
   70SLPC  C310 6073   1.511   1.248   9.498 -0.2327  0.6225 -0.7443
   70SLPC  H10X 6074   1.543   1.146   9.529 -0.5916  0.9825  0.8546
   70SLPC  H10Y 6075   1.597   1.317   9.509 -2.1206  3.2086 -1.3174
   70SLPC  C311 6076   1.457   1.235   9.356  0.0354  0.6460  0.0206
   70SLPC  H11X 6077   1.445   1.335   9.311  1.3302  0.6075 -0.4571
   70SLPC  H11Y 6078   1.356   1.188   9.357 -0.8968  2.5479 -0.7967
   70SLPC  C312 6079   1.560   1.157   9.271  0.0856 -0.2307 -0.4440
   70SLPC  H12X 6080   1.592   1.063   9.321 -1.6065 -1.4819 -1.6266
   70SLPC  H12Y 6081   1.652   1.218   9.253  1.2274 -1.4456  0.9342
   70SLPC  C313 6082   1.499   1.110   9.137 -0.1703 -0.2760  0.4129
   70SLPC  H13X 6083   1.397   1.067   9.146 -1.1779  1.3602 -2.1368
   70SLPC  H13Y 6084   1.573   1.035   9.099 -2.0275 -0.4341 -3.4175
   70SLPC  C314 6085   1.486   1.222   9.031  0.3729  0.0429 -1.2798
   70SLPC  H14X 6086   1.589   1.264   9.026  0.4465  0.3631  1.3617
   70SLPC  H14Y 6087   1.421   1.305   9.066  0.6880 -0.2070 -0.0542
   70SLPC  C315 6088   1.439   1.168   8.894  0.0475  1.0309  0.1964
   70SLPC  H15X 6089   1.343   1.112   8.894  0.3250  0.5248 -0.8611
   70SLPC  H15Y 6090   1.511   1.092   8.857 -1.2565 -0.7834  1.2530
   70SLPC  C316 6091   1.414   1.274   8.787 -0.2159  0.2750  0.1656
   70SLPC  H16X 6092   1.376   1.372   8.824  0.0780  0.5034 -0.1222
   70SLPC  H16Y 6093   1.344   1.246   8.705  1.2051  0.1101 -1.0352
   70SLPC  C317 6094   1.548   1.297   8.709  0.2160  0.9353  0.3537
   70SLPC  H17X 6095   1.575   1.200   8.662 -0.9804  0.5542  0.4128
   70SLPC  H17Y 6096   1.618   1.312   8.794 -2.5968 -2.4123  3.5925
   70SLPC  C318 6097   1.548   1.412   8.606  0.0977  0.1774  0.5247
   70SLPC  H18X 6098   1.646   1.407   8.554  0.1951 -1.0271  0.8001
   70SLPC  H18Y 6099   1.553   1.513   8.654 -0.2710  0.0234  0.8925
   70SLPC  H18Z 6100   1.462   1.407   8.536 -0.4775  0.9767  1.1561
   71SLPC     N 6101   4.811   3.406  10.951 -0.5642 -0.0513  0.0067
   71SLPC   C13 6102   4.929   3.499  10.937 -0.1672 -0.3457  0.2305
   71SLPC  H13A 6103   4.917   3.579  11.009  0.1290 -0.4487  0.3972
   71SLPC  H13B 6104   5.022   3.447  10.955  0.0627 -0.4319 -1.0980
   71SLPC  H13C 6105   4.924   3.548  10.841 -0.3595  0.3790  0.6051
   71SLPC   C14 6106   4.788   3.374  11.092 -0.4543  0.1566  0.8536
   71SLPC  H14A 6107   4.782   3.467  11.147  1.7374  0.8547 -0.0073
   71SLPC  H14B 6108   4.698   3.316  11.110 -0.0554 -0.0691  2.2378
   71SLPC  H14C 6109   4.873   3.320  11.131 -0.9310 -0.3184  1.2530
   71SLPC   C15 6110   4.838   3.280  10.872  0.0547  0.1979 -0.6872
   71SLPC  H15A 6111   4.910   3.219  10.923 -0.1862  1.4606  1.2858
   71SLPC  H15B 6112   4.749   3.220  10.859  0.6539 -1.0790  0.7855
   71SLPC  H15C 6113   4.881   3.298  10.774 -1.1304  1.8586 -0.9611
   71SLPC   C12 6114   4.683   3.469  10.899 -0.7354  0.7285  1.0250
   71SLPC  H12A 6115   4.667   3.557  10.960  0.0354  1.4158  0.2546
   71SLPC  H12B 6116   4.599   3.411  10.936 -0.4239 -0.4615 -0.0369
   71SLPC   C11 6117   4.673   3.509  10.754  0.1775 -0.2577  0.2214
   71SLPC  H11A 6118   4.570   3.544  10.734  0.2714 -0.0561  0.0887
   71SLPC  H11B 6119   4.690   3.427  10.680 -0.0787 -0.9533  0.9156
   71SLPC     P 6120   4.736   3.755  10.783  0.3252 -0.0268  0.1639
   71SLPC   O13 6121   4.720   3.759  10.928  0.1345  0.4551  0.1219
   71SLPC   O14 6122   4.848   3.838  10.734 -0.7768  0.4895 -0.3077
   71SLPC   O12 6123   4.768   3.612  10.734  0.3525  0.2504 -0.0061
   71SLPC   O11 6124   4.604   3.783  10.702 -0.4695 -0.3071  0.0869
   71SLPC    C1 6125   4.609   3.774  10.557 -0.2241  0.1415  0.6927
   71SLPC    HA 6126   4.674   3.691  10.521 -0.0913 -0.1654  1.6205
   71SLPC    HB 6127   4.504   3.750  10.531 -1.2747  3.3430  1.5743
   71SLPC    C2 6128   4.646   3.901  10.487 -0.0537 -0.0665 -0.2511
   71SLPC    HS 6129   4.611   3.982  10.553 -1.4438  1.2172 -2.4251
   71SLPC   O21 6130   4.558   3.917  10.377  0.1499 -0.4484 -0.2717
   71SLPC   C21 6131   4.536   4.049  10.343  0.2921  0.8323  0.5672
   71SLPC   O22 6132   4.595   4.145  10.383 -0.1009  0.0188  0.4215
   71SLPC   C22 6133   4.418   4.051  10.250 -0.5197  1.1927 -0.0943
   71SLPC   H2R 6134   4.410   3.961  10.186 -0.2427  0.1282  1.3078
   71SLPC   H2S 6135   4.324   4.066  10.308 -0.1095 -2.2306  1.6722
   71SLPC    C3 6136   4.790   3.900  10.436 -0.2746 -0.4828 -0.3229
   71SLPC    HX 6137   4.836   3.799  10.449  2.5255  0.6511 -0.8365
   71SLPC    HY 6138   4.858   3.957  10.502 -0.4781 -0.6949  0.0782
   71SLPC   O31 6139   4.805   3.945  10.296 -0.4999 -0.0446 -0.3437
   71SLPC   C31 6140   4.928   3.933  10.233 -0.2639 -0.7658 -0.3425
   71SLPC   O32 6141   5.032   3.900  10.280 -0.8133 -0.1292 -0.3843
   71SLPC   C32 6142   4.904   3.965  10.085 -0.3417 -0.6284 -0.6731
   71SLPC   H2X 6143   4.939   4.070  10.082  2.3197 -1.3983  0.6693
   71SLPC   H2Y 6144   4.794   3.965  10.066 -0.6210  1.4290  0.6578
   71SLPC   C23 6145   4.423   4.167  10.147 -0.2434 -0.2768 -0.8895
   71SLPC   H3R 6146   4.407   4.267  10.192  1.9940 -0.9679  1.7289
   71SLPC   H3S 6147   4.329   4.164  10.089 -1.3208  0.4530  0.7476
   71SLPC   C24 6148   4.542   4.163  10.046 -0.7501  0.2172  0.4759
   71SLPC   H4R 6149   4.641   4.172  10.095 -0.2270 -1.7997 -0.1083
   71SLPC   H4S 6150   4.529   4.255   9.985 -1.8922  0.3334  0.8591
   71SLPC   C25 6151   4.553   4.041   9.950 -0.0567 -0.2327  0.2675
   71SLPC   H5R 6152   4.526   3.947  10.003 -0.8010 -0.0769  0.1781
   71SLPC   H5S 6153   4.658   4.032   9.917  0.0635 -0.8989  0.8162
   71SLPC   C26 6154   4.467   4.056   9.825  0.4151  0.0477 -0.2555
   71SLPC   H6R 6155   4.477   4.151   9.768 -0.7956 -1.4347 -3.0921
   71SLPC   H6S 6156   4.362   4.069   9.859 -0.1809  1.7131 -2.5179
   71SLPC   C27 6157   4.458   3.933   9.741  0.5079 -0.3191 -0.0929
   71SLPC   H7R 6158   4.350   3.920   9.719 -0.4196  2.8031  1.9701
   71SLPC   H7S 6159   4.492   3.843   9.796  2.1724 -0.4493 -1.2810
   71SLPC   C28 6160   4.541   3.947   9.609  0.2329  0.3230  0.6237
   71SLPC   H8R 6161   4.552   3.847   9.562  0.8672  0.1251  1.1831
   71SLPC   H8S 6162   4.642   3.975   9.646 -0.2035  0.5546  1.6689
   71SLPC   C29 6163   4.484   4.061   9.529  0.4394  0.8060  0.1993
   71SLPC   H9R 6164   4.445   4.146   9.587 -1.6083  0.1805 -0.1816
   71SLPC  C210 6165   4.483   4.075   9.397 -0.2784 -0.5289  0.2767
   71SLPC  H10R 6166   4.439   4.166   9.353  3.4626  0.7543 -1.1872
   71SLPC  C211 6167   4.531   3.980   9.291 -0.7012 -0.8384 -0.3207
   71SLPC  H11R 6168   4.603   3.909   9.338 -0.0440  1.3467  2.1903
   71SLPC  H11S 6169   4.588   4.041   9.217 -0.4739  2.1396  2.1106
   71SLPC  C212 6170   4.416   3.900   9.229 -0.6890 -0.1540  0.0307
   71SLPC  H12R 6171   4.332   3.868   9.293 -0.3657 -0.6457  0.2124
   71SLPC  C213 6172   4.407   3.857   9.100 -0.5764 -0.1822  0.1319
   71SLPC  H13R 6173   4.325   3.791   9.070 -0.7163 -1.3743  2.8970
   71SLPC  C214 6174   4.517   3.869   8.994  0.3412  0.0525 -0.6785
   71SLPC  H14R 6175   4.559   3.768   8.975  0.9798  0.0866  0.4308
   71SLPC  H14S 6176   4.605   3.934   9.016 -1.7031  2.8448 -0.2233
   71SLPC  C215 6177   4.480   3.916   8.855  0.5240 -0.7630 -0.3317
   71SLPC  H15R 6178   4.574   3.952   8.807  0.7181 -1.6330 -0.6083
   71SLPC  H15S 6179   4.405   3.998   8.851  1.0843 -0.2109  0.1921
   71SLPC  C216 6180   4.431   3.797   8.772  0.7950  0.3686  0.3802
   71SLPC  H16R 6181   4.339   3.750   8.812  0.6950  0.9463  0.8508
   71SLPC  H16S 6182   4.500   3.710   8.778  2.1857  1.3468 -0.8330
   71SLPC  C217 6183   4.410   3.841   8.625 -0.3081  0.2340 -0.9394
   71SLPC  H17R 6184   4.511   3.868   8.587  0.5566  0.5763  1.4134
   71SLPC  H17S 6185   4.352   3.935   8.626  2.0133  1.8041  1.7156
   71SLPC  C218 6186   4.352   3.738   8.528  0.0972 -0.5218 -0.6957
   71SLPC  H18R 6187   4.317   3.776   8.430 -0.5058 -0.8759 -0.6222
   71SLPC  H18S 6188   4.262   3.701   8.582 -0.7641  0.2492 -1.5908
   71SLPC  H18T 6189   4.420   3.651   8.511  0.8523  0.0297 -0.5586
   71SLPC   C33 6190   4.981   3.880   9.978 -0.3973 -0.1523 -0.0793
   71SLPC   H3X 6191   5.090   3.899   9.988 -0.2518 -1.2612  0.6740
   71SLPC   H3Y 6192   4.961   3.912   9.874 -0.7728 -2.9987 -0.9594
   71SLPC   C34 6193   4.937   3.729   9.975  0.2858 -0.0279 -0.4285
   71SLPC   H4X 6194   4.830   3.716   9.999  0.5882  0.0911  1.0933
   71SLPC   H4Y 6195   4.992   3.675  10.055  1.2792 -0.0605 -1.1229
   71SLPC   C35 6196   4.972   3.650   9.854 -0.9347 -0.4133  0.1411
   71SLPC   H5X 6197   4.946   3.543   9.871  0.3501 -0.9590 -1.0920
   71SLPC   H5Y 6198   5.083   3.650   9.842 -1.0311 -1.4421 -0.8573
   71SLPC   C36 6199   4.896   3.695   9.721  1.3487 -0.1526  0.4700
   71SLPC   H6X 6200   4.927   3.797   9.692 -0.9348  0.5949  0.4850
   71SLPC   H6Y 6201   4.790   3.706   9.751  1.3274  1.3785 -0.0970
   71SLPC   C37 6202   4.918   3.594   9.607  0.1971  0.0418 -0.0217
   71SLPC   H7X 6203   4.852   3.624   9.523 -0.3520  0.1741  0.4488
   71SLPC   H7Y 6204   4.902   3.491   9.647  3.9983 -1.5891 -2.1608
   71SLPC   C38 6205   5.058   3.581   9.547  0.0589 -0.3892  0.0817
   71SLPC   H8X 6206   5.115   3.555   9.639 -0.6926 -2.6632 -0.0198
   71SLPC   H8Y 6207   5.096   3.676   9.505  1.3970 -1.1371 -0.4835
   71SLPC   C39 6208   5.086   3.469   9.453  0.7159 -0.1614 -0.0183
   71SLPC   H9X 6209   5.043   3.382   9.507 -0.4336  0.6092  0.3467
   71SLPC   H9Y 6210   5.194   3.447   9.440  0.5271 -0.6485 -0.9323
   71SLPC  C310 6211   5.009   3.485   9.320  0.7182 -0.5624  0.3822
   71SLPC  H10X 6212   5.049   3.571   9.262 -0.0461 -0.7141 -0.3882
   71SLPC  H10Y 6213   4.903   3.516   9.333  0.9349  0.3915 -0.0443
   71SLPC  C311 6214   5.007   3.357   9.234  0.9706 -0.4797 -0.3134
   71SLPC  H11X 6215   4.978   3.281   9.309  1.1020 -1.0125 -0.7954
   71SLPC  H11Y 6216   5.106   3.331   9.192  1.2418  0.0503 -0.0062
   71SLPC  C312 6217   4.911   3.365   9.118 -0.8836 -0.4478  0.4751
   71SLPC  H12X 6218   4.931   3.465   9.073 -2.2333 -0.4194 -0.1208
   71SLPC  H12Y 6219   4.809   3.377   9.160 -1.8258 -1.7949 -1.2830
   71SLPC  C313 6220   4.922   3.253   9.014 -0.1312 -0.4260 -0.5414
   71SLPC  H13X 6221   4.861   3.272   8.923  0.2956  0.1443 -0.7150
   71SLPC  H13Y 6222   4.872   3.165   9.060 -1.4646 -0.4833 -1.9968
   71SLPC  C314 6223   5.063   3.225   8.954 -0.3805  0.2864 -0.1525
   71SLPC  H14X 6224   5.131   3.209   9.040 -2.1709  1.7082  1.6381
   71SLPC  H14Y 6225   5.102   3.313   8.899 -0.5308 -0.9321 -2.3701
   71SLPC  C315 6226   5.066   3.106   8.860 -0.0136  0.1171  0.3160
   71SLPC  H15X 6227   4.977   3.108   8.793 -3.0954 -2.5581  3.8623
   71SLPC  H15Y 6228   5.056   3.010   8.914 -2.5589 -0.3330 -0.8040
   71SLPC  C316 6229   5.191   3.106   8.768  0.9216 -0.4018  0.1722
   71SLPC  H16X 6230   5.281   3.130   8.829  0.9741 -0.1496 -0.0017
   71SLPC  H16Y 6231   5.174   3.197   8.707  0.7174  1.4535  2.8062
   71SLPC  C317 6232   5.211   2.978   8.684  0.0256  0.0555 -0.7751
   71SLPC  H17X 6233   5.222   2.897   8.758 -0.7705  0.9523  0.3584
   71SLPC  H17Y 6234   5.306   2.977   8.626  0.2502  1.5105 -0.4824
   71SLPC  C318 6235   5.102   2.932   8.588 -0.5240 -0.2614  1.0596
   71SLPC  H18X 6236   5.156   2.860   8.523  1.4101 -0.6549  2.9552
   71SLPC  H18Y 6237   5.064   3.012   8.521  3.5258  0.0611 -1.1984
   71SLPC  H18Z 6238   5.015   2.887   8.641 -1.7292 -0.0293 -0.6504
   72SLPC     N 6239   6.181   1.907  10.829  0.1592  0.1612  0.0143
   72SLPC   C13 6240   6.214   1.777  10.761 -0.6048  0.2412  0.0835
   72SLPC  H13A 6241   6.306   1.790  10.706 -1.5332 -0.3803 -1.6728
   72SLPC  H13B 6242   6.236   1.697  10.830  0.8202  1.0242  0.5812
   72SLPC  H13C 6243   6.133   1.742  10.698 -0.2189 -0.2978 -0.1252
   72SLPC   C14 6244   6.279   1.932  10.935 -0.2296 -0.4666 -0.5322
   72SLPC  H14A 6245   6.267   1.860  11.015 -3.4594  0.8091  0.2910
   72SLPC  H14B 6246   6.379   1.945  10.899 -0.1514 -0.7699 -0.4281
   72SLPC  H14C 6247   6.254   2.024  10.987  0.4203  0.3424 -1.6100
   72SLPC   C15 6248   6.044   1.894  10.891  0.2584 -0.0485 -0.3043
   72SLPC  H15A 6249   6.012   1.976  10.954 -0.6718  0.5714 -1.5254
   72SLPC  H15B 6250   5.972   1.902  10.810  0.8718  3.6743 -0.6656
   72SLPC  H15C 6251   6.038   1.803  10.949  2.0443  0.3063  0.4872
   72SLPC   C12 6252   6.166   2.022  10.723  0.1514  0.4648 -0.7709
   72SLPC  H12A 6253   6.143   2.114  10.774 -0.7913  0.4690 -1.1850
   72SLPC  H12B 6254   6.084   2.010  10.653  0.8000  0.1071 -1.4880
   72SLPC   C11 6255   6.301   2.066  10.656  0.1099  0.3840  0.1134
   72SLPC  H11A 6256   6.273   2.108  10.557  1.7199  0.9526 -0.1232
   72SLPC  H11B 6257   6.352   1.972  10.625 -0.3690  0.0570  0.3076
   72SLPC     P 6258   6.345   2.285  10.762  0.0447  0.0005 -0.0489
   72SLPC   O13 6259   6.201   2.286  10.786  1.1375  0.0835  0.0362
   72SLPC   O14 6260   6.424   2.354  10.859 -0.0714 -0.0401  0.1817
   72SLPC   O12 6261   6.389   2.135  10.738 -0.1201 -0.2994  0.3198
   72SLPC   O11 6262   6.367   2.350  10.616 -0.4596  0.5490 -0.1988
   72SLPC    C1 6263   6.504   2.365  10.584 -0.1141  0.6827  1.1303
   72SLPC    HA 6264   6.575   2.318  10.655 -0.1239 -1.5141 -0.2026
   72SLPC    HB 6265   6.536   2.300  10.499  2.2679 -0.6060  2.8895
   72SLPC    C2 6266   6.535   2.520  10.563 -0.0707  0.6191  0.6790
   72SLPC    HS 6267   6.508   2.567  10.660 -0.2793  2.4603 -0.2326
   72SLPC   O21 6268   6.443   2.565  10.461  0.4484  0.3059 -0.4270
   72SLPC   C21 6269   6.429   2.699  10.452 -0.1324 -0.3627 -0.4671
   72SLPC   O22 6270   6.470   2.779  10.535  0.4076 -0.2271  0.0712
   72SLPC   C22 6271   6.360   2.739  10.324  0.8218 -0.1527 -0.0220
   72SLPC   H2R 6272   6.250   2.745  10.340  0.8252  0.1382 -0.1178
   72SLPC   H2S 6273   6.402   2.840  10.307 -2.5495  1.1590 -1.4702
   72SLPC    C3 6274   6.683   2.540  10.528 -0.0889 -0.4762  0.1301
   72SLPC    HX 6275   6.746   2.509  10.615 -1.2407  0.6275  1.4070
   72SLPC    HY 6276   6.704   2.649  10.526 -3.2537  0.2905  1.7466
   72SLPC   O31 6277   6.703   2.485  10.403 -0.0072  0.3510  0.2484
   72SLPC   C31 6278   6.779   2.371  10.396  0.3571  0.4960  0.0518
   72SLPC   O32 6279   6.834   2.332  10.502  0.6011 -0.2870 -0.1519
   72SLPC   C32 6280   6.786   2.310  10.256  0.0877  0.7598 -0.2324
   72SLPC   H2X 6281   6.694   2.251  10.235 -0.8997  2.0757  0.2622
   72SLPC   H2Y 6282   6.872   2.240  10.248 -2.3226 -2.3690 -0.7989
   72SLPC   C23 6283   6.391   2.643  10.210 -0.4440  0.1556 -0.0380
   72SLPC   H3R 6284   6.331   2.552  10.234  0.9925 -0.6910  0.4574
   72SLPC   H3S 6285   6.495   2.606  10.200 -0.1464  1.0569 -0.3632
   72SLPC   C24 6286   6.348   2.706  10.076 -0.4062  0.0046 -0.3995
   72SLPC   H4R 6287   6.396   2.655   9.989  0.9877  0.8868 -0.1776
   72SLPC   H4S 6288   6.395   2.807  10.076  0.8459 -0.5044  1.9598
   72SLPC   C25 6289   6.199   2.697  10.047  0.3396 -0.4461 -0.3207
   72SLPC   H5R 6290   6.151   2.767  10.119  1.3184  0.3031 -0.3684
   72SLPC   H5S 6291   6.143   2.601  10.052 -1.0607  0.1837 -2.3497
   72SLPC   C26 6292   6.175   2.751   9.903 -0.7228  0.1698  0.0784
   72SLPC   H6R 6293   6.262   2.723   9.840  0.8177  0.1986  2.0684
   72SLPC   H6S 6294   6.189   2.861   9.912 -0.7162  0.1100  0.9258
   72SLPC   C27 6295   6.034   2.725   9.841 -0.0708 -0.3850  0.6984
   72SLPC   H7R 6296   5.966   2.780   9.908  2.0966 -1.4229  4.0031
   72SLPC   H7S 6297   6.016   2.617   9.863  0.1246  0.0724  3.4050
   72SLPC   C28 6298   6.040   2.781   9.694  0.5450 -0.6213 -0.1049
   72SLPC   H8R 6299   6.100   2.716   9.628  1.0774 -1.7306  1.4315
   72SLPC   H8S 6300   6.091   2.879   9.703  0.7047 -0.7505  0.3974
   72SLPC   C29 6301   5.892   2.794   9.648  0.0647 -0.0685  0.1330
   72SLPC   H9R 6302   5.818   2.831   9.720 -0.8349  0.6341 -1.0962
   72SLPC  C210 6303   5.847   2.766   9.527  0.0584  0.1844  0.1577
   72SLPC  H10R 6304   5.741   2.787   9.508 -0.1514 -0.3330  0.7278
   72SLPC  C211 6305   5.932   2.731   9.408 -0.0404 -0.1032  0.0765
   72SLPC  H11R 6306   6.009   2.658   9.439 -1.9550 -1.8138  1.0826
   72SLPC  H11S 6307   5.991   2.815   9.366  1.1411 -1.1252 -0.3527
   72SLPC  C212 6308   5.869   2.663   9.282  0.2777  0.1845  0.1747
   72SLPC  H12R 6309   5.848   2.555   9.289  1.5472 -0.0904  0.1255
   72SLPC  C213 6310   5.839   2.726   9.168  0.8986 -0.0080  0.0162
   72SLPC  H13R 6311   5.779   2.676   9.091  0.6236  0.4107 -0.0403
   72SLPC  C214 6312   5.862   2.878   9.150 -0.0954 -0.4731  0.5413
   72SLPC  H14R 6313   5.880   2.929   9.247  1.5445  0.9415 -0.4372
   72SLPC  H14S 6314   5.780   2.923   9.090 -0.2425 -1.6639 -0.1671
   72SLPC  C215 6315   5.994   2.906   9.068 -0.2033  0.7471 -0.2396
   72SLPC  H15R 6316   5.988   2.841   8.978  0.2468 -0.8656  0.8574
   72SLPC  H15S 6317   6.076   2.856   9.124  0.3454  1.9019  0.0324
   72SLPC  C216 6318   6.022   3.055   9.066 -0.5899  0.2858  0.0269
   72SLPC  H16R 6319   6.035   3.084   9.172 -1.0931 -0.0806  0.1963
   72SLPC  H16S 6320   5.947   3.111   9.005 -0.1408  2.2696  1.2160
   72SLPC  C217 6321   6.164   3.086   9.017  0.3215 -0.0097 -0.1838
   72SLPC  H17R 6322   6.182   3.191   9.048 -0.1601 -0.1121  0.4590
   72SLPC  H17S 6323   6.157   3.090   8.907  1.7524  2.7460 -0.2836
   72SLPC  C218 6324   6.280   2.997   9.061 -0.0537  0.0280 -0.4045
   72SLPC  H18R 6325   6.379   3.028   9.021 -0.8570  0.4540 -2.1561
   72SLPC  H18S 6326   6.268   2.890   9.036 -1.8263 -0.8891  3.6339
   72SLPC  H18T 6327   6.296   2.993   9.171  0.4395 -2.0394 -0.5094
   72SLPC   C33 6328   6.798   2.412  10.145  0.1620  0.3338  0.1362
   72SLPC   H3X 6329   6.873   2.481  10.188  2.2325 -1.9540  0.4184
   72SLPC   H3Y 6330   6.709   2.479  10.140 -0.8284 -0.5735  3.0696
   72SLPC   C34 6331   6.831   2.361  10.003  0.1170 -0.2507 -0.1003
   72SLPC   H4X 6332   6.739   2.308   9.972 -0.8041  0.4416  1.3429
   72SLPC   H4Y 6333   6.920   2.295  10.009 -0.8423 -1.4862  0.7857
   72SLPC   C35 6334   6.843   2.471   9.896 -0.5653  0.1094  0.3161
   72SLPC   H5X 6335   6.938   2.523   9.919 -0.4234 -0.1498  0.3272
   72SLPC   H5Y 6336   6.766   2.551   9.907  0.8862  1.6814 -0.5952
   72SLPC   C36 6337   6.838   2.426   9.749 -0.2637  0.0868  0.5334
   72SLPC   H6X 6338   6.746   2.365   9.733  0.4406 -1.0978  0.8175
   72SLPC   H6Y 6339   6.935   2.376   9.727  0.0786  0.6714  0.7000
   72SLPC   C37 6340   6.843   2.550   9.651 -0.1526  0.2178 -0.5764
   72SLPC   H7X 6341   6.929   2.615   9.677  0.4187 -0.1813 -1.4266
   72SLPC   H7Y 6342   6.752   2.611   9.666  0.5146  0.5738  2.7949
   72SLPC   C38 6343   6.858   2.504   9.500 -0.5937 -0.1932 -0.1172
   72SLPC   H8X 6344   6.768   2.439   9.489 -2.5191  1.8915  2.1580
   72SLPC   H8Y 6345   6.953   2.452   9.474  0.8537  2.0722  0.4142
   72SLPC   C39 6346   6.861   2.617   9.399 -0.0849 -0.0802  0.1953
   72SLPC   H9X 6347   6.955   2.676   9.400 -1.7891  2.8532  2.0050
   72SLPC   H9Y 6348   6.779   2.689   9.423  0.3270  0.9711 -1.3571
   72SLPC  C310 6349   6.858   2.563   9.254 -0.4820 -0.0069 -0.0779
   72SLPC  H10X 6350   6.749   2.549   9.239 -0.5473  0.3855  0.0268
   72SLPC  H10Y 6351   6.901   2.461   9.239 -0.1998  0.1905 -0.6205
   72SLPC  C311 6352   6.906   2.662   9.147 -0.2906  0.0663 -0.2566
   72SLPC  H11X 6353   7.011   2.696   9.157 -1.1122  2.0140  4.3647
   72SLPC  H11Y 6354   6.847   2.755   9.157 -1.3696 -0.5223 -0.8930
   72SLPC  C312 6355   6.901   2.605   9.007 -0.2558  0.4560 -0.2896
   72SLPC  H12X 6356   6.937   2.690   8.944 -0.2198  1.8458  1.5177
   72SLPC  H12Y 6357   6.794   2.592   8.979 -0.1615  1.1443 -1.0136
   72SLPC  C313 6358   6.973   2.480   8.974  0.2313 -0.1713 -0.3849
   72SLPC  H13X 6359   6.937   2.388   9.025 -0.1196 -0.9056 -1.8953
   72SLPC  H13Y 6360   7.076   2.502   9.011 -0.2309 -0.7880  1.3489
   72SLPC  C314 6361   6.973   2.455   8.826 -0.4150 -0.0167 -0.3393
   72SLPC  H14X 6362   7.021   2.529   8.758  0.8958 -0.9707 -0.4769
   72SLPC  H14Y 6363   6.868   2.434   8.795 -0.4053  0.5091 -0.7517
   72SLPC  C315 6364   7.056   2.324   8.817 -0.6991 -0.1704 -0.4908
   72SLPC  H15X 6365   7.036   2.261   8.907 -0.9039  0.2454 -0.2436
   72SLPC  H15Y 6366   7.165   2.341   8.810 -0.7942  1.6507  1.6047
   72SLPC  C316 6367   7.035   2.231   8.689  0.5052 -0.7701 -0.1945
   72SLPC  H16X 6368   7.046   2.299   8.602  0.1332 -1.3191 -0.6753
   72SLPC  H16Y 6369   6.927   2.207   8.700  0.0843  1.5003  1.3382
   72SLPC  C317 6370   7.127   2.109   8.682 -0.0068 -0.2458 -0.4254
   72SLPC  H17X 6371   7.185   2.084   8.774 -1.7243 -0.9526  0.5301
   72SLPC  H17Y 6372   7.194   2.135   8.598  0.1558  0.8297  0.0204
   72SLPC  C318 6373   7.050   1.984   8.647 -0.0115 -0.7746 -0.1780
   72SLPC  H18X 6374   7.011   1.932   8.737 -1.6898  2.1233  0.9063
   72SLPC  H18Y 6375   7.114   1.908   8.597  1.3366  0.1790  0.0573
   72SLPC  H18Z 6376   6.958   2.018   8.594 -0.5995 -1.1042  0.6121
   73SLPC     N 6377   0.485   3.898  11.138  0.6607 -0.7759  0.2423
   73SLPC   C13 6378   0.587   4.005  11.141  0.3366  0.2008 -0.7229
   73SLPC  H13A 6379   0.552   4.070  11.219  2.2019  0.1655  0.1898
   73SLPC  H13B 6380   0.684   3.968  11.172  0.1377  0.1857 -0.1206
   73SLPC  H13C 6381   0.591   4.057  11.046 -1.7990  1.4371 -0.2002
   73SLPC   C14 6382   0.359   3.959  11.087 -0.0979 -0.6374 -0.1126
   73SLPC  H14A 6383   0.369   4.023  11.001  0.0283  0.4911  0.7233
   73SLPC  H14B 6384   0.286   3.883  11.062  0.1411 -0.6206 -0.8665
   73SLPC  H14C 6385   0.309   4.018  11.162 -0.3317 -1.0604  0.0737
   73SLPC   C15 6386   0.461   3.845  11.282 -0.3423  0.1024  0.4106
   73SLPC  H15A 6387   0.387   3.767  11.285  1.3691 -1.6939 -1.4313
   73SLPC  H15B 6388   0.550   3.794  11.316  2.3203  1.7547 -3.3475
   73SLPC  H15C 6389   0.445   3.928  11.349 -0.9281  0.2004  0.1565
   73SLPC   C12 6390   0.521   3.784  11.045 -0.7655 -0.8608  0.4182
   73SLPC  H12A 6391   0.438   3.714  11.043  0.1195 -1.9737 -2.0155
   73SLPC  H12B 6392   0.597   3.730  11.100 -0.9117 -1.4228  0.0823
   73SLPC   C11 6393   0.564   3.811  10.896  0.2687  0.3688 -0.0517
   73SLPC  H11A 6394   0.491   3.888  10.863  1.5379  1.5667 -0.1443
   73SLPC  H11B 6395   0.576   3.727  10.825  2.4529  0.9952 -0.4898
   73SLPC     P 6396   0.820   3.789  10.901 -0.0292  0.0603  0.2320
   73SLPC   O13 6397   0.938   3.879  10.887 -0.0091 -0.0628 -0.0213
   73SLPC   O14 6398   0.821   3.712  11.023  0.4064 -0.2175 -0.2201
   73SLPC   O12 6399   0.688   3.879  10.896 -0.1470  0.3716  0.5506
   73SLPC   O11 6400   0.810   3.701  10.774  0.5224  0.5483 -0.1394
   73SLPC    C1 6401   0.852   3.747  10.642 -0.7300  0.7870  0.4793
   73SLPC    HA 6402   0.873   3.856  10.639 -0.4676  0.7256  0.0752
   73SLPC    HB 6403   0.947   3.694  10.621 -1.0566 -0.6543  2.3170
   73SLPC    C2 6404   0.749   3.701  10.535  0.1109 -0.4339 -0.2718
   73SLPC    HS 6405   0.654   3.750  10.567 -0.2778  0.0135 -1.9826
   73SLPC   O21 6406   0.751   3.554  10.530 -0.4230 -0.1134  0.0348
   73SLPC   C21 6407   0.635   3.515  10.486  0.4510 -0.3863  0.1641
   73SLPC   O22 6408   0.528   3.575  10.500  0.3269 -0.2894  0.2453
   73SLPC   C22 6409   0.658   3.381  10.412  0.1687 -0.0577 -0.3186
   73SLPC   H2R 6410   0.753   3.385  10.355 -0.5848 -0.9697 -1.7084
   73SLPC   H2S 6411   0.668   3.310  10.498 -1.4194  2.6469  2.2650
   73SLPC    C3 6412   0.790   3.756  10.390  0.7681  0.2744 -0.4023
   73SLPC    HX 6413   0.883   3.702  10.361  1.5268 -0.4942  2.9998
   73SLPC    HY 6414   0.821   3.862  10.403  3.0227 -0.3350 -0.3851
   73SLPC   O31 6415   0.688   3.744  10.291  0.0616  0.2338  0.1349
   73SLPC   C31 6416   0.624   3.854  10.246 -0.2608 -0.4966 -0.8140
   73SLPC   O32 6417   0.646   3.968  10.280  0.2001  0.5482 -0.2170
   73SLPC   C32 6418   0.527   3.813  10.135 -0.0606 -0.4476 -0.0860
   73SLPC   H2X 6419   0.577   3.732  10.077  1.2761  0.0445  0.3508
   73SLPC   H2Y 6420   0.487   3.897  10.075 -3.8704 -1.1606  1.1981
   73SLPC   C23 6421   0.544   3.336  10.318 -0.0713 -0.4686 -0.5069
   73SLPC   H3R 6422   0.587   3.264  10.246 -1.2034  0.4795 -2.1828
   73SLPC   H3S 6423   0.518   3.424  10.255 -0.4448 -0.7417 -0.7331
   73SLPC   C24 6424   0.432   3.267  10.394  0.3287 -0.4695  0.0640
   73SLPC   H4R 6425   0.396   3.351  10.458  1.9955  2.9699 -3.1495
   73SLPC   H4S 6426   0.458   3.182  10.461  2.2594 -0.7927 -1.0437
   73SLPC   C25 6427   0.317   3.214  10.310  0.3773 -0.1527  0.1661
   73SLPC   H5R 6428   0.280   3.117  10.351  1.3924  0.0906  1.7645
   73SLPC   H5S 6429   0.351   3.191  10.207  1.3531  0.5571  0.3064
   73SLPC   C26 6430   0.194   3.307  10.293 -0.6028  0.7716  0.2373
   73SLPC   H6R 6431   0.224   3.407  10.254 -0.7397  0.6529 -0.1775
   73SLPC   H6S 6432   0.145   3.322  10.392 -0.2388  1.0967  0.3700
   73SLPC   C27 6433   0.091   3.233  10.209  0.1678 -0.2829  0.3992
   73SLPC   H7R 6434   0.076   3.141  10.269  2.1408  0.1050  1.5753
   73SLPC   H7S 6435   0.139   3.214  10.111  1.4249  0.2010  0.9027
   73SLPC   C28 6436  -0.035   3.324  10.172 -0.2567  0.8522 -0.2926
   73SLPC   H8R 6437  -0.013   3.413  10.109 -0.2879  0.5235 -0.7780
   73SLPC   H8S 6438  -0.083   3.367  10.262 -1.4939  0.7338 -0.8746
   73SLPC   C29 6439  -0.137   3.238  10.096 -0.2834  0.2706  0.5999
   73SLPC   H9R 6440  -0.142   3.140  10.145 -1.3662  0.5078  0.9815
   73SLPC  C210 6441  -0.208   3.265   9.986  0.0343 -0.4215  1.3961
   73SLPC  H10R 6442  -0.270   3.189   9.936  0.4801  0.9092 -1.3429
   73SLPC  C211 6443  -0.195   3.384   9.901  0.2323  0.0839  0.1248
   73SLPC  H11R 6444  -0.166   3.353   9.799  0.6016  0.6339  0.0538
   73SLPC  H11S 6445  -0.105   3.445   9.921  0.8373 -0.1773 -1.6237
   73SLPC  C212 6446  -0.317   3.473   9.898  0.1653  0.0594  0.2518
   73SLPC  H12R 6447  -0.329   3.537   9.986  0.4568 -2.1760  1.9913
   73SLPC  C213 6448  -0.400   3.497   9.796 -0.3529  0.2056 -0.9861
   73SLPC  H13R 6449  -0.485   3.565   9.807  0.0059  0.4864  0.1355
   73SLPC  C214 6450  -0.384   3.433   9.662 -0.4566  0.0218  1.0097
   73SLPC  H14R 6451  -0.374   3.324   9.681  0.1389  0.2242  1.8880
   73SLPC  H14S 6452  -0.307   3.483   9.600 -0.8078 -0.8155 -0.1351
   73SLPC  C215 6453  -0.512   3.444   9.585  0.1934  0.0894  0.0534
   73SLPC  H15R 6454  -0.547   3.547   9.563  2.9611  0.6226 -2.4137
   73SLPC  H15S 6455  -0.596   3.388   9.631 -0.2575 -0.2593 -1.1463
   73SLPC  C216 6456  -0.498   3.394   9.436  0.1433  0.0364 -0.2415
   73SLPC  H16R 6457  -0.425   3.467   9.394 -1.1529  2.0569  0.8625
   73SLPC  H16S 6458  -0.592   3.411   9.380 -0.2924 -0.7569  0.2403
   73SLPC  C217 6459  -0.453   3.248   9.431 -0.1080  0.6352  0.2823
   73SLPC  H17R 6460  -0.355   3.243   9.483 -1.4843  0.0281  2.9714
   73SLPC  H17S 6461  -0.451   3.215   9.325 -2.0950  0.6956  0.2000
   73SLPC  C218 6462  -0.556   3.151   9.503 -0.5277  0.5272  0.0777
   73SLPC  H18R 6463  -0.549   3.167   9.612  0.5456  0.6972 -0.0068
   73SLPC  H18S 6464  -0.545   3.047   9.466 -1.1697  0.5222 -0.1243
   73SLPC  H18T 6465  -0.655   3.188   9.467 -0.0613  1.1194 -0.6407
   73SLPC   C33 6466   0.395   3.750  10.197  0.1182 -0.2213 -0.6920
   73SLPC   H3X 6467   0.349   3.838  10.248 -0.2891 -0.8693  0.0848
   73SLPC   H3Y 6468   0.428   3.676  10.272 -1.1837 -1.7124 -1.5307
   73SLPC   C34 6469   0.293   3.699  10.096 -0.5727  0.8367  0.7619
   73SLPC   H4X 6470   0.279   3.778  10.019  0.1003 -0.6557 -0.9638
   73SLPC   H4Y 6471   0.199   3.680  10.153 -0.5022  2.6440  1.5497
   73SLPC   C35 6472   0.346   3.568  10.024 -0.1254 -0.6280  0.2048
   73SLPC   H5X 6473   0.373   3.504  10.110 -0.4148  1.3822  1.8751
   73SLPC   H5Y 6474   0.437   3.597   9.968 -1.4426 -0.6865 -2.0895
   73SLPC   C36 6475   0.236   3.495   9.952 -0.5157 -0.0399  0.0094
   73SLPC   H6X 6476   0.197   3.556   9.868  1.5993  2.5203  0.7281
   73SLPC   H6Y 6477   0.157   3.456  10.019 -1.0710  2.5084  0.9612
   73SLPC   C37 6478   0.304   3.373   9.893 -0.3476  0.8518  0.1748
   73SLPC   H7X 6479   0.365   3.315   9.965  0.2972  0.4837 -0.6510
   73SLPC   H7Y 6480   0.386   3.405   9.825  0.9280 -0.9572  0.7917
   73SLPC   C38 6481   0.204   3.265   9.820 -0.7588 -0.0190  0.2572
   73SLPC   H8X 6482   0.126   3.235   9.894 -1.4231  1.2785  0.1084
   73SLPC   H8Y 6483   0.280   3.186   9.803  1.7656  2.3591 -0.0804
   73SLPC   C39 6484   0.137   3.320   9.689  0.5625  0.2534  0.5600
   73SLPC   H9X 6485   0.063   3.395   9.723 -0.4732 -1.0205  1.2232
   73SLPC   H9Y 6486   0.078   3.242   9.635 -1.2606  1.8515  0.1357
   73SLPC  C310 6487   0.231   3.384   9.581 -0.3236  0.1066 -0.2442
   73SLPC  H10X 6488   0.337   3.349   9.578 -0.3459 -0.2950 -5.3865
   73SLPC  H10Y 6489   0.231   3.495   9.588 -2.8738  0.1361  0.0395
   73SLPC  C311 6490   0.176   3.354   9.446 -0.1092 -0.0576  0.5743
   73SLPC  H11X 6491   0.078   3.406   9.434  0.2138  0.4439  0.0030
   73SLPC  H11Y 6492   0.152   3.249   9.422 -0.8360  0.3135 -0.3953
   73SLPC  C312 6493   0.263   3.416   9.329  0.0793 -0.1492  0.3682
   73SLPC  H12X 6494   0.353   3.351   9.323 -0.0382 -0.2618 -0.2523
   73SLPC  H12Y 6495   0.289   3.522   9.347  0.4941  0.5962 -3.7231
   73SLPC  C313 6496   0.179   3.419   9.196  0.2463 -0.6658  0.3900
   73SLPC  H13X 6497   0.085   3.477   9.208  0.6950  0.1496  0.0556
   73SLPC  H13Y 6498   0.150   3.320   9.156  0.5883 -0.1397 -1.2423
   73SLPC  C314 6499   0.254   3.490   9.085  0.2912  0.5181  0.0206
   73SLPC  H14X 6500   0.349   3.433   9.076 -0.4125 -0.4544 -1.6148
   73SLPC  H14Y 6501   0.263   3.599   9.102  0.1392  0.5760 -0.2791
   73SLPC  C315 6502   0.175   3.484   8.952  0.4170 -0.5004 -0.8249
   73SLPC  H15X 6503   0.080   3.541   8.958  0.4322 -0.2014 -2.7938
   73SLPC  H15Y 6504   0.141   3.382   8.924 -1.0852 -0.1521 -0.3360
   73SLPC  C316 6505   0.243   3.551   8.830 -0.1668  0.0238 -0.0638
   73SLPC  H16X 6506   0.329   3.481   8.821 -1.4690 -1.3935 -2.5409
   73SLPC  H16Y 6507   0.266   3.658   8.853  0.3620  0.0549 -0.7183
   73SLPC  C317 6508   0.163   3.552   8.700 -0.1420  0.6674  0.3571
   73SLPC  H17X 6509   0.184   3.638   8.634 -0.5014 -1.0075 -2.0852
   73SLPC  H17Y 6510   0.057   3.581   8.717 -1.0104 -0.7610 -2.0915
   73SLPC  C318 6511   0.170   3.434   8.603  0.0905 -0.4191  0.1967
   73SLPC  H18X 6512   0.265   3.418   8.548  0.5292  2.2238  0.0820
   73SLPC  H18Y 6513   0.090   3.453   8.527  0.7079  1.1981 -0.0919
   73SLPC  H18Z 6514   0.134   3.338   8.648 -0.2296 -0.7565 -0.7501
   74SLPC     N 6515   1.027   6.258  10.692 -0.1574  0.5525 -0.3126
   74SLPC   C13 6516   1.000   6.204  10.829 -0.5371  0.1532  0.0231
   74SLPC  H13A 6517   1.016   6.277  10.907 -5.3129  0.5745  0.9063
   74SLPC  H13B 6518   0.896   6.178  10.842 -0.5840  0.4407  0.2426
   74SLPC  H13C 6519   1.050   6.109  10.841 -2.9302 -1.6280 -2.7871
   74SLPC   C14 6520   0.997   6.168  10.576  0.0474  0.1720  0.1902
   74SLPC  H14A 6521   1.066   6.085  10.577 -0.8631 -0.6113 -0.2887
   74SLPC  H14B 6522   0.904   6.114  10.584  2.5177 -4.6237  0.2327
   74SLPC  H14C 6523   1.002   6.223  10.483  1.0844 -0.3218 -0.0642
   74SLPC   C15 6524   1.177   6.283  10.676 -0.5489 -0.1346  0.4785
   74SLPC  H15A 6525   1.204   6.331  10.769  1.2119  2.4825 -1.2514
   74SLPC  H15B 6526   1.223   6.186  10.685  0.8669  0.5664  1.0149
   74SLPC  H15C 6527   1.189   6.330  10.580  0.8019  0.6705  1.0141
   74SLPC   C12 6528   0.956   6.396  10.684 -0.1617  0.2729 -0.2272
   74SLPC  H12A 6529   0.975   6.435  10.782 -0.8310 -1.5529  0.6747
   74SLPC  H12B 6530   0.850   6.376  10.677  0.0415 -0.5956 -1.0575
   74SLPC   C11 6531   1.001   6.496  10.577  0.4100 -0.4588 -0.9321
   74SLPC  H11A 6532   0.913   6.558  10.550 -0.6458 -0.6560  1.7385
   74SLPC  H11B 6533   1.047   6.451  10.487  3.4182 -1.8755  1.1117
   74SLPC     P 6534   1.046   6.706  10.737 -0.4247  0.3154  0.4017
   74SLPC   O13 6535   0.953   6.644  10.834 -0.5999 -0.2020  0.4792
   74SLPC   O14 6536   1.163   6.776  10.791 -0.5782 -0.3631  0.1837
   74SLPC   O12 6537   1.100   6.587  10.642  0.4880  0.2449 -0.2888
   74SLPC   O11 6538   0.962   6.798  10.636 -0.6784  0.1051 -0.2013
   74SLPC    C1 6539   0.995   6.935  10.639 -0.1805  0.3397  0.1518
   74SLPC    HA 6540   0.896   6.986  10.636  0.1092  0.8846 -0.5807
   74SLPC    HB 6541   1.044   6.972  10.732 -0.9357  1.9312 -0.0447
   74SLPC    C2 6542   1.078   6.983  10.512  0.5271  0.5656  0.1009
   74SLPC    HS 6543   1.047   7.085  10.481  1.1715  0.5658 -0.5638
   74SLPC   O21 6544   1.058   6.897  10.399  0.2433 -0.1226 -0.3142
   74SLPC   C21 6545   0.957   6.918  10.322 -0.4447 -0.1791 -0.7139
   74SLPC   O22 6546   0.879   7.014  10.330 -0.3894  0.2801 -0.5518
   74SLPC   C22 6547   0.955   6.817  10.205  0.4417 -0.3548 -0.3100
   74SLPC   H2R 6548   0.849   6.786  10.211  0.7469 -1.2185  0.9318
   74SLPC   H2S 6549   0.967   6.873  10.110 -0.7959  1.0536  0.3160
   74SLPC    C3 6550   1.230   6.999  10.551 -0.1707  0.0559  0.3465
   74SLPC    HX 6551   1.252   6.898  10.593  1.3333 -0.8939 -2.4092
   74SLPC    HY 6552   1.237   7.078  10.628  0.9656 -0.5002  0.8397
   74SLPC   O31 6553   1.323   7.022  10.435  0.3400  0.4733  0.1336
   74SLPC   C31 6554   1.406   6.929  10.412  1.0588  0.1712  0.6211
   74SLPC   O32 6555   1.424   6.829  10.483  0.2012  0.1595 -0.2311
   74SLPC   C32 6556   1.472   6.946  10.275 -0.4080 -0.2583  0.3482
   74SLPC   H2X 6557   1.528   7.042  10.285 -0.4794 -0.1797  0.0076
   74SLPC   H2Y 6558   1.399   6.948  10.192  0.8085 -2.1900 -0.8448
   74SLPC   C23 6559   1.057   6.696  10.213  0.2868 -0.5142  0.2049
   74SLPC   H3R 6560   1.037   6.641  10.308 -3.3818  0.7759  0.3315
   74SLPC   H3S 6561   1.160   6.735  10.215  0.0424  0.1531 -0.0498
   74SLPC   C24 6562   1.040   6.594  10.094 -0.9226 -0.2804  0.6278
   74SLPC   H4R 6563   0.944   6.543  10.118  0.3721 -1.6112  3.3101
   74SLPC   H4S 6564   1.113   6.511  10.099  0.3999  0.4045 -3.2957
   74SLPC   C25 6565   1.038   6.665   9.963 -0.1681 -0.0422  0.5167
   74SLPC   H5R 6566   1.129   6.728   9.961 -0.4649  0.4177  1.0660
   74SLPC   H5S 6567   0.958   6.740   9.944 -1.9966 -1.6768  1.2958
   74SLPC   C26 6568   1.021   6.563   9.849 -0.6398  1.1677  0.0507
   74SLPC   H6R 6569   0.916   6.527   9.846  0.0077 -0.8556  0.1906
   74SLPC   H6S 6570   1.088   6.475   9.857 -0.8010  1.2254  2.5793
   74SLPC   C27 6571   1.053   6.636   9.722 -0.4646 -0.9507  0.0132
   74SLPC   H7R 6572   1.154   6.682   9.725 -0.8108  0.7650 -4.7549
   74SLPC   H7S 6573   0.985   6.720   9.697 -0.8381 -0.5665  2.1938
   74SLPC   C28 6574   1.070   6.547   9.596 -0.3277  0.3562  0.4038
   74SLPC   H8R 6575   1.154   6.478   9.619  0.4205  0.3539 -2.0644
   74SLPC   H8S 6576   1.119   6.618   9.526 -0.8518  0.9804  0.6689
   74SLPC   C29 6577   0.943   6.482   9.554  0.1709 -0.2522  0.4043
   74SLPC   H9R 6578   0.886   6.444   9.640  1.1818 -0.8880  0.8006
   74SLPC  C210 6579   0.871   6.485   9.438  0.2076  0.2715  0.0596
   74SLPC  H10R 6580   0.772   6.437   9.443 -0.0436  0.8991  1.6285
   74SLPC  C211 6581   0.921   6.548   9.309  0.5016  0.1227  0.2270
   74SLPC  H11R 6582   0.944   6.458   9.249 -1.6277 -2.0720  2.4749
   74SLPC  H11S 6583   1.013   6.609   9.324 -0.0545  1.0379  0.0476
   74SLPC  C212 6584   0.812   6.636   9.256 -0.1574  0.5544  0.4579
   74SLPC  H12R 6585   0.805   6.727   9.318  1.0076 -0.2130  1.7818
   74SLPC  C213 6586   0.740   6.626   9.144  0.3941 -0.7317  1.0105
   74SLPC  H13R 6587   0.655   6.693   9.130 -0.9119 -2.6910 -1.2037
   74SLPC  C214 6588   0.753   6.513   9.043  0.0897  0.4484 -0.7936
   74SLPC  H14R 6589   0.665   6.516   8.974 -0.0712  0.2260 -0.5997
   74SLPC  H14S 6590   0.770   6.413   9.088 -1.7151  0.6448  0.4703
   74SLPC  C215 6591   0.868   6.546   8.935  0.0882 -0.3067  0.0464
   74SLPC  H15R 6592   0.885   6.455   8.874 -0.6223 -1.4375  1.4685
   74SLPC  H15S 6593   0.959   6.558   8.997  0.7939 -0.8789 -0.8447
   74SLPC  C216 6594   0.848   6.672   8.845  0.1205  0.3972  0.2819
   74SLPC  H16R 6595   0.935   6.689   8.778 -1.9390 -0.6050 -2.8640
   74SLPC  H16S 6596   0.833   6.758   8.914 -0.5833  0.4316  0.0957
   74SLPC  C217 6597   0.722   6.662   8.753  0.4235 -0.0628  0.2619
   74SLPC  H17R 6598   0.691   6.761   8.715 -0.8903  0.2082  1.9288
   74SLPC  H17S 6599   0.636   6.632   8.816 -0.7867 -2.0323 -2.1464
   74SLPC  C218 6600   0.733   6.559   8.637  0.3791 -0.0726 -0.5066
   74SLPC  H18R 6601   0.730   6.461   8.688 -2.1087 -0.5702 -1.4220
   74SLPC  H18S 6602   0.830   6.573   8.585 -0.6743 -1.1960 -2.9798
   74SLPC  H18T 6603   0.655   6.561   8.558  0.6394  0.7667 -0.7558
   74SLPC   C33 6604   1.583   6.835  10.235  0.8491 -0.3218 -0.4074
   74SLPC   H3X 6605   1.639   6.816  10.328 -0.3580 -2.0027  0.0254
   74SLPC   H3Y 6606   1.661   6.877  10.167  0.8987 -0.4661 -0.4393
   74SLPC   C34 6607   1.513   6.713  10.177 -0.6975  0.4598  0.6800
   74SLPC   H4X 6608   1.406   6.704  10.207 -0.9883 -0.1054 -0.4454
   74SLPC   H4Y 6609   1.568   6.619  10.196 -3.5340 -1.2384  1.1554
   74SLPC   C35 6610   1.490   6.719  10.023  0.3815 -0.0351 -0.2881
   74SLPC   H5X 6611   1.593   6.740   9.986  1.2712 -2.4741  0.5346
   74SLPC   H5Y 6612   1.429   6.810  10.005 -0.2388 -0.1778  1.0242
   74SLPC   C36 6613   1.445   6.586   9.961  0.5502 -0.3326  0.3001
   74SLPC   H6X 6614   1.339   6.573   9.992  0.7637 -1.4984  0.6145
   74SLPC   H6Y 6615   1.508   6.501   9.997  2.1111  1.2743  1.5260
   74SLPC   C37 6616   1.447   6.585   9.808 -0.2700 -0.5312 -0.4655
   74SLPC   H7X 6617   1.544   6.630   9.777 -0.5073 -0.1294 -0.6234
   74SLPC   H7Y 6618   1.379   6.661   9.765 -0.7040 -0.1804  0.7816
   74SLPC   C38 6619   1.432   6.444   9.741 -0.1075  0.2258 -0.2258
   74SLPC   H8X 6620   1.326   6.413   9.745 -0.7113  2.2843  1.0482
   74SLPC   H8Y 6621   1.483   6.372   9.809 -0.8417  1.2269  1.4287
   74SLPC   C39 6622   1.503   6.434   9.603  0.8469 -0.2749 -0.2612
   74SLPC   H9X 6623   1.480   6.334   9.560 -2.0117 -0.1173  0.6576
   74SLPC   H9Y 6624   1.612   6.451   9.612  0.7353  0.1344  0.4041
   74SLPC  C310 6625   1.446   6.531   9.502  0.2304  0.0140 -0.7360
   74SLPC  H10X 6626   1.476   6.632   9.538  2.6429 -0.5067 -1.0969
   74SLPC  H10Y 6627   1.335   6.524   9.497  0.2784 -0.4346 -1.2113
   74SLPC  C311 6628   1.510   6.513   9.364  0.0264  0.2965 -0.0896
   74SLPC  H11X 6629   1.620   6.499   9.364  0.4028  2.7060  0.8951
   74SLPC  H11Y 6630   1.487   6.607   9.309 -1.2749 -0.4808 -0.9333
   74SLPC  C312 6631   1.452   6.412   9.268  1.0235  0.7549 -0.2221
   74SLPC  H12X 6632   1.462   6.317   9.326 -1.8006  0.7343  0.3709
   74SLPC  H12Y 6633   1.520   6.415   9.180  3.3848  1.8476  1.5198
   74SLPC  C313 6634   1.313   6.437   9.219 -0.0333  0.4166 -0.0214
   74SLPC  H13X 6635   1.328   6.514   9.140 -1.8032 -0.6456 -1.4943
   74SLPC  H13Y 6636   1.235   6.462   9.295  0.2999  2.0708 -0.1909
   74SLPC  C314 6637   1.263   6.312   9.155  0.5181  0.7836 -0.5158
   74SLPC  H14X 6638   1.153   6.328   9.147  0.7533  2.1825 -1.4020
   74SLPC  H14Y 6639   1.284   6.231   9.227  0.3117  0.6683 -0.5838
   74SLPC  C315 6640   1.320   6.267   9.019  0.0707  0.0109  0.5264
   74SLPC  H15X 6641   1.289   6.161   9.008  0.0400  0.1416 -0.7992
   74SLPC  H15Y 6642   1.430   6.271   9.027  0.1268  2.4693 -0.5959
   74SLPC  C316 6643   1.287   6.364   8.909  0.1956 -0.0692 -0.2259
   74SLPC  H16X 6644   1.326   6.465   8.933  0.9368 -0.0123 -1.5085
   74SLPC  H16Y 6645   1.178   6.377   8.923  0.6690  2.8779  1.4756
   74SLPC  C317 6646   1.305   6.322   8.761  0.4353 -0.0577 -0.0419
   74SLPC  H17X 6647   1.245   6.231   8.744 -0.2376  0.5660 -1.1201
   74SLPC  H17Y 6648   1.412   6.296   8.743  0.0872 -0.2187 -2.0848
   74SLPC  C318 6649   1.263   6.432   8.656 -0.3430 -0.2635 -0.4151
   74SLPC  H18X 6650   1.169   6.487   8.677  1.6390  3.9070 -1.4428
   74SLPC  H18Y 6651   1.263   6.386   8.555  0.1637 -2.2783  0.4341
   74SLPC  H18Z 6652   1.346   6.505   8.654 -1.0797  0.6392  0.6958
   75SLPC     N 6653   0.533   2.108   6.279 -0.5797 -0.2969  0.4182
   75SLPC   C13 6654   0.485   2.138   6.136  0.4095  0.0145 -0.3696
   75SLPC  H13A 6655   0.563   2.173   6.070 -0.7420 -0.4850 -2.0516
   75SLPC  H13B 6656   0.449   2.043   6.102  0.7915 -0.1668 -0.2749
   75SLPC  H13C 6657   0.398   2.201   6.127  0.2371 -0.0706  0.5763
   75SLPC   C14 6658   0.580   2.243   6.329 -0.5858 -0.1071 -0.2107
   75SLPC  H14A 6659   0.643   2.292   6.257  0.3980 -1.9092 -0.6436
   75SLPC  H14B 6660   0.500   2.315   6.345 -1.8955 -1.0355 -2.1217
   75SLPC  H14C 6661   0.641   2.221   6.415  1.2122 -0.0543 -1.4404
   75SLPC   C15 6662   0.654   2.020   6.263  0.1245 -0.2654  0.3962
   75SLPC  H15A 6663   0.711   2.019   6.355 -0.4382 -1.3606  0.7473
   75SLPC  H15B 6664   0.625   1.920   6.236 -0.5555 -0.2982  1.1866
   75SLPC  H15C 6665   0.723   2.051   6.186  1.5465 -1.1591  1.2717
   75SLPC   C12 6666   0.423   2.046   6.367 -0.3105 -0.9722 -0.1939
   75SLPC  H12A 6667   0.338   2.109   6.387  0.2845 -0.1064 -0.3519
   75SLPC  H12B 6668   0.471   2.039   6.463 -0.1152  1.6888 -0.0249
   75SLPC   C11 6669   0.364   1.910   6.332 -0.0399  0.3889  0.9125
   75SLPC  H11A 6670   0.332   1.909   6.225 -1.5669 -3.4488  1.2476
   75SLPC  H11B 6671   0.273   1.893   6.393 -1.2433  0.8604 -0.6901
   75SLPC     P 6672   0.488   1.748   6.478 -0.2653  0.0059 -0.0225
   75SLPC   O13 6673   0.386   1.645   6.515  0.1558 -0.2602  0.4092
   75SLPC   O14 6674   0.627   1.699   6.488  0.0232  0.0610 -0.2843
   75SLPC   O12 6675   0.457   1.802   6.339  0.3771  0.1032 -0.2052
   75SLPC   O11 6676   0.478   1.867   6.585  0.7560 -0.3212  0.1411
   75SLPC    C1 6677   0.590   1.943   6.634 -0.3372  0.8435  0.2365
   75SLPC    HA 6678   0.663   1.965   6.553 -0.0533 -0.3614  0.1356
   75SLPC    HB 6679   0.546   2.035   6.677 -3.9821 -1.4746  1.9868
   75SLPC    C2 6680   0.664   1.863   6.754  0.4391  0.2394 -0.1663
   75SLPC    HS 6681   0.735   1.793   6.705  0.2260 -1.7522  2.1909
   75SLPC   O21 6682   0.567   1.807   6.837  0.3884  0.1413  0.1682
   75SLPC   C21 6683   0.556   1.677   6.848  0.2675  0.7212  0.1332
   75SLPC   O22 6684   0.627   1.599   6.788 -0.3071  0.4875 -0.5524
   75SLPC   C22 6685   0.435   1.636   6.939  0.2416 -0.2561  0.4456
   75SLPC   H2R 6686   0.445   1.690   7.036 -0.1999  0.8422 -0.1081
   75SLPC   H2S 6687   0.343   1.685   6.902  1.0097 -0.2503 -1.5958
   75SLPC    C3 6688   0.757   1.948   6.842  0.1156  0.1354 -0.0659
   75SLPC    HX 6689   0.839   1.967   6.769  0.6395 -0.9116  0.2400
   75SLPC    HY 6690   0.792   1.886   6.927 -0.6281 -0.5042 -0.2165
   75SLPC   O31 6691   0.696   2.065   6.896 -0.1271 -0.4041  0.1616
   75SLPC   C31 6692   0.780   2.163   6.922  0.3435 -0.5093 -0.1838
   75SLPC   O32 6693   0.895   2.167   6.886  0.4707  0.2646  0.2322
   75SLPC   C32 6694   0.712   2.271   7.017  0.2096  0.4217 -0.0577
   75SLPC   H2X 6695   0.615   2.230   7.052 -0.3424  0.1471 -1.8230
   75SLPC   H2Y 6696   0.699   2.371   6.970  0.8340  1.1148  1.2004
   75SLPC   C23 6697   0.414   1.487   6.956 -0.4178 -0.0656 -0.2758
   75SLPC   H3R 6698   0.501   1.447   7.013 -0.7948 -1.0455 -0.3558
   75SLPC   H3S 6699   0.398   1.437   6.858 -0.7961 -2.0324  0.7250
   75SLPC   C24 6700   0.291   1.460   7.043  0.5855  0.3198  0.1240
   75SLPC   H4R 6701   0.267   1.351   7.046 -0.2529  0.5237  1.3647
   75SLPC   H4S 6702   0.208   1.519   6.997  1.8048  1.2612 -0.9417
   75SLPC   C25 6703   0.299   1.515   7.188 -0.3486 -0.0892 -0.5176
   75SLPC   H5R 6704   0.199   1.498   7.232 -0.3118  0.3625 -0.2592
   75SLPC   H5S 6705   0.315   1.624   7.180  1.3504 -0.2985 -0.3368
   75SLPC   C26 6706   0.415   1.474   7.294  0.8006  0.1848  0.3394
   75SLPC   H6R 6707   0.518   1.509   7.269  1.2162 -1.6103 -0.6330
   75SLPC   H6S 6708   0.412   1.363   7.290  0.3929  0.2058 -3.1710
   75SLPC   C27 6709   0.378   1.523   7.435 -0.0224 -0.1488 -0.3926
   75SLPC   H7R 6710   0.303   1.447   7.465 -1.5625  0.7770 -1.7019
   75SLPC   H7S 6711   0.334   1.625   7.433 -1.5232 -0.7415  0.9227
   75SLPC   C28 6712   0.488   1.508   7.539 -0.4484  0.0013 -0.3487
   75SLPC   H8R 6713   0.545   1.415   7.520  1.6890  0.9258  1.1316
   75SLPC   H8S 6714   0.445   1.509   7.641 -0.7758 -0.6368 -0.4775
   75SLPC   C29 6715   0.593   1.616   7.528  0.2511 -0.3209  0.2199
   75SLPC   H9R 6716   0.643   1.631   7.431  0.5027 -0.9429  0.2459
   75SLPC  C210 6717   0.629   1.702   7.618  0.2342  0.0305  0.5984
   75SLPC  H10R 6718   0.711   1.773   7.596 -1.1103  1.8730  1.2930
   75SLPC  C211 6719   0.579   1.695   7.755 -0.5034 -0.0853 -0.2096
   75SLPC  H11R 6720   0.468   1.700   7.753 -0.6642 -2.3672  0.2294
   75SLPC  H11S 6721   0.601   1.786   7.814 -1.6053  0.2243 -0.2617
   75SLPC  C212 6722   0.634   1.584   7.837 -0.5162 -0.0464 -0.2523
   75SLPC  H12R 6723   0.718   1.536   7.785  0.0118  1.1788 -0.5699
   75SLPC  C213 6724   0.618   1.564   7.975 -0.3993 -0.2804  0.5102
   75SLPC  H13R 6725   0.671   1.481   8.024 -2.0970 -0.5898  1.9074
   75SLPC  C214 6726   0.529   1.644   8.072 -0.0497 -0.4309  0.1165
   75SLPC  H14R 6727   0.428   1.662   8.031 -0.0496 -1.8956 -0.5942
   75SLPC  H14S 6728   0.572   1.744   8.098  2.9104 -1.1546 -1.4764
   75SLPC  C215 6729   0.522   1.563   8.200 -0.2617 -0.5061 -0.1963
   75SLPC  H15R 6730   0.614   1.506   8.224 -1.8328 -2.1572  2.5461
   75SLPC  H15S 6731   0.442   1.486   8.187  1.5607 -2.1395 -2.4671
   75SLPC  C216 6732   0.485   1.650   8.319 -0.0074  0.1222 -0.5288
   75SLPC  H16R 6733   0.400   1.715   8.291 -0.5925 -0.0481  0.7879
   75SLPC  H16S 6734   0.563   1.715   8.364 -2.4484  1.5704  1.9107
   75SLPC  C217 6735   0.417   1.568   8.433 -0.8031  0.3142 -0.0833
   75SLPC  H17R 6736   0.496   1.507   8.483 -1.0763  0.0747  0.0546
   75SLPC  H17S 6737   0.345   1.495   8.390  0.4643 -1.0022 -0.0705
   75SLPC  C218 6738   0.358   1.653   8.546  0.1910 -0.6940  1.0115
   75SLPC  H18R 6739   0.270   1.709   8.508  1.0607 -0.7745 -1.3263
   75SLPC  H18S 6740   0.435   1.725   8.583 -0.0086 -0.3304  0.7281
   75SLPC  H18T 6741   0.333   1.589   8.633  1.2214 -0.6214  1.3750
   75SLPC   C33 6742   0.790   2.294   7.150 -0.3617 -0.1353  0.2232
   75SLPC   H3X 6743   0.809   2.200   7.206  0.0580 -0.7219 -0.8717
   75SLPC   H3Y 6744   0.889   2.338   7.124  0.1020  0.1298  2.2685
   75SLPC   C34 6745   0.724   2.405   7.237 -0.0624 -0.0425  0.3610
   75SLPC   H4X 6746   0.622   2.364   7.253 -0.8283  1.6441  0.0320
   75SLPC   H4Y 6747   0.715   2.502   7.183 -0.6650  1.1868  2.5569
   75SLPC   C35 6748   0.781   2.423   7.371 -0.5203  0.1952 -1.3560
   75SLPC   H5X 6749   0.879   2.470   7.348 -0.2857  1.0874  1.1646
   75SLPC   H5Y 6750   0.812   2.324   7.412  1.2760  1.5957  0.9876
   75SLPC   C36 6751   0.692   2.504   7.468 -0.2477  0.0029 -0.1440
   75SLPC   H6X 6752   0.731   2.479   7.569 -0.8670 -1.5402 -0.2573
   75SLPC   H6Y 6753   0.584   2.476   7.464 -0.3758  0.5665 -0.8057
   75SLPC   C37 6754   0.690   2.657   7.440  0.3066  0.0437  0.8318
   75SLPC   H7X 6755   0.626   2.671   7.351  2.9467 -1.2240 -1.4371
   75SLPC   H7Y 6756   0.793   2.694   7.419  0.6453  0.1525  2.4974
   75SLPC   C38 6757   0.628   2.729   7.560  0.9902 -0.0635  0.0616
   75SLPC   H8X 6758   0.657   2.683   7.656 -0.4878 -2.5875 -0.6052
   75SLPC   H8Y 6759   0.517   2.717   7.558  1.1695 -2.3398  1.0315
   75SLPC   C39 6760   0.671   2.880   7.570  0.0276 -0.0454  0.1373
   75SLPC   H9X 6761   0.677   2.923   7.468 -0.7656  0.3176  0.2319
   75SLPC   H9Y 6762   0.775   2.879   7.610  0.0672 -0.7720  0.0125
   75SLPC  C310 6763   0.582   2.966   7.656 -0.1190  0.4426 -0.1686
   75SLPC  H10X 6764   0.545   2.909   7.744  1.5986 -0.3881  0.0563
   75SLPC  H10Y 6765   0.487   2.987   7.602 -0.7013  0.6600  0.9074
   75SLPC  C311 6766   0.640   3.102   7.697  0.5030 -0.4571 -0.2369
   75SLPC  H11X 6767   0.657   3.153   7.600 -1.0604  1.1904  0.2972
   75SLPC  H11Y 6768   0.740   3.073   7.734  0.8284  0.1598 -0.6178
   75SLPC  C312 6769   0.554   3.183   7.794  0.4359  0.5935  0.1972
   75SLPC  H12X 6770   0.474   3.236   7.739  2.3062  4.0749  0.5064
   75SLPC  H12Y 6771   0.611   3.273   7.828  0.6648  1.0880 -1.4098
   75SLPC  C313 6772   0.477   3.101   7.899 -0.2014 -0.1830  0.0410
   75SLPC  H13X 6773   0.548   3.061   7.974  0.4744  0.1721 -0.3980
   75SLPC  H13Y 6774   0.418   3.019   7.853 -1.1076 -0.9330  2.4145
   75SLPC  C314 6775   0.377   3.190   7.980  0.1053 -0.0872 -0.4581
   75SLPC  H14X 6776   0.302   3.231   7.909  1.1739  0.0647 -1.5239
   75SLPC  H14Y 6777   0.435   3.279   8.012  0.0165 -0.1332 -0.1678
   75SLPC  C315 6778   0.313   3.108   8.087 -0.7522 -0.2378 -0.5071
   75SLPC  H15X 6779   0.393   3.080   8.158 -0.3997  0.2997 -0.6893
   75SLPC  H15Y 6780   0.283   3.010   8.043 -1.2555 -0.2755 -0.0860
   75SLPC  C316 6781   0.207   3.189   8.162 -0.1483  0.1683  0.0068
   75SLPC  H16X 6782   0.107   3.175   8.118 -2.4810  1.1637  4.4236
   75SLPC  H16Y 6783   0.236   3.296   8.164  1.2825 -0.1803  2.2322
   75SLPC  C317 6784   0.180   3.169   8.311  0.3534  0.1733  0.2474
   75SLPC  H17X 6785   0.109   3.250   8.340 -2.0111 -1.4222 -0.7247
   75SLPC  H17Y 6786   0.276   3.181   8.365  1.0280 -0.5986 -0.7339
   75SLPC  C318 6787   0.102   3.041   8.339  0.2037 -0.9290 -0.1843
   75SLPC  H18X 6788   0.017   3.038   8.267 -0.3818  2.5190  0.2372
   75SLPC  H18Y 6789   0.059   3.045   8.441  0.9486  0.0217  0.1065
   75SLPC  H18Z 6790   0.174   2.957   8.330  2.3459  0.7750  0.2645
   76SLPC     N 6791   1.832   5.580   6.054  0.3495  0.5521  0.4963
   76SLPC   C13 6792   1.976   5.596   6.061 -0.0253 -0.7939  0.3389
   76SLPC  H13A 6793   2.026   5.501   6.047 -0.4427 -0.8968 -0.4664
   76SLPC  H13B 6794   2.018   5.664   5.989  0.9036  0.2873  1.8180
   76SLPC  H13C 6795   2.007   5.642   6.154 -0.1649  0.7082 -0.3399
   76SLPC   C14 6796   1.790   5.543   6.188 -0.4657  0.1023  0.0121
   76SLPC  H14A 6797   1.854   5.466   6.230 -0.9462 -0.3350 -0.0413
   76SLPC  H14B 6798   1.801   5.631   6.249  2.1143 -1.5895  2.2228
   76SLPC  H14C 6799   1.687   5.513   6.181 -0.7096  0.4344  1.7698
   76SLPC   C15 6800   1.785   5.475   5.959 -0.2924 -0.2111 -0.2642
   76SLPC  H15A 6801   1.678   5.476   5.969 -0.2533  3.1367  1.2791
   76SLPC  H15B 6802   1.811   5.497   5.857 -1.1228  0.2194 -0.3902
   76SLPC  H15C 6803   1.820   5.374   5.977  0.5671  0.3937  1.8480
   76SLPC   C12 6804   1.762   5.712   6.016  0.2677 -0.3522 -0.2337
   76SLPC  H12A 6805   1.655   5.699   6.020 -0.0770  2.1710  0.7082
   76SLPC  H12B 6806   1.784   5.746   5.916 -1.2215 -0.2686 -0.5574
   76SLPC   C11 6807   1.783   5.835   6.113  0.6577  0.1343  0.3309
   76SLPC  H11A 6808   1.735   5.924   6.066 -1.8832 -1.7061 -0.7851
   76SLPC  H11B 6809   1.890   5.865   6.111  0.5236  0.7384  1.5801
   76SLPC     P 6810   1.594   5.863   6.292  0.0092 -0.2228 -0.2999
   76SLPC   O13 6811   1.549   5.984   6.215  0.6210  0.1949  0.6489
   76SLPC   O14 6812   1.516   5.738   6.285 -0.2740  0.0541 -0.5217
   76SLPC   O12 6813   1.741   5.823   6.249  0.1438 -0.4989  0.0803
   76SLPC   O11 6814   1.597   5.907   6.441 -0.0666 -0.0462 -1.0841
   76SLPC    C1 6815   1.682   5.842   6.530 -0.6938 -0.5804 -0.2346
   76SLPC    HA 6816   1.707   5.742   6.488 -0.5705 -0.3695 -0.6726
   76SLPC    HB 6817   1.771   5.909   6.539 -3.0542  2.8078 -0.0808
   76SLPC    C2 6818   1.626   5.809   6.671 -0.4061 -0.3377 -0.4566
   76SLPC    HS 6819   1.533   5.753   6.651 -0.7293  0.6463 -1.8802
   76SLPC   O21 6820   1.603   5.937   6.731 -0.7173 -0.2949  0.2768
   76SLPC   C21 6821   1.510   5.955   6.813 -0.2713 -0.2972  0.7227
   76SLPC   O22 6822   1.425   5.869   6.844  0.2429 -0.3404 -0.3003
   76SLPC   C22 6823   1.511   6.099   6.875  0.3221  0.3069  0.6659
   76SLPC   H2R 6824   1.611   6.103   6.923 -0.5021  0.0204  2.5294
   76SLPC   H2S 6825   1.518   6.164   6.786  4.4675 -0.9998 -0.1749
   76SLPC    C3 6826   1.738   5.727   6.747  0.0977  0.4033 -0.1435
   76SLPC    HX 6827   1.842   5.757   6.722  0.7742 -2.8219 -1.8204
   76SLPC    HY 6828   1.734   5.632   6.689 -0.7322 -0.5033  1.3553
   76SLPC   O31 6829   1.715   5.700   6.888  0.5220  0.2120  0.3620
   76SLPC   C31 6830   1.607   5.623   6.907  0.0848 -0.1743 -0.2925
   76SLPC   O32 6831   1.527   5.575   6.821 -0.6800  0.1501 -0.3689
   76SLPC   C32 6832   1.592   5.596   7.057  0.3924 -0.0553  0.4593
   76SLPC   H2X 6833   1.661   5.511   7.078 -0.1330 -0.2722  1.3799
   76SLPC   H2Y 6834   1.487   5.560   7.068  0.6935 -1.0764  0.1429
   76SLPC   C23 6835   1.393   6.130   6.972 -0.3571  0.4972 -0.1597
   76SLPC   H3R 6836   1.295   6.098   6.930 -0.7906  0.6423  0.7213
   76SLPC   H3S 6837   1.398   6.240   6.983 -0.8522  0.7405 -1.9681
   76SLPC   C24 6838   1.417   6.062   7.110  0.5117 -0.3507  0.1168
   76SLPC   H4R 6839   1.520   6.089   7.141  0.1709  0.8689  0.2281
   76SLPC   H4S 6840   1.430   5.952   7.096  0.0103 -0.0845 -3.6553
   76SLPC   C25 6841   1.313   6.089   7.222 -0.0725 -0.9027  0.3596
   76SLPC   H5R 6842   1.318   6.010   7.300  0.8196  0.0205  1.2552
   76SLPC   H5S 6843   1.215   6.063   7.175  1.2695 -1.9623 -2.0466
   76SLPC   C26 6844   1.310   6.232   7.272  0.5968 -0.0879  0.3109
   76SLPC   H6R 6845   1.303   6.302   7.186 -0.7621 -2.1209 -1.3270
   76SLPC   H6S 6846   1.410   6.255   7.316  1.9635 -1.9002 -1.6878
   76SLPC   C27 6847   1.198   6.261   7.370  0.0254 -0.2197 -1.0322
   76SLPC   H7R 6848   1.094   6.258   7.331 -1.1719  1.1660  1.7438
   76SLPC   H7S 6849   1.218   6.362   7.412 -1.5058 -0.0334 -0.6902
   76SLPC   C28 6850   1.200   6.166   7.491 -0.1145 -0.1496  0.3088
   76SLPC   H8R 6851   1.107   6.176   7.550  0.4283  0.1809  1.1293
   76SLPC   H8S 6852   1.185   6.071   7.436 -1.7289  0.0385  0.3817
   76SLPC   C29 6853   1.332   6.172   7.568  0.2533 -0.1744 -0.8166
   76SLPC   H9R 6854   1.424   6.135   7.519  0.6347  0.5567 -0.6620
   76SLPC  C210 6855   1.353   6.201   7.702  0.0060 -0.0541  0.0670
   76SLPC  H10R 6856   1.456   6.204   7.740  0.3286 -2.8845 -0.4049
   76SLPC  C211 6857   1.236   6.251   7.787  0.7079  0.8165  0.4757
   76SLPC  H11R 6858   1.186   6.160   7.829  3.5051 -0.1693  1.9455
   76SLPC  H11S 6859   1.166   6.312   7.728  1.8934  3.3241  1.5227
   76SLPC  C212 6860   1.267   6.345   7.899  0.2472  0.5035  0.2636
   76SLPC  H12R 6861   1.276   6.452   7.877 -0.8548  0.1795 -2.0681
   76SLPC  C213 6862   1.283   6.304   8.025 -0.5293 -0.9287 -0.5425
   76SLPC  H13R 6863   1.300   6.379   8.104 -1.7233  0.0291 -1.1455
   76SLPC  C214 6864   1.261   6.171   8.080  0.4161 -0.1254 -0.3192
   76SLPC  H14R 6865   1.334   6.158   8.163 -0.3307  1.0023  0.5381
   76SLPC  H14S 6866   1.272   6.090   8.004  1.1136  0.9179 -1.3642
   76SLPC  C215 6867   1.122   6.156   8.134 -0.2434  0.2969  0.4467
   76SLPC  H15R 6868   1.113   6.048   8.159 -1.3866 -0.2431 -2.0149
   76SLPC  H15S 6869   1.043   6.165   8.057 -0.1107 -2.3332 -0.0811
   76SLPC  C216 6870   1.089   6.243   8.254 -0.4588  0.1455 -0.0384
   76SLPC  H16R 6871   1.073   6.348   8.222  1.1005 -0.6063 -3.7378
   76SLPC  H16S 6872   1.183   6.250   8.313  0.8369  1.0020 -2.1162
   76SLPC  C217 6873   0.972   6.190   8.338 -0.6355 -0.3323  0.2308
   76SLPC  H17R 6874   0.996   6.083   8.359  0.1435 -0.5113 -1.4168
   76SLPC  H17S 6875   0.874   6.181   8.286 -0.1263 -1.3893 -0.5771
   76SLPC  C218 6876   0.960   6.272   8.469 -0.2845  0.0687 -0.5909
   76SLPC  H18R 6877   0.857   6.265   8.510 -0.3213 -1.9057 -0.9054
   76SLPC  H18S 6878   0.999   6.374   8.450 -0.9017  0.2336 -1.0047
   76SLPC  H18T 6879   1.021   6.219   8.545  1.1500 -1.4115 -2.6579
   76SLPC   C33 6880   1.626   5.716   7.150  0.5007  0.5407  0.0437
   76SLPC   H3X 6881   1.588   5.800   7.087 -1.2614 -1.2272 -1.3710
   76SLPC   H3Y 6882   1.736   5.725   7.159  0.8687 -1.3049 -1.6801
   76SLPC   C34 6883   1.554   5.716   7.284 -0.3458 -0.0804 -0.3394
   76SLPC   H4X 6884   1.574   5.626   7.345 -0.1075  0.5619  0.5505
   76SLPC   H4Y 6885   1.445   5.722   7.261 -0.1433  0.3965 -1.2484
   76SLPC   C35 6886   1.621   5.829   7.370  0.4471 -0.1936 -0.9469
   76SLPC   H5X 6887   1.605   5.929   7.324 -1.2727  0.6985  1.3836
   76SLPC   H5Y 6888   1.729   5.813   7.391  0.8447 -2.3272 -4.0987
   76SLPC   C36 6889   1.543   5.828   7.505 -1.1322  0.4563  0.1479
   76SLPC   H6X 6890   1.546   5.721   7.537  0.4011  0.2830 -0.5003
   76SLPC   H6Y 6891   1.436   5.853   7.485 -0.8675  1.4972 -0.0167
   76SLPC   C37 6892   1.608   5.922   7.606  0.5187 -0.4997  0.3560
   76SLPC   H7X 6893   1.597   6.024   7.565 -1.2955 -0.6330  0.4346
   76SLPC   H7Y 6894   1.715   5.891   7.605 -0.0477 -2.5961 -0.4121
   76SLPC   C38 6895   1.549   5.909   7.750 -0.5653  0.1008 -0.3093
   76SLPC   H8X 6896   1.534   5.801   7.767 -2.7034  0.4461  0.2132
   76SLPC   H8Y 6897   1.450   5.959   7.750 -0.1084  1.0703  0.8408
   76SLPC   C39 6898   1.634   5.985   7.861 -0.0824 -0.3942  0.7275
   76SLPC   H9X 6899   1.675   6.081   7.823  1.2736 -0.6156  1.5485
   76SLPC   H9Y 6900   1.721   5.918   7.878  1.0333  0.6248 -0.6842
   76SLPC  C310 6901   1.564   6.014   7.987 -0.1031  0.3438 -0.3081
   76SLPC  H10X 6902   1.488   5.935   8.005  1.2587 -0.9024  0.1871
   76SLPC  H10Y 6903   1.511   6.111   7.976 -5.1022 -2.2866 -2.4845
   76SLPC  C311 6904   1.666   6.021   8.105  0.0271 -0.9780 -0.6010
   76SLPC  H11X 6905   1.725   6.112   8.084 -0.5396 -0.7202 -1.1075
   76SLPC  H11Y 6906   1.733   5.933   8.108 -0.7178 -1.5416 -0.1007
   76SLPC  C312 6907   1.601   6.042   8.242 -0.0883  0.4926 -0.3437
   76SLPC  H12X 6908   1.564   6.147   8.249 -0.4001  0.3044  1.1581
   76SLPC  H12Y 6909   1.681   6.041   8.318  1.4211  2.2180 -1.8042
   76SLPC  C313 6910   1.495   5.940   8.287 -0.1225  0.1463 -0.1513
   76SLPC  H13X 6911   1.532   5.835   8.286 -3.6677 -1.2735 -0.7219
   76SLPC  H13Y 6912   1.407   5.941   8.219 -1.5704 -0.1856  1.6273
   76SLPC  C314 6913   1.450   5.976   8.426 -0.4105 -0.1760 -0.1239
   76SLPC  H14X 6914   1.386   6.066   8.415 -1.7207 -1.2079 -1.5470
   76SLPC  H14Y 6915   1.536   6.002   8.490 -0.8673  0.8843  0.0759
   76SLPC  C315 6916   1.361   5.876   8.505 -0.2583  0.6624  0.0223
   76SLPC  H15X 6917   1.428   5.791   8.532 -0.4369  0.8777  1.2073
   76SLPC  H15Y 6918   1.281   5.854   8.431  0.1319 -0.4896 -0.0844
   76SLPC  C316 6919   1.312   5.933   8.639 -0.2273 -0.0279  0.0658
   76SLPC  H16X 6920   1.223   5.996   8.621  0.4397  0.5623 -1.2745
   76SLPC  H16Y 6921   1.394   5.996   8.678  0.4980  1.1644 -3.1023
   76SLPC  C317 6922   1.272   5.844   8.751  0.0515 -0.1194 -0.0056
   76SLPC  H17X 6923   1.175   5.794   8.729 -0.6235  0.8341  0.7488
   76SLPC  H17Y 6924   1.250   5.903   8.843 -1.1591 -1.3022  0.4998
   76SLPC  C318 6925   1.372   5.749   8.794 -0.2451  0.4817 -0.2672
   76SLPC  H18X 6926   1.383   5.674   8.712 -0.8919  1.4282 -1.2503
   76SLPC  H18Y 6927   1.361   5.708   8.896  0.9052  1.2595  0.1991
   76SLPC  H18Z 6928   1.475   5.792   8.802  0.7835 -1.8881  0.0687
   77SLPC     N 6929   5.286   5.690   6.267  0.0760 -0.3879 -0.3177
   77SLPC   C13 6930   5.289   5.607   6.387 -0.1970  0.5087 -0.2534
   77SLPC  H13A 6931   5.213   5.531   6.378  1.1933 -0.8602 -0.8988
   77SLPC  H13B 6932   5.383   5.554   6.388  0.1475  1.0557 -1.6711
   77SLPC  H13C 6933   5.286   5.657   6.483  1.3359  0.7403 -0.2987
   77SLPC   C14 6934   5.169   5.787   6.269 -0.1600 -0.2941  0.4866
   77SLPC  H14A 6935   5.170   5.863   6.193  2.1646 -0.4090  0.3477
   77SLPC  H14B 6936   5.075   5.734   6.270 -0.3153 -0.1208 -1.5492
   77SLPC  H14C 6937   5.184   5.846   6.359 -0.5862 -0.3536  0.5975
   77SLPC   C15 6938   5.269   5.599   6.152 -0.1638  0.2196  0.3691
   77SLPC  H15A 6939   5.335   5.514   6.149 -0.9937 -0.4272 -2.0958
   77SLPC  H15B 6940   5.171   5.555   6.142 -0.3966  0.8707 -0.3323
   77SLPC  H15C 6941   5.280   5.649   6.056  0.6356 -0.6843 -0.0269
   77SLPC   C12 6942   5.417   5.768   6.254  0.0916  0.0491  0.3666
   77SLPC  H12A 6943   5.400   5.853   6.189 -0.0106  0.1412  0.5127
   77SLPC  H12B 6944   5.481   5.709   6.190 -0.5338 -0.0053 -0.2117
   77SLPC   C11 6945   5.504   5.804   6.379 -0.0334 -0.3969 -0.2226
   77SLPC  H11A 6946   5.604   5.840   6.347 -0.3730  1.1492  0.3921
   77SLPC  H11B 6947   5.531   5.724   6.451 -0.3001  0.0837  0.4239
   77SLPC     P 6948   5.451   6.046   6.419  0.1455 -0.0903 -0.1459
   77SLPC   O13 6949   5.594   6.082   6.426 -0.5709  0.7165 -0.3762
   77SLPC   O14 6950   5.395   6.077   6.284 -0.1329 -0.1946  0.4371
   77SLPC   O12 6951   5.432   5.895   6.456  0.8839  0.1192 -0.4072
   77SLPC   O11 6952   5.366   6.137   6.517 -0.0637 -0.2529 -0.3662
   77SLPC    C1 6953   5.419   6.186   6.638  0.1723 -0.3734  0.0294
   77SLPC    HA 6954   5.454   6.107   6.708 -0.9227  0.1225  1.1849
   77SLPC    HB 6955   5.506   6.250   6.613  0.2693 -0.7328 -0.5799
   77SLPC    C2 6956   5.326   6.284   6.710 -0.2370 -0.0473  0.1535
   77SLPC    HS 6957   5.319   6.378   6.651 -0.7900  0.3161  0.7894
   77SLPC   O21 6958   5.391   6.303   6.837  0.2680 -0.4923  0.2452
   77SLPC   C21 6959   5.377   6.432   6.888 -0.3044  0.3611 -0.0020
   77SLPC   O22 6960   5.328   6.532   6.837  0.7697  0.6221  0.8835
   77SLPC   C22 6961   5.423   6.422   7.037 -0.1526  0.0820  0.0055
   77SLPC   H2R 6962   5.533   6.427   7.046 -0.2022 -0.4204  1.0109
   77SLPC   H2S 6963   5.380   6.517   7.077  0.2050 -0.1732  1.0201
   77SLPC    C3 6964   5.187   6.231   6.728  0.1516  0.3430 -0.1784
   77SLPC    HX 6965   5.198   6.134   6.782  0.4329  0.3382 -0.2427
   77SLPC    HY 6966   5.148   6.204   6.628 -2.1976 -0.1045  0.7914
   77SLPC   O31 6967   5.109   6.318   6.811  0.5764 -0.2875  0.3773
   77SLPC   C31 6968   5.043   6.408   6.740 -0.2435 -0.8588  1.5947
   77SLPC   O32 6969   5.039   6.415   6.616  0.1717 -0.2220  0.2218
   77SLPC   C32 6970   4.985   6.530   6.814 -0.1612 -0.6647 -0.2620
   77SLPC   H2X 6971   4.914   6.584   6.748  1.9050  0.8944 -1.3609
   77SLPC   H2Y 6972   5.074   6.597   6.821 -0.5237 -0.0536 -1.2683
   77SLPC   C23 6973   5.362   6.304   7.103  0.0078  0.3208 -0.7613
   77SLPC   H3R 6974   5.423   6.213   7.081 -0.8371 -1.2945  2.8343
   77SLPC   H3S 6975   5.257   6.288   7.072 -0.3589  1.0908  0.0605
   77SLPC   C24 6976   5.359   6.317   7.252  0.2243 -0.5471 -0.3334
   77SLPC   H4R 6977   5.339   6.216   7.291 -3.8463 -0.4884 -1.7510
   77SLPC   H4S 6978   5.274   6.378   7.289  0.5683 -0.2375 -0.0501
   77SLPC   C25 6979   5.492   6.377   7.314  0.1626  1.2931 -0.0820
   77SLPC   H5R 6980   5.473   6.486   7.306  1.6970  1.6228  0.3750
   77SLPC   H5S 6981   5.583   6.349   7.257 -0.9370 -0.8782 -0.8645
   77SLPC   C26 6982   5.506   6.345   7.465 -0.0354 -0.1164 -0.2006
   77SLPC   H6R 6983   5.526   6.236   7.454  1.8239  0.0205  1.4309
   77SLPC   H6S 6984   5.422   6.362   7.534 -0.5556  0.9334 -1.0570
   77SLPC   C27 6985   5.619   6.430   7.529  0.5572  0.6794 -0.2378
   77SLPC   H7R 6986   5.573   6.530   7.542 -1.2056 -0.3241  1.8906
   77SLPC   H7S 6987   5.702   6.438   7.454  0.1656  1.7023 -0.5801
   77SLPC   C28 6988   5.674   6.387   7.671 -0.5551  0.7322  0.1790
   77SLPC   H8R 6989   5.765   6.450   7.679 -0.7516  0.9660  0.5898
   77SLPC   H8S 6990   5.699   6.279   7.678 -2.6773  0.2366  0.8654
   77SLPC   C29 6991   5.589   6.434   7.783 -0.6753  0.0572 -1.1515
   77SLPC   H9R 6992   5.584   6.539   7.814 -0.1452 -0.2214 -0.0775
   77SLPC  C210 6993   5.508   6.358   7.863 -0.2760 -0.0141 -0.1992
   77SLPC  H10R 6994   5.447   6.411   7.937 -2.9064 -1.5026 -1.1507
   77SLPC  C211 6995   5.497   6.204   7.847  0.7865 -0.8239 -1.2530
   77SLPC  H11R 6996   5.575   6.171   7.919 -0.3752  0.9875  0.9639
   77SLPC  H11S 6997   5.533   6.170   7.748 -0.3631 -3.6768 -0.7895
   77SLPC  C212 6998   5.374   6.123   7.899  0.7222 -0.2028  0.1600
   77SLPC  H12R 6999   5.318   6.088   7.811  0.6242 -0.9041  0.4926
   77SLPC  C213 7000   5.333   6.096   8.026 -0.1331 -0.3931 -0.4717
   77SLPC  H13R 7001   5.239   6.045   8.050 -1.5172  1.7472 -1.0747
   77SLPC  C214 7002   5.412   6.137   8.154 -0.3026 -0.1337 -0.5399
   77SLPC  H14R 7003   5.338   6.170   8.229  0.2008 -0.9481  0.3391
   77SLPC  H14S 7004   5.482   6.221   8.138  0.1564 -0.5894 -0.9656
   77SLPC  C215 7005   5.497   6.021   8.216 -0.1490 -0.7555 -0.0476
   77SLPC  H15R 7006   5.423   5.939   8.220  0.0323 -0.9699 -0.9085
   77SLPC  H15S 7007   5.525   6.060   8.317  2.1199  0.6755 -1.1409
   77SLPC  C216 7008   5.626   5.981   8.146 -0.0406  0.3759  0.0183
   77SLPC  H16R 7009   5.681   6.069   8.106  0.5454 -0.8168 -1.9151
   77SLPC  H16S 7010   5.600   5.920   8.057 -2.7119  0.6467  0.5467
   77SLPC  C217 7011   5.711   5.892   8.240  0.3762  0.5593 -0.1043
   77SLPC  H17R 7012   5.747   5.810   8.176 -1.5497  0.2838 -0.9030
   77SLPC  H17S 7013   5.654   5.837   8.318  0.7416  0.1650 -0.1147
   77SLPC  C218 7014   5.812   5.962   8.322 -0.7574  0.5501 -0.3062
   77SLPC  H18R 7015   5.786   6.060   8.367  0.2597  0.1568  1.2027
   77SLPC  H18S 7016   5.911   5.970   8.273 -0.2196 -2.8095  0.0036
   77SLPC  H18T 7017   5.828   5.897   8.411 -0.1054  2.3610  0.9543
   77SLPC   C33 7018   4.930   6.499   6.957 -0.2994  0.3977 -0.4731
   77SLPC   H3X 7019   4.997   6.420   6.998  2.3870  1.5594 -2.3241
   77SLPC   H3Y 7020   4.827   6.458   6.946 -0.1908  0.6822 -3.6099
   77SLPC   C34 7021   4.939   6.626   7.034  0.6013 -0.2451 -0.6165
   77SLPC   H4X 7022   4.874   6.701   6.983  1.8352  1.0901 -0.2976
   77SLPC   H4Y 7023   5.034   6.682   7.024 -0.9568  2.6946 -0.1920
   77SLPC   C35 7024   4.883   6.613   7.180  0.1788 -0.2052  0.8532
   77SLPC   H5X 7025   4.776   6.583   7.173 -0.3225  1.8373 -2.8771
   77SLPC   H5Y 7026   4.880   6.716   7.220 -2.6005  1.3830 -2.8012
   77SLPC   C36 7027   4.966   6.527   7.270 -0.3387 -0.7393  0.2158
   77SLPC   H6X 7028   5.075   6.532   7.249 -0.3399 -2.7026 -0.4509
   77SLPC   H6Y 7029   4.947   6.420   7.249 -1.6241 -0.4172 -0.3737
   77SLPC   C37 7030   4.932   6.551   7.414 -0.4758 -0.7426 -0.5043
   77SLPC   H7X 7031   4.829   6.518   7.438  0.3428 -2.5452  0.6873
   77SLPC   H7Y 7032   4.947   6.658   7.442 -1.5708 -1.3413  2.8619
   77SLPC   C38 7033   5.024   6.469   7.510  0.5583 -0.7760  0.4423
   77SLPC   H8X 7034   5.129   6.466   7.474  0.4443 -2.3106  0.1986
   77SLPC   H8Y 7035   4.989   6.364   7.499  0.5696 -0.6554 -1.0618
   77SLPC   C39 7036   5.015   6.509   7.653  0.0714 -0.2698  0.3734
   77SLPC   H9X 7037   4.913   6.506   7.698 -0.5570 -0.0634 -0.9590
   77SLPC   H9Y 7038   5.055   6.610   7.672  1.6554 -1.3512  3.2611
   77SLPC  C310 7039   5.103   6.420   7.739  0.6115  0.2976  0.4959
   77SLPC  H10X 7040   5.209   6.432   7.707  0.5625 -1.0174 -0.2509
   77SLPC  H10Y 7041   5.082   6.312   7.721 -1.0596  0.4990  1.0940
   77SLPC  C311 7042   5.076   6.427   7.892  0.2099 -0.5318  0.2702
   77SLPC  H11X 7043   5.131   6.344   7.942 -2.2127 -1.5814  1.3361
   77SLPC  H11Y 7044   4.967   6.411   7.902  0.1491 -2.5760 -2.6318
   77SLPC  C312 7045   5.120   6.560   7.951  0.1925 -0.0631 -0.2150
   77SLPC  H12X 7046   5.049   6.640   7.921  2.0117  1.2965 -1.1034
   77SLPC  H12Y 7047   5.223   6.574   7.912  1.7009 -0.7669  3.1636
   77SLPC  C313 7048   5.126   6.563   8.105  0.4696 -0.5520 -0.0701
   77SLPC  H13X 7049   5.023   6.548   8.143  0.4556  0.5919  0.3833
   77SLPC  H13Y 7050   5.147   6.670   8.128 -0.4389  0.0980 -1.9863
   77SLPC  C314 7051   5.215   6.464   8.172 -0.4259 -0.3943 -0.4178
   77SLPC  H14X 7052   5.294   6.442   8.098 -0.8255 -1.4830 -0.5368
   77SLPC  H14Y 7053   5.168   6.365   8.184  0.3328 -0.7274 -0.1317
   77SLPC  C315 7054   5.275   6.514   8.303  0.0371 -0.1956 -0.0566
   77SLPC  H15X 7055   5.335   6.605   8.279 -0.0374  0.2104  1.2517
   77SLPC  H15Y 7056   5.336   6.431   8.345 -0.9677 -0.4470  0.9607
   77SLPC  C316 7057   5.179   6.555   8.409  0.2082 -0.3711  1.2012
   77SLPC  H16X 7058   5.115   6.468   8.434  0.5867 -0.8891  0.3759
   77SLPC  H16Y 7059   5.106   6.629   8.367  0.8242 -0.6208 -0.3726
   77SLPC  C317 7060   5.224   6.625   8.534  0.6296 -0.2382 -0.1378
   77SLPC  H17X 7061   5.253   6.730   8.514  0.8646  0.1315  1.9192
   77SLPC  H17Y 7062   5.307   6.576   8.590 -0.6534  1.2852  3.3830
   77SLPC  C318 7063   5.103   6.637   8.628 -0.2488  0.2790 -0.0353
   77SLPC  H18X 7064   5.074   6.551   8.692 -1.2721  0.3984 -0.3271
   77SLPC  H18Y 7065   5.025   6.677   8.560 -1.8730  3.7259  3.4603
   77SLPC  H18Z 7066   5.110   6.717   8.706 -2.0660 -0.1954  0.6611
   78SLPC     N 7067   0.540   6.312   6.213 -0.1387  0.2705 -0.3273
   78SLPC   C13 7068   0.559   6.433   6.128  0.2772 -0.1231  0.1570
   78SLPC  H13A 7069   0.504   6.419   6.036 -0.5069  0.7096  0.4823
   78SLPC  H13B 7070   0.529   6.519   6.186 -0.6210 -0.2261 -0.1405
   78SLPC  H13C 7071   0.664   6.438   6.103  0.1979  1.6851  0.0313
   78SLPC   C14 7072   0.617   6.320   6.344  0.6770 -0.2494 -0.0340
   78SLPC  H14A 7073   0.600   6.223   6.390  1.2592 -0.7518 -0.8448
   78SLPC  H14B 7074   0.722   6.320   6.318  0.0685 -0.7023 -2.7707
   78SLPC  H14C 7075   0.578   6.390   6.416 -0.1334 -0.8774  0.1463
   78SLPC   C15 7076   0.595   6.198   6.133 -0.1304  0.0284  0.1769
   78SLPC  H15A 7077   0.703   6.190   6.132 -0.1534 -0.2059 -0.2373
   78SLPC  H15B 7078   0.566   6.104   6.177 -1.8808 -0.4325 -1.8452
   78SLPC  H15C 7079   0.565   6.202   6.030  0.2777  0.7686  0.0771
   78SLPC   C12 7080   0.394   6.289   6.251 -0.2362  0.2667 -0.1168
   78SLPC  H12A 7081   0.388   6.248   6.350 -0.7521 -0.2527 -0.3546
   78SLPC  H12B 7082   0.352   6.221   6.178  1.2003  0.1480 -0.8781
   78SLPC   C11 7083   0.285   6.400   6.246 -0.2855 -0.0114 -0.4236
   78SLPC  H11A 7084   0.184   6.366   6.276  0.4303 -0.8770  1.1853
   78SLPC  H11B 7085   0.273   6.434   6.141 -2.5169 -1.3811 -0.6564
   78SLPC     P 7086   0.321   6.533   6.471 -0.2741 -0.0312  0.7747
   78SLPC   O13 7087   0.463   6.551   6.514 -0.1704 -0.0599 -0.1345
   78SLPC   O14 7088   0.230   6.646   6.508  0.5469 -0.4982 -0.3070
   78SLPC   O12 7089   0.325   6.517   6.319  0.7609  0.0065 -0.1627
   78SLPC   O11 7090   0.273   6.391   6.532 -0.2025 -0.0037 -0.0647
   78SLPC    C1 7091   0.327   6.349   6.658  0.1369  0.1569 -0.1323
   78SLPC    HA 7092   0.289   6.247   6.677 -0.0141  0.5617  1.9647
   78SLPC    HB 7093   0.438   6.336   6.656  0.1936  0.5801  0.1124
   78SLPC    C2 7094   0.286   6.449   6.773  0.2164  0.7191  0.3732
   78SLPC    HS 7095   0.343   6.541   6.749  1.5907 -0.2422 -0.1438
   78SLPC   O21 7096   0.324   6.379   6.894  0.6819  0.2064  0.3022
   78SLPC   C21 7097   0.447   6.412   6.945 -0.5252 -0.7471  0.2958
   78SLPC   O22 7098   0.518   6.503   6.903  0.0531 -0.5343 -0.2269
   78SLPC   C22 7099   0.478   6.323   7.066 -0.7005  0.0488  0.1045
   78SLPC   H2R 7100   0.389   6.328   7.133  0.7019 -1.5988  2.2443
   78SLPC   H2S 7101   0.487   6.220   7.025  0.6702 -0.6772  2.0531
   78SLPC    C3 7102   0.131   6.471   6.777 -1.0306  0.2189 -0.6520
   78SLPC    HX 7103   0.087   6.371   6.798  2.1664 -0.9179  1.3366
   78SLPC    HY 7104   0.092   6.496   6.676  1.2299 -0.4582 -1.7608
   78SLPC   O31 7105   0.090   6.558   6.885 -0.2136  0.2926 -0.6292
   78SLPC   C31 7106   0.077   6.690   6.859  0.0962  0.0926 -0.0154
   78SLPC   O32 7107   0.123   6.753   6.766 -0.1240 -0.2337  0.2582
   78SLPC   C32 7108  -0.012   6.742   6.972  0.3604  0.0124  0.3054
   78SLPC   H2X 7109  -0.092   6.804   6.924 -0.9307 -0.0350  2.2842
   78SLPC   H2Y 7110   0.036   6.817   7.039 -0.4940 -0.1043  1.0736
   78SLPC   C23 7111   0.612   6.361   7.128  0.6633 -0.6515  0.0996
   78SLPC   H3R 7112   0.590   6.461   7.173  1.2720  0.2776 -1.5672
   78SLPC   H3S 7113   0.694   6.371   7.054  1.0720 -1.2990  0.4588
   78SLPC   C24 7114   0.645   6.257   7.231 -0.2497  0.2783 -0.0465
   78SLPC   H4R 7115   0.706   6.182   7.177  1.8624  0.3318  2.1184
   78SLPC   H4S 7116   0.551   6.220   7.279 -0.4769  2.8709  1.7279
   78SLPC   C25 7117   0.743   6.313   7.337 -0.4571  0.3200  0.4569
   78SLPC   H5R 7118   0.822   6.373   7.288  0.9110 -0.4205  1.6503
   78SLPC   H5S 7119   0.800   6.227   7.379 -0.8670 -0.5465 -0.6998
   78SLPC   C26 7120   0.691   6.376   7.462  0.4847  0.8187 -0.8132
   78SLPC   H6R 7121   0.631   6.466   7.437 -0.8478 -0.2006 -1.4076
   78SLPC   H6S 7122   0.768   6.414   7.532 -1.6728  1.0027  1.6433
   78SLPC   C27 7123   0.608   6.284   7.549 -0.0302  0.3166  0.3631
   78SLPC   H7R 7124   0.512   6.259   7.499  0.7655 -2.8918  0.2360
   78SLPC   H7S 7125   0.591   6.337   7.646 -0.8897 -0.2469  0.5301
   78SLPC   C28 7126   0.679   6.146   7.585  0.5989  0.3239  0.0031
   78SLPC   H8R 7127   0.695   6.097   7.487 -0.4168  0.2130 -0.1184
   78SLPC   H8S 7128   0.599   6.092   7.642 -1.3362  1.2727 -1.6932
   78SLPC   C29 7129   0.816   6.161   7.653  0.1930  0.4269  0.2367
   78SLPC   H9R 7130   0.902   6.145   7.587  0.0353 -2.5388  0.5813
   78SLPC  C210 7131   0.845   6.200   7.780 -0.1241 -0.2139 -0.1585
   78SLPC  H10R 7132   0.947   6.202   7.820 -0.8164  0.5086  1.6537
   78SLPC  C211 7133   0.748   6.249   7.885  0.3508  0.4937  0.1780
   78SLPC  H11R 7134   0.721   6.162   7.949 -0.0052  1.1084  0.8776
   78SLPC  H11S 7135   0.657   6.286   7.832  1.1292  2.0730 -0.1214
   78SLPC  C212 7136   0.810   6.350   7.975  0.5379 -0.1141 -0.2806
   78SLPC  H12R 7137   0.831   6.316   8.077 -0.0530  0.0122 -0.1131
   78SLPC  C213 7138   0.854   6.469   7.939 -0.4385  0.6045 -0.3639
   78SLPC  H13R 7139   0.902   6.532   8.015 -0.6089 -2.2928  2.3509
   78SLPC  C214 7140   0.834   6.530   7.801  0.8852  0.1891 -0.5515
   78SLPC  H14R 7141   0.766   6.619   7.801 -0.7108 -0.9797 -0.8013
   78SLPC  H14S 7142   0.784   6.454   7.738 -1.3385 -0.3140  1.6744
   78SLPC  C215 7143   0.974   6.583   7.755 -0.1545  0.4493 -0.6369
   78SLPC  H15R 7144   1.037   6.491   7.753  0.5314  0.8879 -0.0116
   78SLPC  H15S 7145   1.021   6.645   7.834  1.0914 -1.4660  0.1942
   78SLPC  C216 7146   0.979   6.654   7.621 -0.3700  0.0116  0.3800
   78SLPC  H16R 7147   0.905   6.603   7.555 -0.9427 -1.4897  2.0841
   78SLPC  H16S 7148   1.080   6.648   7.576  0.6788  3.2458  2.0071
   78SLPC  C217 7149   0.960   6.812   7.631  0.3348 -0.0775  0.2116
   78SLPC  H17R 7150   1.048   6.850   7.687 -0.1033 -0.3509  1.1004
   78SLPC  H17S 7151   0.861   6.828   7.681  0.1871 -2.3368  0.7266
   78SLPC  C218 7152   0.953   6.879   7.496 -0.4078  0.0937  0.0931
   78SLPC  H18R 7153   0.959   6.989   7.506 -0.8435  0.2567 -1.2296
   78SLPC  H18S 7154   0.864   6.843   7.439 -1.6481  1.0772  1.3398
   78SLPC  H18T 7155   1.043   6.864   7.432 -0.5763  0.5964 -0.2668
   78SLPC   C33 7156  -0.087   6.646   7.065 -0.7894 -1.3215 -0.2896
   78SLPC   H3X 7157  -0.114   6.713   7.149 -2.2934  0.8384 -2.3796
   78SLPC   H3Y 7158  -0.016   6.563   7.090 -0.2866 -0.3712  1.5468
   78SLPC   C34 7159  -0.221   6.589   7.008  0.2842 -1.5757 -0.5087
   78SLPC   H4X 7160  -0.215   6.573   6.899 -1.1054  0.8619 -1.0258
   78SLPC   H4Y 7161  -0.310   6.652   7.030  2.0283  0.4295  1.3442
   78SLPC   C35 7162  -0.257   6.454   7.073 -0.3019 -0.0877 -0.2998
   78SLPC   H5X 7163  -0.180   6.381   7.042 -1.3232 -1.2860 -0.0825
   78SLPC   H5Y 7164  -0.347   6.398   7.042 -1.0181  1.1754 -0.5539
   78SLPC   C36 7165  -0.265   6.461   7.229 -0.0809 -0.1780 -0.0805
   78SLPC   H6X 7166  -0.311   6.558   7.262  0.9976 -0.1720  1.5051
   78SLPC   H6Y 7167  -0.162   6.449   7.268 -0.5817  3.5738  3.0858
   78SLPC   C37 7168  -0.337   6.345   7.296  0.2047  0.5692 -0.0073
   78SLPC   H7X 7169  -0.269   6.258   7.289 -0.4748  0.0195  0.0523
   78SLPC   H7Y 7170  -0.434   6.318   7.250  0.7721  0.2719 -1.0396
   78SLPC   C38 7171  -0.370   6.364   7.448 -0.3767  0.8458 -0.6779
   78SLPC   H8X 7172  -0.406   6.268   7.492  0.6777  0.8729  0.3116
   78SLPC   H8Y 7173  -0.447   6.440   7.471 -2.5247 -1.5003  0.4444
   78SLPC   C39 7174  -0.250   6.385   7.539 -0.5031  0.4523 -1.1545
   78SLPC   H9X 7175  -0.174   6.451   7.491 -0.8275  0.9196 -1.0381
   78SLPC   H9Y 7176  -0.188   6.295   7.559 -0.5612  0.4860 -0.8209
   78SLPC  C310 7177  -0.289   6.447   7.673 -0.1106  0.2369 -0.1574
   78SLPC  H10X 7178  -0.328   6.359   7.728  1.5585 -0.5012 -0.1048
   78SLPC  H10Y 7179  -0.362   6.531   7.678 -0.3748 -0.0418  0.8509
   78SLPC  C311 7180  -0.176   6.507   7.741  0.0032  0.6111 -0.9725
   78SLPC  H11X 7181  -0.135   6.593   7.683  2.3635  1.0264  1.0893
   78SLPC  H11Y 7182  -0.093   6.433   7.745  1.0038  1.7054 -0.6341
   78SLPC  C312 7183  -0.193   6.560   7.888  0.8124 -0.6687 -0.6085
   78SLPC  H12X 7184  -0.244   6.491   7.960 -0.8722 -0.2863 -1.4018
   78SLPC  H12Y 7185  -0.255   6.651   7.877  0.9360 -0.3763  0.8416
   78SLPC  C313 7186  -0.064   6.628   7.949  0.3145  0.6591  0.2950
   78SLPC  H13X 7187  -0.040   6.715   7.884 -0.1254  0.7455  0.2493
   78SLPC  H13Y 7188   0.016   6.550   7.941 -1.1228 -0.7435 -1.1015
   78SLPC  C314 7189  -0.083   6.670   8.095  0.1808  0.2560  0.0900
   78SLPC  H14X 7190  -0.165   6.744   8.090  1.3228  1.6210  0.7021
   78SLPC  H14Y 7191   0.014   6.712   8.131 -0.3892  1.4837  0.2264
   78SLPC  C315 7192  -0.113   6.558   8.204 -0.5266  0.0400 -0.3519
   78SLPC  H15X 7193  -0.039   6.478   8.222 -0.2802 -0.3383 -2.7245
   78SLPC  H15Y 7194  -0.201   6.508   8.156 -0.4879  1.1107 -1.6112
   78SLPC  C316 7195  -0.131   6.615   8.346 -0.5422  0.3426 -0.2415
   78SLPC  H16X 7196  -0.162   6.721   8.338 -0.7889  0.3243  0.4207
   78SLPC  H16Y 7197  -0.031   6.619   8.394 -1.0176 -1.6169  1.0274
   78SLPC  C317 7198  -0.225   6.531   8.434  0.5863  0.0995 -0.5311
   78SLPC  H17X 7199  -0.200   6.555   8.540 -0.1520 -0.6540 -0.1771
   78SLPC  H17Y 7200  -0.199   6.423   8.425 -0.8592 -0.3875  0.7292
   78SLPC  C318 7201  -0.374   6.557   8.400  0.0045 -1.1476  0.3107
   78SLPC  H18X 7202  -0.412   6.662   8.407  0.6274 -0.7188 -1.9328
   78SLPC  H18Y 7203  -0.450   6.494   8.452 -1.6016  1.4206  1.3022
   78SLPC  H18Z 7204  -0.387   6.536   8.292 -0.5778  3.2466 -0.6832
   79SLPC     N 7205   6.469   1.369   5.783 -0.2362  0.3851 -0.2433
   79SLPC   C13 7206   6.346   1.308   5.714  0.2281 -0.0345 -0.2328
   79SLPC  H13A 7207   6.271   1.282   5.787 -0.3232  1.4793 -0.2444
   79SLPC  H13B 7208   6.305   1.389   5.656  1.4026  1.1900  0.5789
   79SLPC  H13C 7209   6.380   1.225   5.653  2.7511  0.6387  0.1465
   79SLPC   C14 7210   6.433   1.484   5.861 -0.2877 -0.3650 -0.5607
   79SLPC  H14A 7211   6.473   1.493   5.961 -1.0335  2.1783 -0.4130
   79SLPC  H14B 7212   6.442   1.578   5.808 -0.4598  0.0254  0.0915
   79SLPC  H14C 7213   6.327   1.475   5.880 -0.0801 -0.6390  0.5081
   79SLPC   C15 7214   6.577   1.403   5.684 -0.3953 -0.2998  0.7352
   79SLPC  H15A 7215   6.548   1.471   5.605 -2.1451 -0.4703  1.1843
   79SLPC  H15B 7216   6.656   1.458   5.733  0.5097 -2.8247  2.2649
   79SLPC  H15C 7217   6.622   1.312   5.647 -0.5168 -0.3689  0.7571
   79SLPC   C12 7218   6.520   1.267   5.879 -0.1635  0.4523 -0.7108
   79SLPC  H12A 7219   6.621   1.289   5.909 -0.3724  1.0614 -0.4240
   79SLPC  H12B 7220   6.529   1.169   5.835  1.7458  0.0808  0.4205
   79SLPC   C11 7221   6.440   1.243   6.009 -0.1303  0.1184  0.6012
   79SLPC  H11A 7222   6.439   1.133   6.023  1.0780 -0.1133 -0.8384
   79SLPC  H11B 7223   6.335   1.273   5.988 -0.1380 -1.5408 -2.4246
   79SLPC     P 7224   6.602   1.261   6.216  0.0227 -0.1654  0.2248
   79SLPC   O13 7225   6.733   1.267   6.155 -0.1119  0.1538  0.1272
   79SLPC   O14 7226   6.586   1.338   6.340  0.5991  0.0538 -0.4364
   79SLPC   O12 7227   6.498   1.325   6.118  0.1620  0.5480  1.0845
   79SLPC   O11 7228   6.555   1.117   6.234 -0.2816  0.5172 -0.2443
   79SLPC    C1 7229   6.439   1.070   6.298  0.0761  0.3761  0.1292
   79SLPC    HA 7230   6.357   1.144   6.285  0.3836  0.6848 -0.0688
   79SLPC    HB 7231   6.409   0.978   6.244  0.3899  0.1017  0.4166
   79SLPC    C2 7232   6.450   1.054   6.457 -1.2884  0.2813  0.1512
   79SLPC    HS 7233   6.484   1.151   6.499 -3.5752  1.2182 -0.0105
   79SLPC   O21 7234   6.546   0.950   6.486  0.3636  0.5639  0.2859
   79SLPC   C21 7235   6.613   0.961   6.596 -0.0489  0.5611  0.1683
   79SLPC   O22 7236   6.614   1.057   6.674 -0.4463 -0.3467 -0.1290
   79SLPC   C22 7237   6.706   0.845   6.615  0.3490 -0.0690  0.0282
   79SLPC   H2R 7238   6.661   0.759   6.561 -1.2561 -1.0600  2.7473
   79SLPC   H2S 7239   6.800   0.868   6.562  0.3823 -1.5578 -0.6058
   79SLPC    C3 7240   6.309   1.038   6.521  0.0444 -0.0213 -0.0967
   79SLPC    HX 7241   6.290   0.929   6.531  0.3696 -0.1672 -0.9973
   79SLPC    HY 7242   6.234   1.077   6.449 -1.4854  2.4373  2.6300
   79SLPC   O31 7243   6.290   1.116   6.644 -0.2949  0.1030 -0.1631
   79SLPC   C31 7244   6.158   1.119   6.687  0.6221  0.2971  0.7306
   79SLPC   O32 7245   6.069   1.051   6.646 -0.5194 -0.3924  0.0430
   79SLPC   C32 7246   6.141   1.217   6.798 -0.0012 -0.5478 -0.0269
   79SLPC   H2X 7247   6.045   1.271   6.780  0.4890  0.0473 -0.9431
   79SLPC   H2Y 7248   6.215   1.299   6.811 -0.4181  0.0256 -1.1389
   79SLPC   C23 7249   6.727   0.811   6.765 -0.5944 -0.6832  0.0926
   79SLPC   H3R 7250   6.750   0.902   6.825 -0.5903 -0.4566 -0.2481
   79SLPC   H3S 7251   6.813   0.741   6.768 -0.4424 -0.4606  1.4059
   79SLPC   C24 7252   6.601   0.750   6.837 -0.4454 -0.6508  0.0009
   79SLPC   H4R 7253   6.578   0.663   6.772  3.1662 -0.3823 -1.8934
   79SLPC   H4S 7254   6.515   0.820   6.841 -0.2193 -0.3523 -0.2541
   79SLPC   C25 7255   6.625   0.693   6.975  0.4640  0.3558 -0.0050
   79SLPC   H5R 7256   6.680   0.602   6.943  1.8014  0.4619  1.7940
   79SLPC   H5S 7257   6.532   0.660   7.025  1.3372  2.8594  3.6607
   79SLPC   C26 7258   6.708   0.789   7.065 -0.0395  0.6520 -0.5088
   79SLPC   H6R 7259   6.643   0.877   7.084 -0.1876  0.0907  1.8955
   79SLPC   H6S 7260   6.800   0.832   7.020  2.3865 -0.8172  2.6494
   79SLPC   C27 7261   6.748   0.739   7.203  0.5938  0.7378 -0.5269
   79SLPC   H7R 7262   6.818   0.793   7.270 -0.0356  0.1149  0.6653
   79SLPC   H7S 7263   6.808   0.647   7.183  0.2979  0.5714 -0.6567
   79SLPC   C28 7264   6.623   0.716   7.301  0.4885 -0.1092  1.4446
   79SLPC   H8R 7265   6.533   0.725   7.237  0.9811  3.5345  1.0531
   79SLPC   H8S 7266   6.612   0.796   7.378  0.4207  0.6449  0.6598
   79SLPC   C29 7267   6.622   0.576   7.360 -0.1436  0.3673 -0.1797
   79SLPC   H9R 7268   6.655   0.491   7.299 -2.0602 -0.6781  0.1616
   79SLPC  C210 7269   6.588   0.545   7.484  0.0415 -0.4224  0.4474
   79SLPC  H10R 7270   6.604   0.438   7.506 -2.5590 -0.9638  0.0047
   79SLPC  C211 7271   6.540   0.645   7.590 -0.5835 -0.1340 -0.1563
   79SLPC  H11R 7272   6.453   0.598   7.640 -0.0348 -2.3287 -1.1865
   79SLPC  H11S 7273   6.487   0.733   7.547  0.5306  1.7883  2.1071
   79SLPC  C212 7274   6.649   0.691   7.686  0.0643  0.0920 -0.4289
   79SLPC  H12R 7275   6.746   0.703   7.635  0.6757  0.9354  0.8723
   79SLPC  C213 7276   6.640   0.684   7.824  0.1098 -0.0881 -0.1212
   79SLPC  H13R 7277   6.717   0.730   7.888 -0.5771  2.1445 -0.7921
   79SLPC  C214 7278   6.523   0.633   7.902  0.5816 -0.2433  0.3618
   79SLPC  H14R 7279   6.576   0.582   7.986 -0.7242 -0.6032  0.9844
   79SLPC  H14S 7280   6.469   0.551   7.850 -0.0679 -1.7737  3.2060
   79SLPC  C215 7281   6.419   0.733   7.943 -0.8162  0.1636  0.3091
   79SLPC  H15R 7282   6.332   0.689   7.997 -0.9586  0.9431  0.7269
   79SLPC  H15S 7283   6.382   0.777   7.849 -0.8249 -1.2438 -0.3740
   79SLPC  C216 7284   6.471   0.838   8.039 -0.8051 -0.2887  0.4500
   79SLPC  H16R 7285   6.387   0.909   8.056 -0.5158  0.4130 -0.8921
   79SLPC  H16S 7286   6.555   0.896   7.997  0.5331 -1.4261  1.4733
   79SLPC  C217 7287   6.516   0.796   8.178  0.4369  0.3452 -0.4127
   79SLPC  H17R 7288   6.607   0.733   8.168 -0.0432 -0.1551 -1.8892
   79SLPC  H17S 7289   6.431   0.747   8.230  1.2037  0.8551  1.3950
   79SLPC  C218 7290   6.542   0.913   8.264 -1.3350  0.2462  0.1049
   79SLPC  H18R 7291   6.627   0.962   8.212 -0.0202 -0.9231  1.0906
   79SLPC  H18S 7292   6.565   0.878   8.367  0.0588  0.2247 -0.1925
   79SLPC  H18T 7293   6.460   0.988   8.259 -1.6746  0.0905  2.3097
   79SLPC   C33 7294   6.105   1.149   6.935 -0.5220  0.1286  0.3299
   79SLPC   H3X 7295   6.196   1.102   6.979 -1.1642 -2.3775 -0.8587
   79SLPC   H3Y 7296   6.044   1.059   6.914  0.5247 -1.1926  2.6038
   79SLPC   C34 7297   6.039   1.246   7.026  0.6406  0.1616 -0.5578
   79SLPC   H4X 7298   5.948   1.286   6.976  1.0310  1.5898 -0.1885
   79SLPC   H4Y 7299   6.100   1.338   7.036  1.0778 -0.0212 -1.4703
   79SLPC   C35 7300   6.007   1.212   7.175 -0.3036 -0.3225  0.8054
   79SLPC   H5X 7301   6.098   1.183   7.233 -0.6322 -1.4738  0.7663
   79SLPC   H5Y 7302   5.952   1.116   7.174 -2.2731  0.7524  0.2939
   79SLPC   C36 7303   5.922   1.318   7.247 -0.0411 -0.2466  0.0398
   79SLPC   H6X 7304   5.819   1.301   7.209 -0.0770 -1.4958  0.6497
   79SLPC   H6Y 7305   5.946   1.421   7.213 -2.2092  0.0767 -0.7164
   79SLPC   C37 7306   5.923   1.310   7.402  0.3421  0.8611 -0.0849
   79SLPC   H7X 7307   6.020   1.330   7.453  0.7983 -2.0531  0.3995
   79SLPC   H7Y 7308   5.910   1.202   7.426 -1.0752  0.5807 -1.8843
   79SLPC   C38 7309   5.813   1.397   7.476 -1.0437  0.2214  0.0261
   79SLPC   H8X 7310   5.713   1.383   7.430 -1.0348  0.3991 -0.0514
   79SLPC   H8Y 7311   5.834   1.505   7.456  0.3704  0.2167  1.3250
   79SLPC   C39 7312   5.802   1.373   7.631  0.2871  0.4877  0.3918
   79SLPC   H9X 7313   5.789   1.265   7.654 -0.4985  0.5217  0.1307
   79SLPC   H9Y 7314   5.702   1.415   7.654 -0.0212  0.4307 -0.7461
   79SLPC  C310 7315   5.906   1.433   7.719  0.1254  0.0897 -0.4503
   79SLPC  H10X 7316   5.909   1.540   7.690  0.1658  1.0926  2.8669
   79SLPC  H10Y 7317   6.007   1.391   7.700 -0.1735 -1.0953  0.4670
   79SLPC  C311 7318   5.852   1.430   7.864  0.4009  0.2122 -0.0993
   79SLPC  H11X 7319   5.819   1.327   7.889  0.5293  0.0112 -0.7372
   79SLPC  H11Y 7320   5.771   1.505   7.863  1.6437  1.6022  0.2778
   79SLPC  C312 7321   5.954   1.490   7.968  0.0486 -0.3549 -0.6502
   79SLPC  H12X 7322   5.975   1.594   7.935 -0.5411 -0.7571 -2.4147
   79SLPC  H12Y 7323   6.048   1.431   7.973  1.0085  1.1078 -0.5668
   79SLPC  C313 7324   5.898   1.504   8.114 -0.2406  0.3186 -0.5674
   79SLPC  H13X 7325   5.813   1.576   8.109  0.2477  0.8352 -3.1685
   79SLPC  H13Y 7326   5.976   1.554   8.176  0.0726  0.2796 -0.9284
   79SLPC  C314 7327   5.849   1.374   8.165  0.6007  0.2063 -0.2730
   79SLPC  H14X 7328   5.932   1.301   8.154 -0.2068 -0.9196  0.8946
   79SLPC  H14Y 7329   5.768   1.338   8.097  1.2609 -0.4614 -0.7207
   79SLPC  C315 7330   5.795   1.375   8.306 -0.7181  0.1266  0.3079
   79SLPC  H15X 7331   5.769   1.268   8.321  0.8210 -0.3168  0.0138
   79SLPC  H15Y 7332   5.704   1.437   8.320 -1.3908 -0.8620  0.4318
   79SLPC  C316 7333   5.891   1.410   8.414 -0.1688  0.2167 -0.4368
   79SLPC  H16X 7334   5.916   1.518   8.412 -2.5725  0.8543  0.7353
   79SLPC  H16Y 7335   5.982   1.349   8.396 -0.4180 -0.6444  1.0795
   79SLPC  C317 7336   5.837   1.372   8.555 -0.0048 -0.2081  0.3808
   79SLPC  H17X 7337   5.909   1.410   8.631 -2.2958  2.0753  1.5860
   79SLPC  H17Y 7338   5.832   1.263   8.573 -3.1607 -0.0843  0.8537
   79SLPC  C318 7339   5.701   1.427   8.588  0.1994 -0.4394 -0.3775
   79SLPC  H18X 7340   5.628   1.362   8.535 -0.4011 -0.3534  0.3267
   79SLPC  H18Y 7341   5.678   1.527   8.545 -2.4988 -1.7910 -2.3615
   79SLPC  H18Z 7342   5.696   1.420   8.698 -0.6504 -3.0959 -0.5331
   80SLPC     N 7343   4.528   5.892   5.767  0.5441 -0.0685  0.5189
   80SLPC   C13 7344   4.666   5.901   5.702 -0.7408  0.0284 -0.0165
   80SLPC  H13A 7345   4.663   5.841   5.612 -2.2789 -2.4771  1.5970
   80SLPC  H13B 7346   4.694   6.002   5.678 -1.2217  0.9031  2.7675
   80SLPC  H13C 7347   4.743   5.856   5.764  0.8618  0.9518 -1.2526
   80SLPC   C14 7348   4.491   5.761   5.812 -0.6364 -0.1855  0.2747
   80SLPC  H14A 7349   4.513   5.679   5.745  2.1573  1.7603 -1.4309
   80SLPC  H14B 7350   4.548   5.731   5.899  0.5824  0.5053 -0.2558
   80SLPC  H14C 7351   4.389   5.760   5.846 -0.1488 -1.8388  1.9308
   80SLPC   C15 7352   4.429   5.927   5.657 -0.1938 -1.0359 -0.3374
   80SLPC  H15A 7353   4.437   5.861   5.572 -0.6404 -0.0099 -1.1992
   80SLPC  H15B 7354   4.324   5.926   5.682 -0.3873 -0.3440 -1.0922
   80SLPC  H15C 7355   4.458   6.024   5.620 -0.1415 -0.7827  0.3515
   80SLPC   C12 7356   4.526   5.999   5.880  0.0994  0.2243 -0.5137
   80SLPC  H12A 7357   4.428   6.001   5.924 -0.4058 -0.8288 -1.5203
   80SLPC  H12B 7358   4.538   6.091   5.824  1.2898  0.5867  0.2876
   80SLPC   C11 7359   4.622   5.985   6.004 -0.4152 -0.2845  0.6902
   80SLPC  H11A 7360   4.597   6.069   6.072  1.7052  1.6177 -0.7285
   80SLPC  H11B 7361   4.723   6.011   5.966 -0.7855 -1.4356 -1.2383
   80SLPC     P 7362   4.730   5.828   6.175  0.0398  0.2352 -0.2993
   80SLPC   O13 7363   4.703   5.688   6.229 -0.5216 -0.0336 -0.7674
   80SLPC   O14 7364   4.863   5.840   6.115  0.2645  0.2724  0.7085
   80SLPC   O12 7365   4.618   5.849   6.059 -0.0987  0.2126  0.1323
   80SLPC   O11 7366   4.706   5.953   6.271 -0.2279  0.2745 -0.1725
   80SLPC    C1 7367   4.728   5.933   6.416  0.4736 -0.0385  0.9113
   80SLPC    HA 7368   4.830   5.894   6.436  0.8720  0.2930 -0.3118
   80SLPC    HB 7369   4.723   6.035   6.461 -0.8718  0.9015 -1.1700
   80SLPC    C2 7370   4.631   5.842   6.499  0.4709 -0.4069  0.2268
   80SLPC    HS 7371   4.659   5.736   6.480  2.0056  0.0670 -0.2581
   80SLPC   O21 7372   4.494   5.884   6.459  0.2664 -0.0577 -0.5297
   80SLPC   C21 7373   4.411   5.787   6.469  0.4551  0.0355  0.2154
   80SLPC   O22 7374   4.434   5.671   6.500 -0.6052  0.0217  0.4888
   80SLPC   C22 7375   4.264   5.840   6.451 -0.2970 -0.3456 -0.1637
   80SLPC   H2R 7376   4.241   5.911   6.533  1.9586 -1.1862  1.2901
   80SLPC   H2S 7377   4.265   5.903   6.360 -0.8203 -0.5779 -0.3323
   80SLPC    C3 7378   4.664   5.863   6.648 -0.4908 -0.6209 -0.2866
   80SLPC    HX 7379   4.628   5.964   6.678 -0.7142 -1.0579  0.9618
   80SLPC    HY 7380   4.771   5.865   6.676 -0.0124  0.5706 -2.0308
   80SLPC   O31 7381   4.594   5.770   6.731  0.3063  0.1281  0.1272
   80SLPC   C31 7382   4.661   5.654   6.760 -0.6577 -0.0750 -0.2711
   80SLPC   O32 7383   4.761   5.618   6.700  0.1926 -0.3410 -1.3413
   80SLPC   C32 7384   4.597   5.583   6.880 -0.0107 -0.5166 -0.0154
   80SLPC   H2X 7385   4.500   5.541   6.847  0.8161 -1.7233 -1.0078
   80SLPC   H2Y 7386   4.594   5.645   6.972  1.2792 -0.8094  0.2428
   80SLPC   C23 7387   4.166   5.720   6.459  0.1055 -0.0927  0.3218
   80SLPC   H3R 7388   4.169   5.666   6.556 -2.5220 -0.6485  0.1754
   80SLPC   H3S 7389   4.187   5.652   6.374 -0.8608  0.0623 -0.0605
   80SLPC   C24 7390   4.022   5.757   6.432  0.3216 -0.3845 -0.2023
   80SLPC   H4R 7391   3.956   5.673   6.404 -1.0714  0.8050 -0.6138
   80SLPC   H4S 7392   4.010   5.819   6.341  1.0054 -1.6174 -1.1543
   80SLPC   C25 7393   3.951   5.818   6.551  0.7630  0.0665  0.3960
   80SLPC   H5R 7394   3.888   5.897   6.506 -0.2397 -1.7066 -1.4934
   80SLPC   H5S 7395   4.017   5.870   6.623 -1.7226  1.7113  1.6322
   80SLPC   C26 7396   3.861   5.725   6.639 -0.3775 -0.2219  0.8196
   80SLPC   H6R 7397   3.927   5.664   6.703  2.5059 -0.7865 -2.3772
   80SLPC   H6S 7398   3.801   5.666   6.565  0.0462  0.1836  0.1393
   80SLPC   C27 7399   3.749   5.801   6.709  0.3419 -0.3872  0.4705
   80SLPC   H7R 7400   3.710   5.873   6.634 -0.6274 -1.2120  0.1640
   80SLPC   H7S 7401   3.783   5.872   6.787 -0.7952 -0.3130  0.9158
   80SLPC   C28 7402   3.644   5.717   6.781 -0.3771  0.3594 -0.1804
   80SLPC   H8R 7403   3.606   5.644   6.706 -0.7013  0.1718  0.1675
   80SLPC   H8S 7404   3.558   5.778   6.815 -0.3459  1.9748 -2.6880
   80SLPC   C29 7405   3.702   5.637   6.901 -0.4248 -0.0625 -0.9632
   80SLPC   H9R 7406   3.723   5.530   6.888 -0.0619 -0.0350 -0.6150
   80SLPC  C210 7407   3.733   5.695   7.023 -0.1868  0.4442  0.7981
   80SLPC  H10R 7408   3.753   5.624   7.105  0.2573  0.6817  0.8983
   80SLPC  C211 7409   3.734   5.838   7.067  0.2823 -0.1477 -0.4444
   80SLPC  H11R 7410   3.681   5.845   7.164  0.5161 -0.3802 -0.3001
   80SLPC  H11S 7411   3.678   5.896   6.990 -0.6682 -1.5908 -0.8779
   80SLPC  C212 7412   3.873   5.880   7.084 -0.4137  0.4096 -0.6324
   80SLPC  H12R 7413   3.953   5.824   7.033 -1.3198  0.8527 -2.6010
   80SLPC  C213 7414   3.901   5.993   7.152 -0.6448 -0.1575  0.5788
   80SLPC  H13R 7415   4.006   6.024   7.157 -0.6503 -0.1324  0.5339
   80SLPC  C214 7416   3.790   6.078   7.207  0.2299 -0.6283 -0.8389
   80SLPC  H14R 7417   3.688   6.077   7.163  0.1097  0.7373 -0.6315
   80SLPC  H14S 7418   3.815   6.183   7.181  0.8764 -0.6814 -0.4458
   80SLPC  C215 7419   3.778   6.066   7.355  1.2639  0.1582 -0.1326
   80SLPC  H15R 7420   3.726   5.969   7.369 -2.7413  1.9777 -1.0107
   80SLPC  H15S 7421   3.692   6.127   7.390  0.3707 -0.8565 -0.5144
   80SLPC  C216 7422   3.902   6.105   7.432 -0.4284 -0.0002 -0.2080
   80SLPC  H16R 7423   3.919   6.215   7.439  0.0381 -0.1586  1.4956
   80SLPC  H16S 7424   3.991   6.057   7.386 -1.2976 -0.3357 -1.6172
   80SLPC  C217 7425   3.896   6.047   7.571 -0.0727 -0.0122  0.7604
   80SLPC  H17R 7426   3.910   5.938   7.552  1.1638  0.1745  0.5353
   80SLPC  H17S 7427   3.797   6.063   7.621  0.1639 -0.2443  1.3184
   80SLPC  C218 7428   4.003   6.116   7.658 -0.0230  0.1199  0.2052
   80SLPC  H18R 7429   4.050   6.205   7.611 -0.4954 -1.1314 -2.9561
   80SLPC  H18S 7430   4.073   6.048   7.712  1.7973  3.2107  2.0101
   80SLPC  H18T 7431   3.952   6.161   7.745  0.5375  0.0964  0.5499
   80SLPC   C33 7432   4.675   5.457   6.911 -0.2052  0.0897 -0.2960
   80SLPC   H3X 7433   4.771   5.486   6.959 -1.0012  0.5984  1.0660
   80SLPC   H3Y 7434   4.680   5.396   6.819 -2.5434  1.0102 -1.1141
   80SLPC   C34 7435   4.608   5.359   7.014  0.4815  0.2766  0.0274
   80SLPC   H4X 7436   4.672   5.270   7.036 -1.5146 -0.9353  1.2244
   80SLPC   H4Y 7437   4.534   5.312   6.946  1.9896  0.2788 -1.7115
   80SLPC   C35 7438   4.556   5.426   7.142  0.2629 -0.0723  0.3646
   80SLPC   H5X 7439   4.487   5.512   7.124  0.0009 -0.6697 -1.7964
   80SLPC   H5Y 7440   4.647   5.467   7.192  0.8536  1.0108 -1.4748
   80SLPC   C36 7441   4.479   5.331   7.242 -0.2410 -0.6869  0.4338
   80SLPC   H6X 7442   4.565   5.265   7.264  1.8570  1.3346 -1.1900
   80SLPC   H6Y 7443   4.406   5.279   7.176 -0.1969  0.1303 -0.2798
   80SLPC   C37 7444   4.411   5.399   7.364 -0.9604 -0.2656  0.8159
   80SLPC   H7X 7445   4.362   5.483   7.311  0.7044  2.0260  2.7551
   80SLPC   H7Y 7446   4.487   5.438   7.433  1.5490 -1.4336 -1.1144
   80SLPC   C38 7447   4.312   5.308   7.431  0.3768  0.4528 -0.1746
   80SLPC   H8X 7448   4.362   5.216   7.467 -1.5129 -1.4108 -2.0054
   80SLPC   H8Y 7449   4.231   5.267   7.367  0.5205  0.4164 -0.3329
   80SLPC   C39 7450   4.256   5.392   7.548  0.3639  0.7284  0.0029
   80SLPC   H9X 7451   4.214   5.488   7.510 -0.9454  0.0034 -0.4524
   80SLPC   H9Y 7452   4.334   5.423   7.621 -1.1788 -0.8754  2.4779
   80SLPC  C310 7453   4.136   5.329   7.630  0.3601  0.3061 -0.1328
   80SLPC  H10X 7454   4.171   5.227   7.658  1.7257  0.2867 -1.7155
   80SLPC  H10Y 7455   4.052   5.330   7.558  0.4475 -0.8672 -0.2799
   80SLPC  C311 7456   4.108   5.406   7.752  0.0390 -0.3981 -0.2441
   80SLPC  H11X 7457   4.092   5.513   7.726 -2.1563 -0.2954  1.2678
   80SLPC  H11Y 7458   4.201   5.416   7.812  0.8511  2.0746 -1.7582
   80SLPC  C312 7459   3.991   5.361   7.842 -0.2376 -0.5468  0.0360
   80SLPC  H12X 7460   4.008   5.252   7.859  1.2348 -0.3201  0.0839
   80SLPC  H12Y 7461   3.895   5.373   7.787  0.6982 -0.7125 -1.7034
   80SLPC  C313 7462   3.986   5.433   7.975  0.4874  0.1631 -0.6440
   80SLPC  H13X 7463   3.990   5.541   7.951 -0.4009  0.9514  2.3660
   80SLPC  H13Y 7464   4.069   5.408   8.044 -0.4041 -0.3392  0.2749
   80SLPC  C314 7465   3.858   5.410   8.059 -0.0907  0.3116  0.1806
   80SLPC  H14X 7466   3.816   5.314   8.022  2.2581  0.0937 -2.1447
   80SLPC  H14Y 7467   3.785   5.484   8.019 -1.6237 -1.2771 -0.0937
   80SLPC  C315 7468   3.875   5.423   8.212  0.1884  0.5629  0.6043
   80SLPC  H15X 7469   3.968   5.368   8.240  0.6393  1.2435  0.4690
   80SLPC  H15Y 7470   3.792   5.377   8.270 -0.6985 -0.6986 -1.5501
   80SLPC  C316 7471   3.886   5.573   8.251  0.6351 -0.1584  0.1835
   80SLPC  H16X 7472   3.805   5.632   8.203  1.2107  0.2916 -0.2391
   80SLPC  H16Y 7473   3.984   5.610   8.215  1.4377 -0.0513  2.3517
   80SLPC  C317 7474   3.871   5.594   8.404 -0.0377  0.7810  0.5983
   80SLPC  H17X 7475   3.955   5.533   8.443  1.1095  0.1497 -2.5771
   80SLPC  H17Y 7476   3.777   5.557   8.449  0.6884 -0.6233  1.0161
   80SLPC  C318 7477   3.886   5.742   8.434 -0.1051 -0.7037  0.0918
   80SLPC  H18X 7478   3.880   5.775   8.540  0.2915 -1.9706  0.5304
   80SLPC  H18Y 7479   3.803   5.806   8.399  0.8069  1.0223  0.9245
   80SLPC  H18Z 7480   3.984   5.783   8.399 -0.2716  0.5663  1.0360
   81SAPS     N 7481   4.346   3.033  10.952 -0.2901 -0.1484 -0.0577
   81SAPS   HN1 7482   4.441   3.009  10.984  0.2920  2.3181  0.3175
   81SAPS   HN2 7483   4.293   3.056  11.038  0.6576 -1.4297  0.9000
   81SAPS   HN3 7484   4.315   2.948  10.901  0.6529 -1.7134  1.8771
   81SAPS   C12 7485   4.358   3.151  10.868  0.2822  0.4902 -0.2332
   81SAPS  H12A 7486   4.264   3.180  10.823 -0.2709  0.9630  1.1963
   81SAPS   C13 7487   4.402   3.276  10.952 -0.2893 -1.1930  0.3403
   81SAPS  O13A 7488   4.443   3.267  11.068  0.0554 -0.5962 -1.2916
   81SAPS  O13B 7489   4.395   3.390  10.896  0.6085  0.4202 -0.0995
   81SAPS   C11 7490   4.443   3.120  10.745  0.3986  0.7975 -0.1031
   81SAPS  H11A 7491   4.451   3.206  10.675  2.1853 -0.4610 -1.5400
   81SAPS  H11B 7492   4.382   3.051  10.682 -1.3437 -1.3213  3.5655
   81SAPS     P 7493   4.643   2.952  10.713 -0.5344 -0.3447  0.0889
   81SAPS   O13 7494   4.783   2.930  10.757 -0.5821  0.0496  0.6790
   81SAPS   O14 7495   4.550   2.838  10.721  0.2861  0.1942 -0.1080
   81SAPS   O12 7496   4.580   3.078  10.781  0.1947  0.7220 -0.8952
   81SAPS   O11 7497   4.648   2.989  10.561  0.4352  0.4837 -0.2325
   81SAPS    C1 7498   4.712   3.104  10.520 -0.3206  0.1332  0.7859
   81SAPS    HA 7499   4.675   3.198  10.568 -1.7393  0.8327 -1.4990
   81SAPS    HB 7500   4.821   3.096  10.538 -0.3485  0.9307  1.3920
   81SAPS    C2 7501   4.690   3.122  10.368 -0.3173  0.7664 -0.4755
   81SAPS    HS 7502   4.777   3.177  10.327  0.9760  0.1180  1.2927
   81SAPS   O21 7503   4.563   3.190  10.350  0.3867 -0.0069  0.4907
   81SAPS   C21 7504   4.573   3.325  10.366  0.7856 -0.1684  0.0316
   81SAPS   O22 7505   4.671   3.387  10.383  0.6071 -0.5040 -0.1157
   81SAPS   C22 7506   4.431   3.381  10.378  0.4896  0.2093 -0.0751
   81SAPS   H2R 7507   4.356   3.324  10.319 -1.1496  1.5635  0.6317
   81SAPS   H2S 7508   4.406   3.368  10.486  1.3718 -1.1721  0.0032
   81SAPS    C3 7509   4.693   2.984  10.284  0.2795 -0.0825 -0.6029
   81SAPS    HX 7510   4.615   2.917  10.327  1.7243 -2.5724 -1.6445
   81SAPS    HY 7511   4.792   2.937  10.305 -1.0394 -1.8741  2.3311
   81SAPS   O31 7512   4.676   2.996  10.142  0.0292 -0.0360  0.4804
   81SAPS   C31 7513   4.545   2.973  10.098  0.7022 -0.0506 -0.2252
   81SAPS   O32 7514   4.457   2.929  10.167  0.1734  0.4275 -0.1743
   81SAPS   C32 7515   4.541   3.013   9.954 -1.2019 -0.5077 -0.3550
   81SAPS   H2X 7516   4.624   2.962   9.900 -0.2459  0.5399  0.0882
   81SAPS   H2Y 7517   4.565   3.121   9.946 -1.8200 -0.4654 -2.3522
   81SAPS   C23 7518   4.404   3.524  10.330  0.0706  0.2570 -0.1403
   81SAPS   H3R 7519   4.469   3.594  10.388 -0.7847  0.9952 -0.0474
   81SAPS   H3S 7520   4.299   3.546  10.357  0.5701  3.3208 -0.3166
   81SAPS   C24 7521   4.409   3.546  10.179  0.2508 -0.3473  0.3464
   81SAPS   H4R 7522   4.358   3.642  10.154  0.0789  0.1502  2.4269
   81SAPS   H4S 7523   4.335   3.473  10.139 -3.1638  2.7434  0.5117
   81SAPS   C25 7524   4.542   3.542  10.123 -0.3992  0.3295 -0.1577
   81SAPS   H5R 7525   4.618   3.590  10.185 -1.3101  2.7192 -0.7894
   81SAPS   C26 7526   4.577   3.489  10.007 -0.9423 -0.1254 -0.0559
   81SAPS   H6R 7527   4.681   3.504   9.976 -1.2875  1.1194 -0.7003
   81SAPS   C27 7528   4.488   3.428   9.896  0.1794  0.2972 -0.2567
   81SAPS   H7R 7529   4.413   3.501   9.858  1.0145  1.1867 -0.2095
   81SAPS   H7S 7530   4.431   3.348   9.949  2.5377 -1.3796 -0.1086
   81SAPS   C28 7531   4.568   3.366   9.784 -0.0989  0.1307 -0.3397
   81SAPS   H8R 7532   4.639   3.292   9.823 -0.8129  0.1859  1.1354
   81SAPS   C29 7533   4.557   3.398   9.656 -0.0653  0.0130 -0.3468
   81SAPS   H9R 7534   4.615   3.337   9.585  0.6195 -0.0607  0.2692
   81SAPS  C210 7535   4.478   3.500   9.578  0.5894  0.5481 -0.2103
   81SAPS  H10R 7536   4.447   3.580   9.650  1.2070  0.4805  0.1392
   81SAPS  H10S 7537   4.388   3.452   9.533 -0.0220 -1.4798  2.8479
   81SAPS  C211 7538   4.564   3.577   9.476  0.1353  0.1371 -0.5634
   81SAPS  H11R 7539   4.638   3.642   9.525  0.2774 -0.3812 -0.0822
   81SAPS  C212 7540   4.568   3.565   9.339 -0.4467 -0.1672 -0.0793
   81SAPS  H12R 7541   4.637   3.634   9.288 -2.5039  1.7068 -0.4538
   81SAPS  C213 7542   4.503   3.466   9.252 -0.3676  0.0616 -0.7732
   81SAPS  H13R 7543   4.434   3.394   9.301  0.3783 -2.2301 -2.8787
   81SAPS  H13S 7544   4.581   3.393   9.222 -0.8092  0.1280 -2.1979
   81SAPS  C214 7545   4.431   3.515   9.128  0.0747 -0.4848  0.5248
   81SAPS  H14R 7546   4.348   3.579   9.159  0.8218 -0.8875  3.7495
   81SAPS  C215 7547   4.456   3.481   8.997  0.6987 -0.5038 -0.0277
   81SAPS  H15R 7548   4.395   3.515   8.912 -1.8528 -2.1017  1.0250
   81SAPS  C216 7549   4.557   3.385   8.942 -0.2878 -0.4818 -0.1968
   81SAPS  H16R 7550   4.612   3.349   9.031 -1.1894  0.7536  0.9057
   81SAPS  H16S 7551   4.623   3.446   8.877 -0.9516  1.1976  0.6375
   81SAPS  C217 7552   4.496   3.282   8.855  0.7444  0.7843  0.2936
   81SAPS  H17R 7553   4.422   3.312   8.778 -0.3473 -0.7148  0.7340
   81SAPS  H17S 7554   4.435   3.213   8.917  1.9830  0.2423  0.9458
   81SAPS  C218 7555   4.603   3.198   8.780 -0.9138  0.1397  0.2169
   81SAPS  H18R 7556   4.655   3.125   8.846  0.6304 -0.8607 -1.9836
   81SAPS  H18S 7557   4.671   3.265   8.723 -1.9587 -0.6148 -2.0263
   81SAPS  C219 7558   4.546   3.105   8.670 -0.6223  0.0801  0.7226
   81SAPS  H19R 7559   4.496   3.177   8.602 -1.2704  0.9360  2.0469
   81SAPS  H19S 7560   4.464   3.040   8.708  0.9037 -0.1036  4.0174
   81SAPS  C220 7561   4.665   3.028   8.604  0.5390 -0.2410 -0.0421
   81SAPS  H20R 7562   4.741   3.098   8.564  2.7875 -2.1786  0.6144
   81SAPS  H20S 7563   4.629   2.946   8.538  1.0001  1.4730 -2.5690
   81SAPS  H20T 7564   4.728   2.984   8.685 -1.5962 -0.4507  1.5953
   81SAPS   C33 7565   4.404   2.974   9.895 -0.3793 -0.0359 -0.3119
   81SAPS   H3X 7566   4.332   3.058   9.893  2.0320  2.1417 -1.6893
   81SAPS   H3Y 7567   4.365   2.887   9.952  1.0332  1.8439  3.8512
   81SAPS   C34 7568   4.414   2.925   9.749  0.1731  0.0024  0.4205
   81SAPS   H4X 7569   4.312   2.894   9.717  0.0009  0.3462  0.6323
   81SAPS   H4Y 7570   4.469   2.829   9.745  1.1190  0.5636 -1.6307
   81SAPS   C35 7571   4.470   3.025   9.649  0.1661 -0.5534  0.5711
   81SAPS   H5X 7572   4.578   3.045   9.664 -0.1002  3.7560 -1.6914
   81SAPS   H5Y 7573   4.406   3.116   9.651 -0.3017 -0.8020 -1.3371
   81SAPS   C36 7574   4.465   2.975   9.507  0.6868 -0.4434 -0.0917
   81SAPS   H6X 7575   4.357   2.955   9.490  0.1029  1.9558  0.4853
   81SAPS   H6Y 7576   4.520   2.882   9.480 -1.1110 -1.0277 -2.0656
   81SAPS   C37 7577   4.508   3.086   9.409 -0.6082 -1.3038 -0.4643
   81SAPS   H7X 7578   4.619   3.086   9.407 -0.5339 -2.4382 -4.3191
   81SAPS   H7Y 7579   4.473   3.190   9.428  0.1829 -0.4901 -3.0964
   81SAPS   C38 7580   4.471   3.064   9.260 -0.3370  0.1929  0.0676
   81SAPS   H8X 7581   4.515   3.147   9.202  1.6190  0.1310  1.3754
   81SAPS   H8Y 7582   4.360   3.057   9.249 -0.4378 -0.8703  1.4533
   81SAPS   C39 7583   4.517   2.927   9.195 -0.1535 -0.3988 -0.1349
   81SAPS   H9X 7584   4.553   2.858   9.274 -0.0095 -2.5856 -1.9715
   81SAPS   H9Y 7585   4.602   2.932   9.124 -1.3684 -1.3978 -1.7422
   81SAPS  C310 7586   4.405   2.854   9.119  0.3344 -0.4320 -0.0652
   81SAPS  H10X 7587   4.314   2.835   9.179  0.4042 -3.0025 -0.6783
   81SAPS  H10Y 7588   4.435   2.753   9.086  0.0613 -0.4817 -0.1702
   81SAPS  C311 7589   4.363   2.919   8.986 -0.1844  0.4243 -0.0434
   81SAPS  H11X 7590   4.440   2.909   8.907 -0.6378  2.7597 -0.8595
   81SAPS  H11Y 7591   4.331   3.024   9.005 -1.7849  0.0252 -0.3669
   81SAPS  C312 7592   4.241   2.842   8.932 -0.1777  0.3474  0.6560
   81SAPS  H12X 7593   4.163   2.842   9.010 -0.3080  2.1616  0.5541
   81SAPS  H12Y 7594   4.271   2.735   8.922 -0.2434  0.1704  2.1723
   81SAPS  C313 7595   4.182   2.884   8.794 -0.4415  0.2275  0.4747
   81SAPS  H13X 7596   4.266   2.883   8.722 -0.5901 -1.9285  0.2782
   81SAPS  H13Y 7597   4.154   2.992   8.795 -1.1300  0.0610 -0.1215
   81SAPS  C314 7598   4.057   2.805   8.754 -0.1988  0.8888 -0.4876
   81SAPS  H14X 7599   3.986   2.815   8.839 -0.5038 -2.9409 -0.1326
   81SAPS  H14Y 7600   4.080   2.696   8.749  0.2630  1.0017 -0.9434
   81SAPS  C315 7601   3.997   2.836   8.622 -0.1897  0.1694 -0.9075
   81SAPS  H15X 7602   3.972   2.944   8.630  0.3363  0.1705  3.8177
   81SAPS  H15Y 7603   3.902   2.780   8.609 -1.8112  2.7471 -0.9320
   81SAPS  C316 7604   4.099   2.826   8.507  0.5269  0.0382  0.2325
   81SAPS  H16X 7605   4.120   2.719   8.485  0.1203  0.2191 -1.1698
   81SAPS  H16Y 7606   4.192   2.885   8.522 -0.2294  1.8880 -1.7588
   81SAPS  C317 7607   4.054   2.884   8.376 -0.0615 -0.2282  0.0498
   81SAPS  H17X 7608   4.143   2.883   8.310  0.6751 -1.3646  1.0124
   81SAPS  H17Y 7609   4.043   2.994   8.388  0.6031 -0.2415  0.8567
   81SAPS  C318 7610   3.926   2.827   8.323 -0.0166 -0.0600  0.0421
   81SAPS  H18X 7611   3.916   2.717   8.328 -0.0767 -0.0173  3.2780
   81SAPS  H18Y 7612   3.891   2.870   8.227  0.5941  0.8739  0.2234
   81SAPS  H18Z 7613   3.844   2.864   8.388  0.0357  0.3284 -0.1091
   82SAPS     N 7614   4.931   0.797  10.849  0.0272  0.0953 -0.4203
   82SAPS   HN1 7615   4.952   0.698  10.825  1.9569  0.8150 -1.9163
   82SAPS   HN2 7616   4.995   0.844  10.782  0.1118  0.3492 -0.1633
   82SAPS   HN3 7617   4.954   0.822  10.947  0.2896 -0.9276 -0.2135
   82SAPS   C12 7618   4.784   0.831  10.829  0.4338 -0.2090 -0.0770
   82SAPS  H12A 7619   4.748   0.763  10.752 -1.9691  1.6649 -0.7361
   82SAPS   C13 7620   4.711   0.816  10.965 -0.0092  0.1122 -0.2589
   82SAPS  O13A 7621   4.782   0.797  11.067  0.1792  0.1653  0.0365
   82SAPS  O13B 7622   4.588   0.834  10.979 -0.1433  0.5447  0.8098
   82SAPS   C11 7623   4.762   0.970  10.775 -0.2215 -0.2105  0.5287
   82SAPS  H11A 7624   4.797   1.034  10.859 -0.2136 -0.6936  0.8942
   82SAPS  H11B 7625   4.659   1.004  10.750  0.0388 -0.3697 -0.8568
   82SAPS     P 7626   4.840   1.129  10.578 -0.1602  0.1106  0.0369
   82SAPS   O13 7627   4.882   1.240  10.662  0.1611  0.1078 -0.6382
   82SAPS   O14 7628   4.917   1.111  10.454  0.0126 -0.1391  0.4185
   82SAPS   O12 7629   4.841   0.983  10.647 -0.0281 -0.3640 -0.9823
   82SAPS   O11 7630   4.691   1.141  10.536  0.4917 -0.4768 -0.1313
   82SAPS    C1 7631   4.628   1.034  10.464 -0.4920 -0.9962  0.5973
   82SAPS    HA 7632   4.670   0.933  10.485  2.0185 -0.5590 -1.6378
   82SAPS    HB 7633   4.518   1.029  10.477 -0.5697  0.1421  0.4172
   82SAPS    C2 7634   4.647   1.071  10.309  0.1357 -0.5481 -0.2381
   82SAPS    HS 7635   4.750   1.106  10.283  0.5792 -0.1572  1.8184
   82SAPS   O21 7636   4.545   1.163  10.265  0.4191  0.8268 -0.0909
   82SAPS   C21 7637   4.569   1.245  10.170 -0.2820  0.4596 -0.0167
   82SAPS   O22 7638   4.677   1.253  10.109  0.4360 -0.0793 -0.5272
   82SAPS   C22 7639   4.448   1.334  10.142 -0.2534  0.9079  0.4233
   82SAPS   H2R 7640   4.400   1.348  10.241  0.3326  2.5564  0.4991
   82SAPS   H2S 7641   4.491   1.431  10.108  1.3729  0.3099  0.6501
   82SAPS    C3 7642   4.630   0.941  10.224 -0.0786  0.1150  0.4365
   82SAPS    HX 7643   4.536   0.884  10.241  1.1541 -2.2757 -0.2921
   82SAPS    HY 7644   4.706   0.875  10.271 -0.9652 -0.8562  0.5557
   82SAPS   O31 7645   4.639   0.966  10.080  0.3124 -0.0434 -0.7092
   82SAPS   C31 7646   4.760   0.947  10.038  0.4963 -0.1055  0.6583
   82SAPS   O32 7647   4.854   0.908  10.107 -0.0628  0.3684  0.3993
   82SAPS   C32 7648   4.764   0.978   9.886 -0.0612 -0.3556  0.6326
   82SAPS   H2X 7649   4.793   0.892   9.822  1.7312 -0.3321  1.3478
   82SAPS   H2Y 7650   4.846   1.052   9.880 -0.1500 -0.3659 -1.0709
   82SAPS   C23 7651   4.363   1.271  10.034 -0.3657  0.7085 -0.6168
   82SAPS   H3R 7652   4.322   1.176  10.075  0.3082  0.4708 -0.4933
   82SAPS   H3S 7653   4.423   1.244   9.945  1.3277 -0.5302  0.8262
   82SAPS   C24 7654   4.234   1.352   9.995  1.4957  0.4689 -0.5522
   82SAPS   H4R 7655   4.194   1.389  10.092 -0.6528  0.8284 -1.5136
   82SAPS   H4S 7656   4.165   1.276   9.952  3.5689 -1.1316 -1.2219
   82SAPS   C25 7657   4.269   1.469   9.908 -0.0890 -0.4071  0.1699
   82SAPS   H5R 7658   4.317   1.555   9.958 -1.9168  0.2819  0.8285
   82SAPS   C26 7659   4.233   1.494   9.783  0.0533 -0.4907 -0.0346
   82SAPS   H6R 7660   4.253   1.594   9.743 -0.5082 -0.7921 -1.0943
   82SAPS   C27 7661   4.153   1.395   9.696  0.8283 -0.2161 -0.2621
   82SAPS   H7R 7662   4.140   1.303   9.757  0.2258 -0.9802 -1.5139
   82SAPS   H7S 7663   4.217   1.348   9.619  1.5797 -0.5724  0.5546
   82SAPS   C28 7664   4.026   1.459   9.645 -0.4844  0.5814 -0.6840
   82SAPS   H8R 7665   3.951   1.486   9.721 -0.1373 -0.3627  0.0205
   82SAPS   C29 7666   3.991   1.474   9.515 -0.6161 -0.0645  0.4974
   82SAPS   H9R 7667   3.892   1.514   9.487 -0.4714  0.0770  0.1905
   82SAPS  C210 7668   4.073   1.420   9.393  0.1848 -0.0664  0.0462
   82SAPS  H10R 7669   4.114   1.322   9.424 -0.9868 -0.1404  1.4866
   82SAPS  H10S 7670   4.160   1.488   9.378  0.1111  0.5541  2.1096
   82SAPS  C211 7671   3.992   1.409   9.267  0.4153  0.6195  0.2044
   82SAPS  H11R 7672   3.921   1.492   9.250 -0.3721  0.1129  0.9112
   82SAPS  C212 7673   3.991   1.307   9.182  0.0579  0.2664 -0.1039
   82SAPS  H12R 7674   3.931   1.318   9.091  0.3872 -2.3473 -0.7102
   82SAPS  C213 7675   4.077   1.182   9.199 -0.4917  0.3845  0.6774
   82SAPS  H13R 7676   4.021   1.104   9.254 -1.1481 -0.7980 -1.5527
   82SAPS  H13S 7677   4.167   1.207   9.260  0.4445 -2.3961  0.5589
   82SAPS  C214 7678   4.106   1.120   9.062  0.1696  0.2051  0.1118
   82SAPS  H14R 7679   4.021   1.115   8.992 -0.4787  0.2615  0.8912
   82SAPS  C215 7680   4.218   1.092   8.997  0.2145  0.0223 -0.4222
   82SAPS  H15R 7681   4.215   1.040   8.900  0.3992  2.0439 -1.5481
   82SAPS  C216 7682   4.356   1.110   9.053 -0.1549  0.2297  0.1894
   82SAPS  H16R 7683   4.364   1.187   9.133 -0.6149 -0.0543  0.5154
   82SAPS  H16S 7684   4.418   1.145   8.968 -1.6202  0.0090 -1.0297
   82SAPS  C217 7685   4.409   0.967   9.084 -0.1577  0.7348 -0.3826
   82SAPS  H17R 7686   4.364   0.888   9.021 -0.1754  1.2046 -0.9805
   82SAPS  H17S 7687   4.377   0.943   9.187 -0.7033  3.0069  0.0418
   82SAPS  C218 7688   4.561   0.961   9.069  0.2795  0.2463 -0.1108
   82SAPS  H18R 7689   4.607   0.929   9.165 -0.8257  0.3108  0.4584
   82SAPS  H18S 7690   4.605   1.061   9.049 -0.5027  0.9397  1.4616
   82SAPS  C219 7691   4.609   0.856   8.971  0.0947  0.7118  0.1400
   82SAPS  H19R 7692   4.576   0.754   9.001  0.8540  0.6922  0.9559
   82SAPS  H19S 7693   4.720   0.859   8.978  0.0791 -0.6367  1.4322
   82SAPS  C220 7694   4.556   0.880   8.825  0.0599 -0.1762 -0.5398
   82SAPS  H20R 7695   4.603   0.818   8.746 -1.3608 -3.2794  0.8859
   82SAPS  H20S 7696   4.567   0.986   8.793  0.5805 -0.1098 -0.1535
   82SAPS  H20T 7697   4.447   0.861   8.818  0.0596 -0.0913 -0.7997
   82SAPS   C33 7698   4.630   1.034   9.820  0.0531 -0.2202 -0.6678
   82SAPS   H3X 7699   4.615   1.137   9.858  0.2541 -0.2817 -0.4210
   82SAPS   H3Y 7700   4.537   0.982   9.852  1.2629 -2.1014 -0.0175
   82SAPS   C34 7701   4.635   1.038   9.667  0.3493  0.2641 -0.1984
   82SAPS   H4X 7702   4.642   0.933   9.633  3.3108  0.5827 -0.8913
   82SAPS   H4Y 7703   4.730   1.081   9.628 -0.0398  0.0524 -1.4154
   82SAPS   C35 7704   4.520   1.114   9.603 -0.3528  0.5286 -0.2973
   82SAPS   H5X 7705   4.503   1.219   9.636 -0.3459 -0.2528  2.4824
   82SAPS   H5Y 7706   4.431   1.058   9.640 -0.9085  0.8682 -1.1034
   82SAPS   C36 7707   4.520   1.106   9.459  0.5966 -0.2336  0.5578
   82SAPS   H6X 7708   4.418   1.104   9.415  0.5510 -1.8743  0.6886
   82SAPS   H6Y 7709   4.566   1.008   9.434  1.8351  0.1995  1.0502
   82SAPS   C37 7710   4.607   1.218   9.396 -0.1733  0.3817 -0.5519
   82SAPS   H7X 7711   4.645   1.175   9.300  1.5333  1.9405 -0.6314
   82SAPS   H7Y 7712   4.701   1.236   9.452 -0.5339  1.3572 -0.2389
   82SAPS   C38 7713   4.528   1.345   9.352  0.0318  1.2525 -0.0833
   82SAPS   H8X 7714   4.491   1.387   9.448 -1.1024 -0.3086  0.2007
   82SAPS   H8Y 7715   4.440   1.332   9.286 -1.2902 -2.2731  2.0800
   82SAPS   C39 7716   4.617   1.461   9.302  0.4397  1.0048  0.5159
   82SAPS   H9X 7717   4.693   1.476   9.381  0.3639  0.1912  0.7560
   82SAPS   H9Y 7718   4.554   1.550   9.280  1.6114  1.2461 -2.2585
   82SAPS  C310 7719   4.683   1.432   9.171 -0.2208 -0.0726  0.1690
   82SAPS  H10X 7720   4.728   1.333   9.191 -1.7104 -0.8059  0.0114
   82SAPS  H10Y 7721   4.762   1.510   9.156 -0.7946  0.8831  1.8995
   82SAPS  C311 7722   4.589   1.418   9.048 -0.2800  0.2706  0.0140
   82SAPS  H11X 7723   4.555   1.518   9.015 -1.3323 -0.1110 -0.0957
   82SAPS  H11Y 7724   4.499   1.356   9.069  0.1089 -0.5116 -0.5406
   82SAPS  C312 7725   4.667   1.369   8.925 -0.5146 -0.6885 -0.8742
   82SAPS  H12X 7726   4.701   1.269   8.959 -1.7257 -0.3065  1.6618
   82SAPS  H12Y 7727   4.751   1.442   8.923 -1.1339  0.0273 -1.1226
   82SAPS  C313 7728   4.585   1.373   8.790  0.1568  0.4551  0.1351
   82SAPS  H13X 7729   4.569   1.480   8.765  1.3530  0.3326 -1.2652
   82SAPS  H13Y 7730   4.488   1.328   8.817  0.7338  1.0659  3.7917
   82SAPS  C314 7731   4.669   1.317   8.679  0.1890 -0.0629 -0.5995
   82SAPS  H14X 7732   4.718   1.221   8.706 -0.1555 -0.4965 -1.4946
   82SAPS  H14Y 7733   4.750   1.392   8.666  1.3385 -1.0807  0.4408
   82SAPS  C315 7734   4.588   1.289   8.555  0.2731  0.8509 -0.5422
   82SAPS  H15X 7735   4.529   1.381   8.535 -1.2556  0.4947  1.9896
   82SAPS  H15Y 7736   4.520   1.203   8.570 -0.5389  1.7876  1.4429
   82SAPS  C316 7737   4.676   1.262   8.427 -0.4638  0.3286  0.4067
   82SAPS  H16X 7738   4.732   1.167   8.443  0.1776  0.9601  2.1160
   82SAPS  H16Y 7739   4.750   1.345   8.429  1.4874 -1.2690 -1.0122
   82SAPS  C317 7740   4.603   1.249   8.296  1.1176  0.1376 -0.1436
   82SAPS  H17X 7741   4.558   1.347   8.273  1.4021  0.2331 -0.2984
   82SAPS  H17Y 7742   4.530   1.166   8.310  2.4805 -0.8503  1.6067
   82SAPS  C318 7743   4.698   1.223   8.181  0.4022  0.1268 -0.2924
   82SAPS  H18X 7744   4.762   1.132   8.188 -0.9874 -0.7606  1.9918
   82SAPS  H18Y 7745   4.769   1.306   8.163  1.3735 -0.4705  0.6159
   82SAPS  H18Z 7746   4.638   1.221   8.087 -1.3781 -0.9666  0.8060
   83SAPS     N 7747   1.114   4.811  10.861 -0.3178  0.1622  0.5946
   83SAPS   HN1 7748   1.217   4.819  10.847 -0.5010  0.8998 -0.4590
   83SAPS   HN2 7749   1.078   4.740  10.793  2.0584  0.1579 -0.7829
   83SAPS   HN3 7750   1.067   4.901  10.840  1.0513  0.8142  0.2254
   83SAPS   C12 7751   1.092   4.753  10.995  0.0588  0.1259  0.2942
   83SAPS  H12A 7752   1.129   4.652  10.993  1.2926  0.5557  0.8930
   83SAPS   C13 7753   1.162   4.836  11.116 -0.5665 -1.1308 -0.3384
   83SAPS  O13A 7754   1.248   4.918  11.093 -0.2984  0.3599  0.0115
   83SAPS  O13B 7755   1.132   4.806  11.237  0.1195 -1.2078  0.4850
   83SAPS   C11 7756   0.943   4.750  11.011  0.0543  0.4951 -0.4287
   83SAPS  H11A 7757   0.901   4.850  11.035  0.2615 -0.0285  2.4681
   83SAPS  H11B 7758   0.923   4.688  11.100 -2.8593  2.3834  0.3848
   83SAPS     P 7759   0.721   4.635  10.922  0.3143  0.0938 -0.3156
   83SAPS   O13 7760   0.732   4.512  11.010  0.0035  0.3378 -0.3106
   83SAPS   O14 7761   0.631   4.744  10.963 -0.1471  0.2091 -0.2304
   83SAPS   O12 7762   0.871   4.687  10.898 -0.1770  0.3114 -0.0433
   83SAPS   O11 7763   0.685   4.581  10.774  0.8051 -0.3487  0.1842
   83SAPS    C1 7764   0.640   4.688  10.678 -0.0093  0.2503  0.5515
   83SAPS    HA 7765   0.537   4.719  10.708 -1.4487 -0.6778 -2.9288
   83SAPS    HB 7766   0.711   4.771  10.661  1.0534 -0.7496 -0.0149
   83SAPS    C2 7767   0.612   4.614  10.539 -1.1141  0.2295  0.1309
   83SAPS    HS 7768   0.550   4.524  10.555 -0.9638 -0.4415 -2.5451
   83SAPS   O21 7769   0.742   4.570  10.487  0.3899  0.7465 -0.2303
   83SAPS   C21 7770   0.741   4.456  10.423 -0.4379  0.0904  0.5899
   83SAPS   O22 7771   0.653   4.374  10.422  0.0198 -0.6174  0.1623
   83SAPS   C22 7772   0.882   4.432  10.374  0.0720  0.8357  0.1068
   83SAPS   H2R 7773   0.937   4.525  10.349 -1.3081  1.7520  0.3304
   83SAPS   H2S 7774   0.936   4.376  10.454 -1.4702  1.3099  1.5520
   83SAPS    C3 7775   0.554   4.703  10.430  0.3341  0.5610  0.4988
   83SAPS    HX 7776   0.624   4.787  10.413  0.4277  0.4329  0.2446
   83SAPS    HY 7777   0.460   4.755  10.458  0.1503  0.9780 -0.8497
   83SAPS   O31 7778   0.543   4.633  10.301  0.0495  0.4152 -0.5126
   83SAPS   C31 7779   0.424   4.586  10.265  0.3645 -0.2473  0.3436
   83SAPS   O32 7780   0.320   4.591  10.324 -0.2769  0.1682  0.0830
   83SAPS   C32 7781   0.433   4.489  10.144  0.3360 -0.1750  0.4271
   83SAPS   H2X 7782   0.337   4.433  10.147  0.0865  0.0396 -1.7806
   83SAPS   H2Y 7783   0.500   4.403  10.166  0.4130 -0.4301 -0.7592
   83SAPS   C23 7784   0.879   4.341  10.247 -0.8880 -0.4133  0.1834
   83SAPS   H3R 7785   0.839   4.238  10.262 -1.1359 -0.4000 -0.3508
   83SAPS   H3S 7786   0.984   4.317  10.222 -0.9045  0.3524 -0.6772
   83SAPS   C24 7787   0.806   4.408  10.129 -0.2202  0.5219 -0.2256
   83SAPS   H4R 7788   0.700   4.422  10.159 -0.4262 -0.1849 -0.6010
   83SAPS   H4S 7789   0.821   4.335  10.047 -1.4612  0.6374 -0.5792
   83SAPS   C25 7790   0.887   4.534  10.085  1.4997  0.1175 -0.0783
   83SAPS   H5R 7791   0.863   4.621  10.148 -2.5532 -1.3485  0.6553
   83SAPS   C26 7792   0.966   4.554   9.977 -0.0630  0.3581  0.0020
   83SAPS   H6R 7793   1.019   4.651   9.980 -0.3746  0.6162 -1.6170
   83SAPS   C27 7794   1.000   4.452   9.869 -0.2608  0.1447 -0.5776
   83SAPS   H7R 7795   0.913   4.384   9.854  0.2008 -0.0617 -2.6685
   83SAPS   H7S 7796   1.089   4.392   9.897  0.9301  1.1789 -1.9886
   83SAPS   C28 7797   1.024   4.521   9.735  0.3576  0.1784 -0.0686
   83SAPS   H8R 7798   1.121   4.567   9.708 -0.1780  0.0276 -2.4837
   83SAPS   C29 7799   0.936   4.525   9.637  0.1547 -0.2918  0.3045
   83SAPS   H9R 7800   0.960   4.587   9.550  3.5585 -0.5163  0.9586
   83SAPS  C210 7801   0.799   4.467   9.633  0.0226 -0.1046 -0.5109
   83SAPS  H10R 7802   0.739   4.528   9.704  1.7253 -1.3521  2.1789
   83SAPS  H10S 7803   0.783   4.370   9.687 -1.1421 -1.2534 -2.7875
   83SAPS  C211 7804   0.733   4.466   9.504 -0.4506  0.2585  0.3045
   83SAPS  H11R 7805   0.644   4.530   9.496 -1.0192 -0.2312  2.0808
   83SAPS  C212 7806   0.766   4.379   9.401  0.1852  0.3988 -0.3178
   83SAPS  H12R 7807   0.700   4.381   9.314  0.7055  0.2863 -0.7208
   83SAPS  C213 7808   0.877   4.274   9.410 -0.4379  0.5159 -0.2974
   83SAPS  H13R 7809   0.825   4.177   9.397 -0.7455  0.8147 -1.4171
   83SAPS  H13S 7810   0.935   4.284   9.504  0.0561 -1.2134 -0.3921
   83SAPS  C214 7811   0.969   4.291   9.289  0.2016 -0.0807 -0.1485
   83SAPS  H14R 7812   1.041   4.374   9.304 -0.5487  0.3202  1.3771
   83SAPS  C215 7813   0.974   4.227   9.171 -0.1949  0.1220 -0.3928
   83SAPS  H15R 7814   1.041   4.258   9.089 -0.4626 -1.1905 -1.1394
   83SAPS  C216 7815   0.875   4.121   9.132 -0.0306 -0.5887  1.2348
   83SAPS  H16R 7816   0.779   4.148   9.181 -0.3795  0.1031  0.1914
   83SAPS  H16S 7817   0.910   4.019   9.160 -1.0800 -1.7049 -1.2605
   83SAPS  C217 7818   0.866   4.112   8.980 -0.8182  0.1991  0.6817
   83SAPS  H17R 7819   0.884   4.215   8.942  1.9088  0.1923  1.7148
   83SAPS  H17S 7820   0.767   4.071   8.951 -1.4279  2.3473 -0.5619
   83SAPS  C218 7821   0.971   4.030   8.906  0.1328  0.3475  0.2943
   83SAPS  H18R 7822   0.980   3.931   8.955 -0.1855  0.2586  0.1747
   83SAPS  H18S 7823   1.072   4.075   8.908 -1.0429  3.1847 -0.1736
   83SAPS  C219 7824   0.935   4.002   8.758  0.0418  0.0597  0.3970
   83SAPS  H19R 7825   0.913   4.108   8.732 -1.0543 -0.0628  0.7494
   83SAPS  H19S 7826   0.843   3.940   8.748  0.5080 -0.6721  0.5843
   83SAPS  C220 7827   1.047   3.930   8.678  0.0728 -0.1821  0.0572
   83SAPS  H20R 7828   1.142   3.987   8.668  0.4774 -0.9406 -0.5423
   83SAPS  H20S 7829   0.992   3.916   8.583 -0.0771  1.9575 -0.2379
   83SAPS  H20T 7830   1.070   3.830   8.720  2.2379 -0.2676 -1.2060
   83SAPS   C33 7831   0.461   4.560  10.009  0.3022  0.5281  0.1300
   83SAPS   H3X 7832   0.570   4.548   9.989 -0.0151  0.0983 -1.5249
   83SAPS   H3Y 7833   0.428   4.666  10.012 -2.5227 -0.1967 -1.8087
   83SAPS   C34 7834   0.380   4.492   9.907 -0.0171  0.5897  0.0666
   83SAPS   H4X 7835   0.273   4.520   9.914  0.1189  0.9717  0.7653
   83SAPS   H4Y 7836   0.375   4.382   9.927 -0.6396  0.4727 -0.6997
   83SAPS   C35 7837   0.426   4.511   9.759 -0.2618  0.4039  0.8903
   83SAPS   H5X 7838   0.500   4.433   9.731  1.7086  3.0055 -1.6908
   83SAPS   H5Y 7839   0.470   4.613   9.754 -1.3535  0.8293 -0.6854
   83SAPS   C36 7840   0.319   4.473   9.657 -0.2057 -0.5824 -0.1192
   83SAPS   H6X 7841   0.242   4.553   9.646  1.9106  1.3439 -2.3006
   83SAPS   H6Y 7842   0.280   4.373   9.684  0.6248 -1.2823 -1.3726
   83SAPS   C37 7843   0.378   4.456   9.517 -0.0587 -0.3208  0.3875
   83SAPS   H7X 7844   0.445   4.368   9.516  4.3561  2.6716 -2.0397
   83SAPS   H7Y 7845   0.437   4.546   9.487 -1.1340  0.8172  1.5693
   83SAPS   C38 7846   0.266   4.431   9.412  0.5933 -0.6366 -0.1117
   83SAPS   H8X 7847   0.189   4.511   9.425  0.9213 -0.7685  3.9705
   83SAPS   H8Y 7848   0.210   4.338   9.436 -0.4852 -0.1164 -0.5530
   83SAPS   C39 7849   0.301   4.440   9.270  0.8415  0.0827 -0.1644
   83SAPS   H9X 7850   0.382   4.366   9.250 -0.4513 -2.0938  2.0470
   83SAPS   H9Y 7851   0.334   4.545   9.257  0.1034  0.7981  2.9957
   83SAPS  C310 7852   0.177   4.426   9.177  0.6646  0.5807 -0.5179
   83SAPS  H10X 7853   0.112   4.511   9.203  0.6324  0.1331  0.9149
   83SAPS  H10Y 7854   0.114   4.336   9.191  0.5169  0.7192 -0.2932
   83SAPS  C311 7855   0.215   4.420   9.034 -0.0405 -0.4093  0.4140
   83SAPS  H11X 7856   0.289   4.342   9.008  1.3399  0.7385  0.7370
   83SAPS  H11Y 7857   0.272   4.511   9.006 -1.5659  0.6889  0.7288
   83SAPS  C312 7858   0.088   4.404   8.942  0.0881  0.4843 -0.3632
   83SAPS  H12X 7859   0.002   4.462   8.983  0.4887 -0.5619  2.1061
   83SAPS  H12Y 7860   0.065   4.296   8.952 -0.1228  0.4847 -0.8066
   83SAPS  C313 7861   0.124   4.437   8.797  0.3696 -0.6808  0.1171
   83SAPS  H13X 7862   0.051   4.391   8.726  1.6862 -1.1898 -0.9343
   83SAPS  H13Y 7863   0.224   4.391   8.785  1.5426  1.0043  2.6113
   83SAPS  C314 7864   0.133   4.591   8.771 -0.1581 -0.0822 -0.2513
   83SAPS  H14X 7865   0.198   4.626   8.854 -0.2643  0.7741 -0.5188
   83SAPS  H14Y 7866   0.030   4.631   8.783  0.0451  0.8275 -1.3693
   83SAPS  C315 7867   0.176   4.624   8.631 -0.1586  0.0883 -1.0032
   83SAPS  H15X 7868   0.102   4.587   8.557 -0.5868 -0.8605 -0.1221
   83SAPS  H15Y 7869   0.259   4.552   8.616  0.5664  0.1570  2.0119
   83SAPS  C316 7870   0.219   4.770   8.610  0.6746 -0.7725  0.4063
   83SAPS  H16X 7871   0.143   4.843   8.647  0.2458 -0.6333 -0.7353
   83SAPS  H16Y 7872   0.237   4.791   8.503  0.7537 -0.1221  0.5426
   83SAPS  C317 7873   0.361   4.800   8.668 -0.7261  0.7168 -0.2829
   83SAPS  H17X 7874   0.361   4.771   8.776  3.3068 -2.5407 -0.9251
   83SAPS  H17Y 7875   0.373   4.911   8.668  0.2115  0.6313  0.5774
   83SAPS  C318 7876   0.481   4.716   8.598 -0.4406 -0.3260  0.1854
   83SAPS  H18X 7877   0.471   4.740   8.490 -0.2860 -0.6115  0.1067
   83SAPS  H18Y 7878   0.465   4.608   8.619  1.0121 -0.5524  0.2000
   83SAPS  H18Z 7879   0.579   4.759   8.630 -0.2510  0.5493 -1.4656
   84SAPS     N 7880   1.202   2.274  11.065  0.1649  0.3786 -0.0334
   84SAPS   HN1 7881   1.256   2.248  11.150 -1.7261 -3.1073  0.2914
   84SAPS   HN2 7882   1.120   2.210  11.071 -0.3022  1.0936  2.5549
   84SAPS   HN3 7883   1.264   2.251  10.985  1.5942  1.1296  0.8106
   84SAPS   C12 7884   1.151   2.415  11.054  0.6696 -0.8116 -0.0382
   84SAPS  H12A 7885   1.095   2.436  11.143 -1.5575  1.0562 -1.7650
   84SAPS   C13 7886   1.262   2.520  11.031 -0.4633  0.2225 -0.4484
   84SAPS  O13A 7887   1.368   2.485  10.981 -0.0320 -0.3956 -0.0564
   84SAPS  O13B 7888   1.236   2.641  11.049  0.2507  0.1019  0.2815
   84SAPS   C11 7889   1.061   2.439  10.920 -0.3159  0.6442  0.1753
   84SAPS  H11A 7890   1.144   2.436  10.846 -0.0535  0.6041  0.4683
   84SAPS  H11B 7891   1.006   2.535  10.918  0.5995  1.3157  3.0692
   84SAPS     P 7892   0.904   2.328  10.757 -0.0599 -0.2517  0.2027
   84SAPS   O13 7893   0.833   2.201  10.726 -0.1107  0.4546  0.4605
   84SAPS   O14 7894   0.826   2.449  10.743 -0.5023  0.2394 -0.1920
   84SAPS   O12 7895   0.964   2.331  10.902 -0.5546 -0.4738 -0.0821
   84SAPS   O11 7896   1.033   2.339  10.660  0.3728 -0.3345  0.0699
   84SAPS    C1 7897   1.120   2.227  10.630  0.5984 -0.1862 -0.6110
   84SAPS    HA 7898   1.225   2.258  10.648  0.5767  0.1217 -1.0152
   84SAPS    HB 7899   1.089   2.136  10.687  1.5563 -1.2069 -1.6702
   84SAPS    C2 7900   1.113   2.189  10.480 -0.2722  0.4193  0.1692
   84SAPS    HS 7901   1.177   2.099  10.466 -0.7087  0.3182 -1.2642
   84SAPS   O21 7902   1.156   2.292  10.390  0.0634  0.3372 -0.1336
   84SAPS   C21 7903   1.282   2.324  10.391  0.7975 -0.1118 -0.0938
   84SAPS   O22 7904   1.369   2.270  10.462 -0.3934  0.9925  0.2793
   84SAPS   C22 7905   1.300   2.437  10.286 -0.6249  0.1252  0.4928
   84SAPS   H2R 7906   1.207   2.439  10.224 -2.0141  0.7556  2.5039
   84SAPS   H2S 7907   1.293   2.534  10.339 -2.5842  2.0867 -2.9089
   84SAPS    C3 7908   0.979   2.136  10.434 -0.2651  0.1205  0.2111
   84SAPS    HX 7909   0.897   2.207  10.459 -1.7933 -1.7555  0.7987
   84SAPS    HY 7910   0.968   2.043  10.495  2.7828 -0.1101  0.5459
   84SAPS   O31 7911   0.982   2.101  10.296 -0.0232  0.7931 -0.4080
   84SAPS   C31 7912   0.867   2.027  10.258 -0.6549 -0.1298  0.0557
   84SAPS   O32 7913   0.778   1.990  10.328 -0.5762 -0.5802 -0.7760
   84SAPS   C32 7914   0.854   2.026  10.100 -0.1594 -0.0148 -1.0899
   84SAPS   H2X 7915   0.762   2.085  10.080 -1.5262 -1.0820  1.4882
   84SAPS   H2Y 7916   0.833   1.920  10.077  0.6857 -0.0937 -1.5347
   84SAPS   C23 7917   1.431   2.420  10.198 -0.3736 -0.1555 -0.0064
   84SAPS   H3R 7918   1.438   2.331  10.131  1.6588 -0.6094  0.7188
   84SAPS   H3S 7919   1.514   2.399  10.269 -0.7131  2.2405  1.1950
   84SAPS   C24 7920   1.456   2.543  10.111 -0.8772 -0.0957  0.3412
   84SAPS   H4R 7921   1.439   2.636  10.171 -3.1163 -0.2756  0.0616
   84SAPS   H4S 7922   1.367   2.552  10.045 -0.2737 -2.2192 -0.8488
   84SAPS   C25 7923   1.592   2.549  10.042  0.0547  0.8602  0.0493
   84SAPS   H5R 7924   1.670   2.503  10.104 -0.8982 -0.2195  0.4713
   84SAPS   C26 7925   1.626   2.606   9.925  0.4065 -0.2483 -0.3688
   84SAPS   H6R 7926   1.733   2.596   9.902  0.9150  0.8848  1.3544
   84SAPS   C27 7927   1.536   2.682   9.827  1.5029  0.1103 -0.0224
   84SAPS   H7R 7928   1.596   2.735   9.750  1.1028  1.5095  0.5867
   84SAPS   H7S 7929   1.485   2.765   9.881 -0.1037 -1.4427  0.9435
   84SAPS   C28 7930   1.427   2.606   9.757 -0.2226 -0.7285  1.0407
   84SAPS   H8R 7931   1.322   2.631   9.780 -0.1857 -0.7292  1.2075
   84SAPS   C29 7932   1.442   2.506   9.676 -0.1605 -0.1680 -0.4321
   84SAPS   H9R 7933   1.355   2.460   9.627 -0.1408 -1.4468  0.6977
   84SAPS  C210 7934   1.571   2.448   9.632  0.1122  0.0837 -0.1500
   84SAPS  H10R 7935   1.663   2.494   9.675  0.6904 -0.2831 -0.9530
   84SAPS  H10S 7936   1.588   2.478   9.526 -0.4595  1.5650  0.1498
   84SAPS  C211 7937   1.579   2.297   9.633 -0.0153  0.0002  0.9847
   84SAPS  H11R 7938   1.646   2.256   9.710 -0.6761  1.1569  2.2239
   84SAPS  C212 7939   1.522   2.218   9.541 -0.7759  0.3180  0.4721
   84SAPS  H12R 7940   1.539   2.109   9.547  2.2244  0.7693  2.2886
   84SAPS  C213 7941   1.443   2.250   9.417 -0.0325 -0.2510 -0.8690
   84SAPS  H13R 7942   1.490   2.335   9.364  1.3118  0.6942  1.6521
   84SAPS  H13S 7943   1.349   2.299   9.450  0.3581  0.7647 -1.2460
   84SAPS  C214 7944   1.423   2.141   9.311 -0.4568  0.1411  0.2104
   84SAPS  H14R 7945   1.371   2.055   9.354  1.8331 -1.3701  0.1120
   84SAPS  C215 7946   1.453   2.138   9.176  0.2767 -0.3388 -0.4930
   84SAPS  H15R 7947   1.430   2.043   9.126 -0.5137  0.3544 -1.4881
   84SAPS  C216 7948   1.514   2.244   9.086  0.0216  0.0956 -0.9703
   84SAPS  H16R 7949   1.624   2.235   9.085  0.2903  2.4552  0.3734
   84SAPS  H16S 7950   1.483   2.344   9.124 -1.1500 -0.2043 -1.0761
   84SAPS  C217 7951   1.463   2.231   8.941 -0.4185 -0.6075  0.3900
   84SAPS  H17R 7952   1.352   2.233   8.944 -0.4148  0.9481  0.7721
   84SAPS  H17S 7953   1.504   2.137   8.899 -1.9229 -0.6469 -1.0498
   84SAPS  C218 7954   1.514   2.352   8.859 -0.0403  0.9005  0.3870
   84SAPS  H18R 7955   1.623   2.363   8.877  0.0189  2.0074 -0.4937
   84SAPS  H18S 7956   1.462   2.445   8.893 -0.9731  0.5629 -0.0719
   84SAPS  C219 7957   1.490   2.333   8.705  0.7678 -0.6742 -1.0337
   84SAPS  H19R 7958   1.444   2.233   8.694 -3.3207  0.9389 -0.4266
   84SAPS  H19S 7959   1.589   2.326   8.656  1.6513  1.5946  0.2565
   84SAPS  C220 7960   1.400   2.441   8.645 -0.1180  0.3484 -0.5663
   84SAPS  H20R 7961   1.327   2.387   8.580 -0.3729  0.4196 -0.3432
   84SAPS  H20S 7962   1.455   2.513   8.581 -0.2258 -0.5791 -1.7309
   84SAPS  H20T 7963   1.334   2.484   8.723 -1.3284  0.6051 -1.6896
   84SAPS   C33 7964   0.974   2.071  10.018 -0.2103 -0.2984  0.1754
   84SAPS   H3X 7965   1.056   2.001  10.044  0.2156  1.2631  3.5128
   84SAPS   H3Y 7966   1.009   2.172  10.048  1.8931 -0.8364 -0.3601
   84SAPS   C34 7967   0.946   2.074   9.871  0.4122  0.0229  0.1277
   84SAPS   H4X 7968   0.869   2.150   9.847 -0.0738  0.0386  1.6397
   84SAPS   H4Y 7969   0.909   1.978   9.829 -1.9310 -0.0813  2.2273
   84SAPS   C35 7970   1.071   2.125   9.798 -0.3808  0.6661 -0.1714
   84SAPS   H5X 7971   1.161   2.060   9.811 -0.4908  0.7151  0.9398
   84SAPS   H5Y 7972   1.107   2.220   9.844 -0.7967  1.8851 -2.2428
   84SAPS   C36 7973   1.058   2.169   9.646 -0.0279  0.0495 -0.2666
   84SAPS   H6X 7974   1.159   2.185   9.603  1.8127 -1.4140  3.1659
   84SAPS   H6Y 7975   1.002   2.265   9.647  0.0891  0.2025  3.0048
   84SAPS   C37 7976   0.981   2.067   9.571 -0.1152 -0.3241  0.6437
   84SAPS   H7X 7977   0.871   2.080   9.584 -0.5983 -2.9569 -0.2442
   84SAPS   H7Y 7978   0.991   1.970   9.624 -2.3957  0.4261  2.5975
   84SAPS   C38 7979   1.012   2.062   9.426 -0.4826  0.5653  0.0035
   84SAPS   H8X 7980   1.121   2.047   9.410  0.1923  1.2147  3.1522
   84SAPS   H8Y 7981   0.999   2.160   9.376  2.9496  0.7067 -0.8891
   84SAPS   C39 7982   0.939   1.948   9.353 -0.1425 -0.1772 -0.6862
   84SAPS   H9X 7983   0.837   1.987   9.334  0.0191  1.3280  1.1206
   84SAPS   H9Y 7984   0.914   1.862   9.418  0.6806 -0.6458 -0.9674
   84SAPS  C310 7985   1.001   1.900   9.226 -0.4900  0.2683 -0.2941
   84SAPS  H10X 7986   0.940   1.816   9.187 -0.3987  0.4628 -0.8710
   84SAPS  H10Y 7987   1.098   1.851   9.247 -1.0790 -1.2000 -0.8561
   84SAPS  C311 7988   1.018   2.009   9.128  0.5700 -0.5665 -0.4240
   84SAPS  H11X 7989   1.094   2.077   9.172 -0.6875 -0.0860  1.1081
   84SAPS  H11Y 7990   0.916   2.047   9.107  0.1500 -1.3234  0.1767
   84SAPS  C312 7991   1.071   1.951   8.996  0.6469 -0.5732 -0.3989
   84SAPS  H12X 7992   1.015   1.858   8.968 -1.7977  1.3035 -2.2901
   84SAPS  H12Y 7993   1.178   1.941   9.022  0.9330  1.2994 -0.7066
   84SAPS  C313 7994   1.081   2.042   8.871 -0.0687 -0.2240  0.6109
   84SAPS  H13X 7995   1.156   2.124   8.876  0.4174 -0.6010 -0.3178
   84SAPS  H13Y 7996   0.982   2.091   8.861 -0.1832 -0.5910 -0.1094
   84SAPS  C314 7997   1.107   1.964   8.743 -0.1525  0.0726  0.0359
   84SAPS  H14X 7998   1.039   1.997   8.661  2.4813 -0.8441 -2.6849
   84SAPS  H14Y 7999   1.076   1.858   8.756  1.2135 -0.0639  3.0008
   84SAPS  C315 8000   1.241   1.979   8.678  0.0512  0.7602 -0.1436
   84SAPS  H15X 8001   1.251   2.089   8.664  2.3545  0.6418  0.1463
   84SAPS  H15Y 8002   1.244   1.946   8.572  2.2656  0.3169  0.0090
   84SAPS  C316 8003   1.354   1.909   8.760  0.4146 -0.3825 -0.2602
   84SAPS  H16X 8004   1.309   1.821   8.811 -0.4370  0.0866 -0.2001
   84SAPS  H16Y 8005   1.392   1.981   8.835 -2.1623 -0.5226  1.2904
   84SAPS  C317 8006   1.475   1.875   8.668  1.0617 -0.0758  0.2537
   84SAPS  H17X 8007   1.513   1.956   8.603 -0.4339 -1.4894 -2.6032
   84SAPS  H17Y 8008   1.435   1.815   8.583 -0.5914  2.4472 -0.8523
   84SAPS  C318 8009   1.584   1.798   8.743  0.5233 -0.1425  0.3733
   84SAPS  H18X 8010   1.620   1.850   8.835 -1.0154 -0.8427  1.4114
   84SAPS  H18Y 8011   1.670   1.784   8.675  0.5539  1.4850  0.0264
   84SAPS  H18Z 8012   1.548   1.700   8.782 -0.9595  0.1107 -0.3022
   85SAPS     N 8013   5.419   6.263  11.020  0.4572  0.7843  0.2119
   85SAPS   HN1 8014   5.424   6.195  11.099  4.0843 -0.0615 -0.5633
   85SAPS   HN2 8015   5.397   6.210  10.933  1.8162  1.2324 -0.4240
   85SAPS   HN3 8016   5.515   6.299  11.004  0.5108  0.1210 -1.0633
   85SAPS   C12 8017   5.317   6.366  11.045 -0.0839 -0.5453  0.5116
   85SAPS  H12A 8018   5.225   6.316  11.070 -1.2441 -0.3505 -2.8905
   85SAPS   C13 8019   5.359   6.454  11.165 -0.1978  0.0904  0.8591
   85SAPS  O13A 8020   5.463   6.420  11.230 -0.7043 -0.9038 -0.4701
   85SAPS  O13B 8021   5.273   6.538  11.208  0.4106 -0.0888  0.2255
   85SAPS   C11 8022   5.290   6.451  10.915 -0.2878  0.5384  0.5285
   85SAPS  H11A 8023   5.210   6.524  10.940 -0.0229  0.8741  0.4200
   85SAPS  H11B 8024   5.244   6.387  10.838  0.1526 -1.8315  2.1077
   85SAPS     P 8025   5.399   6.638  10.771 -0.0099 -0.1919  0.8738
   85SAPS   O13 8026   5.287   6.726  10.821 -0.1681 -0.3698  0.0530
   85SAPS   O14 8027   5.532   6.688  10.742  0.1141 -0.0881 -0.4393
   85SAPS   O12 8028   5.414   6.509  10.862 -0.0427  0.0749  0.1334
   85SAPS   O11 8029   5.344   6.581  10.632 -0.0155 -0.1918 -0.6640
   85SAPS    C1 8030   5.406   6.461  10.594  0.2056 -0.6280 -0.1074
   85SAPS    HA 8031   5.514   6.481  10.577 -0.2185  3.4234  0.8584
   85SAPS    HB 8032   5.378   6.369  10.650  1.6623 -2.1263 -1.7125
   85SAPS    C2 8033   5.359   6.430  10.449 -0.0233 -0.7038  0.2991
   85SAPS    HS 8034   5.393   6.327  10.424  1.9121 -0.3644  1.3253
   85SAPS   O21 8035   5.404   6.537  10.359  0.0567  0.1962  0.5636
   85SAPS   C21 8036   5.414   6.509  10.234 -0.9331  0.1291  0.0000
   85SAPS   O22 8037   5.406   6.397  10.189  0.3664  0.1724 -0.1896
   85SAPS   C22 8038   5.448   6.629  10.158  0.6994 -0.8459  0.0919
   85SAPS   H2R 8039   5.361   6.698  10.171  1.5132  1.2282 -3.8295
   85SAPS   H2S 8040   5.547   6.659  10.197  1.0467 -1.3186 -0.4185
   85SAPS    C3 8041   5.200   6.423  10.431 -0.6299 -0.0573  0.5733
   85SAPS    HX 8042   5.169   6.529  10.444 -2.2401 -0.3744 -0.4569
   85SAPS    HY 8043   5.152   6.356  10.505 -0.3571 -0.2699  0.5623
   85SAPS   O31 8044   5.153   6.375  10.306 -0.3494  0.2572 -0.1854
   85SAPS   C31 8045   5.158   6.246  10.291 -0.5393  0.1800 -0.1607
   85SAPS   O32 8046   5.219   6.169  10.364  0.1874  0.1838  0.4213
   85SAPS   C32 8047   5.074   6.208  10.173  0.2916 -0.1254  0.0633
   85SAPS   H2X 8048   5.004   6.293  10.156  0.3792  0.8248  3.5827
   85SAPS   H2Y 8049   5.021   6.115  10.203  0.5696 -0.2197  0.2714
   85SAPS   C23 8050   5.452   6.592  10.009 -0.6020  0.0257 -0.2111
   85SAPS   H3R 8051   5.349   6.569   9.974 -0.8764  1.6193 -0.5553
   85SAPS   H3S 8052   5.513   6.501   9.994 -2.3169 -1.1025 -0.6144
   85SAPS   C24 8053   5.511   6.707   9.925 -0.6751 -0.2400  1.0554
   85SAPS   H4R 8054   5.512   6.652   9.828 -1.5825 -2.9758  2.4885
   85SAPS   H4S 8055   5.613   6.730   9.962 -0.0405 -0.5938 -0.4195
   85SAPS   C25 8056   5.420   6.831   9.914  0.5669 -0.2100 -0.2063
   85SAPS   H5R 8057   5.399   6.875  10.013 -2.3612 -0.1166 -0.7722
   85SAPS   C26 8058   5.384   6.895   9.802  0.6948  0.1267 -0.1919
   85SAPS   H6R 8059   5.313   6.979   9.790 -0.7639 -1.4340 -4.2388
   85SAPS   C27 8060   5.414   6.847   9.666 -0.3559 -0.1255 -0.4211
   85SAPS   H7R 8061   5.322   6.802   9.624  0.2417 -0.6062 -1.2419
   85SAPS   H7S 8062   5.481   6.758   9.661 -0.3391 -0.0556 -1.7958
   85SAPS   C28 8063   5.476   6.953   9.571 -0.4949  0.6485 -0.8786
   85SAPS   H8R 8064   5.525   7.038   9.621 -2.4280  0.1678  2.1245
   85SAPS   C29 8065   5.455   6.952   9.438  0.5942  0.1129  0.5043
   85SAPS   H9R 8066   5.508   7.027   9.378  1.4500 -1.0181 -0.1793
   85SAPS  C210 8067   5.369   6.864   9.351 -0.2896 -0.6589 -0.0541
   85SAPS  H10R 8068   5.276   6.922   9.333 -0.4482 -0.5659  1.0452
   85SAPS  H10S 8069   5.335   6.778   9.413 -0.7972 -0.1627  0.3553
   85SAPS  C211 8070   5.428   6.822   9.222 -0.3925 -0.1015  0.5326
   85SAPS  H11R 8071   5.509   6.748   9.233  1.0057  0.8624 -2.2019
   85SAPS  C212 8072   5.404   6.859   9.094 -0.3505  0.2697 -0.0250
   85SAPS  H12R 8073   5.474   6.826   9.016  0.9490  0.9275  0.8299
   85SAPS  C213 8074   5.309   6.972   9.049 -0.1287 -0.5633  1.3011
   85SAPS  H13R 8075   5.365   7.067   9.064 -0.3168 -0.2410  0.0416
   85SAPS  H13S 8076   5.217   6.981   9.111 -1.7228 -0.7676 -0.9384
   85SAPS  C214 8077   5.268   6.956   8.900  0.2789  0.0922 -0.3552
   85SAPS  H14R 8078   5.204   6.868   8.884  1.6506 -0.5910 -2.6679
   85SAPS  C215 8079   5.304   7.031   8.796  1.3209  0.3779 -0.5742
   85SAPS  H15R 8080   5.272   7.007   8.694  0.6093  2.0137 -0.7791
   85SAPS  C216 8081   5.394   7.150   8.796  0.8860 -0.2744 -0.3071
   85SAPS  H16R 8082   5.393   7.206   8.892 -3.5093  1.5026 -1.1275
   85SAPS  H16S 8083   5.372   7.229   8.721  2.3931 -0.4930 -1.0123
   85SAPS  C217 8084   5.541   7.114   8.757  0.5300 -0.0612 -0.1502
   85SAPS  H17R 8085   5.542   7.082   8.651  3.9008 -1.9091  0.3120
   85SAPS  H17S 8086   5.583   7.032   8.818  2.1392  2.6570  2.6860
   85SAPS  C218 8087   5.628   7.232   8.771  0.9920 -0.8256 -0.0807
   85SAPS  H18R 8088   5.621   7.283   8.870  0.6543  0.5513 -0.7809
   85SAPS  H18S 8089   5.605   7.313   8.698 -1.7540 -0.8835  0.5980
   85SAPS  C219 8090   5.774   7.199   8.756 -0.4265  0.4562  0.0192
   85SAPS  H19R 8091   5.786   7.125   8.673  1.3535 -0.5354  1.1052
   85SAPS  H19S 8092   5.810   7.151   8.850 -0.0062 -1.2580 -0.9592
   85SAPS  C220 8093   5.873   7.318   8.734  0.6555  0.1859  0.4083
   85SAPS  H20R 8094   5.837   7.370   8.642  0.3812 -0.3915  0.1851
   85SAPS  H20S 8095   5.979   7.289   8.722  0.8275  0.8148  0.3640
   85SAPS  H20T 8096   5.881   7.391   8.817 -1.0652  0.9773 -0.0648
   85SAPS   C33 8097   5.153   6.173  10.044 -0.0995 -0.2234  0.0583
   85SAPS   H3X 8098   5.239   6.107  10.067  0.3936 -0.4481 -2.2451
   85SAPS   H3Y 8099   5.208   6.267  10.021  1.0275 -0.6801  0.8120
   85SAPS   C34 8100   5.069   6.127   9.931  0.1169  0.2830 -0.1563
   85SAPS   H4X 8101   4.985   6.198   9.914 -1.5572 -1.4497  0.5534
   85SAPS   H4Y 8102   5.022   6.030   9.956  0.6237 -0.0312 -0.4205
   85SAPS   C35 8103   5.136   6.109   9.799  0.1310 -0.1667  0.6114
   85SAPS   H5X 8104   5.232   6.056   9.815  0.5719  0.7368  1.0405
   85SAPS   H5Y 8105   5.172   6.209   9.768 -0.1114 -0.3427 -0.2775
   85SAPS   C36 8106   5.049   6.039   9.696 -0.0675 -0.0720 -0.4482
   85SAPS   H6X 8107   4.987   5.959   9.743  0.5675 -0.4361 -0.2165
   85SAPS   H6Y 8108   5.114   6.009   9.611  0.5148  0.8325 -0.3311
   85SAPS   C37 8109   4.954   6.139   9.625 -0.3679 -0.5715  0.2332
   85SAPS   H7X 8110   4.998   6.236   9.597 -3.3175  0.6388 -0.6166
   85SAPS   H7Y 8111   4.870   6.173   9.689 -0.3668 -2.2819  1.2049
   85SAPS   C38 8112   4.894   6.082   9.495 -0.2503 -0.3494 -0.1000
   85SAPS   H8X 8113   4.816   6.156   9.469  1.4762  2.3951  1.9514
   85SAPS   H8Y 8114   4.849   5.983   9.516  2.8240 -1.6543  0.9953
   85SAPS   C39 8115   5.000   6.055   9.383 -0.3575  0.1072 -0.4940
   85SAPS   H9X 8116   5.058   5.964   9.408 -1.3980 -0.6454 -0.7713
   85SAPS   H9Y 8117   5.073   6.138   9.400 -0.2845 -0.2361  1.0736
   85SAPS  C310 8118   4.950   6.052   9.241  0.0073  0.7211  0.8049
   85SAPS  H10X 8119   5.030   6.020   9.170 -0.2731  1.2970  0.2244
   85SAPS  H10Y 8120   4.939   6.159   9.216 -0.6886  0.5436  0.3324
   85SAPS  C311 8121   4.822   5.979   9.236 -0.3700  0.2077  0.1984
   85SAPS  H11X 8122   4.748   6.037   9.296 -0.2492 -0.3692  0.9142
   85SAPS  H11Y 8123   4.838   5.877   9.278  0.6926 -0.0832 -0.8563
   85SAPS  C312 8124   4.758   5.964   9.098  0.9264  0.0787 -0.0995
   85SAPS  H12X 8125   4.737   6.064   9.056  2.3488  1.2919  1.9277
   85SAPS  H12Y 8126   4.667   5.900   9.105  2.0378 -1.3667  3.9448
   85SAPS  C313 8127   4.843   5.880   8.996  0.1014 -0.0834  0.1340
   85SAPS  H13X 8128   4.859   5.776   9.032  1.3626 -0.6197 -1.8004
   85SAPS  H13Y 8129   4.943   5.928   8.984 -0.0340  0.4768  1.1108
   85SAPS  C314 8130   4.772   5.857   8.864 -0.0581 -0.8265  0.2918
   85SAPS  H14X 8131   4.752   5.954   8.814  1.0019  0.3964  2.1122
   85SAPS  H14Y 8132   4.678   5.802   8.888 -0.0820 -0.1168  1.9865
   85SAPS  C315 8133   4.860   5.780   8.772  0.3866 -0.0696  0.6733
   85SAPS  H15X 8134   4.886   5.680   8.813 -0.5992 -0.8525 -0.5194
   85SAPS  H15Y 8135   4.950   5.831   8.732  0.5525 -2.1003 -1.8155
   85SAPS  C316 8136   4.789   5.746   8.648  0.4629 -0.8034  0.0935
   85SAPS  H16X 8137   4.795   5.834   8.579  2.4745  0.5225  1.8113
   85SAPS  H16Y 8138   4.682   5.732   8.675  0.1850  1.1755  0.1592
   85SAPS  C317 8139   4.840   5.625   8.572  0.1512 -0.3010 -0.1875
   85SAPS  H17X 8140   4.851   5.539   8.641  0.8401 -0.4063 -0.4182
   85SAPS  H17Y 8141   4.944   5.659   8.550 -1.2590  3.6731 -1.5641
   85SAPS  C318 8142   4.768   5.591   8.443 -0.0513  0.2373 -0.5139
   85SAPS  H18X 8143   4.821   5.534   8.364  0.8253 -1.8176  1.4281
   85SAPS  H18Y 8144   4.737   5.688   8.399 -0.4374  0.7922  0.9070
   85SAPS  H18Z 8145   4.671   5.541   8.465 -1.8342  3.3190 -0.8646
   86SAPS     N 8146   1.192   5.168  10.996  0.4608 -0.2639  0.2187
   86SAPS   HN1 8147   1.201   5.066  11.012  3.5471 -0.2394 -0.6943
   86SAPS   HN2 8148   1.243   5.208  11.078  0.4237  0.0505  0.0895
   86SAPS   HN3 8149   1.091   5.191  11.008 -0.0712 -0.6876 -2.7895
   86SAPS   C12 8150   1.248   5.213  10.867 -0.3922 -0.3369  0.6205
   86SAPS  H12A 8151   1.179   5.176  10.793 -0.3164  2.0240 -0.7268
   86SAPS   C13 8152   1.275   5.365  10.862  0.5078 -0.0087 -0.8677
   86SAPS  O13A 8153   1.268   5.432  10.968  0.7923 -0.1330  0.5240
   86SAPS  O13B 8154   1.303   5.411  10.752 -0.2475  0.3302  0.1812
   86SAPS   C11 8155   1.387   5.143  10.840 -0.3633  0.0514  0.1475
   86SAPS  H11A 8156   1.457   5.184  10.916 -0.5654  0.6003  0.0360
   86SAPS  H11B 8157   1.427   5.161  10.738  1.9639 -0.6782  0.8479
   86SAPS     P 8158   1.465   4.897  10.809  0.2841  0.3151 -0.1036
   86SAPS   O13 8159   1.588   4.894  10.891 -0.1510 -0.2042  0.9971
   86SAPS   O14 8160   1.381   4.774  10.814 -0.0388  1.0302  0.0601
   86SAPS   O12 8161   1.367   5.001  10.868 -0.1827  0.7492 -0.1880
   86SAPS   O11 8162   1.499   4.938  10.663 -0.5263  0.3111  0.1408
   86SAPS    C1 8163   1.407   4.959  10.555  0.0288 -0.1948  0.1300
   86SAPS    HA 8164   1.343   4.868  10.551  0.7263 -0.7100  0.3653
   86SAPS    HB 8165   1.338   5.045  10.570 -1.8086 -1.3570 -1.3218
   86SAPS    C2 8166   1.483   4.963  10.423  0.8628 -0.5880  0.5545
   86SAPS    HS 8167   1.522   5.066  10.407  0.7915 -0.5996  0.3129
   86SAPS   O21 8168   1.389   4.932  10.312 -0.1718 -0.3743 -0.1862
   86SAPS   C21 8169   1.305   5.027  10.281  0.1064 -0.0252 -0.4979
   86SAPS   O22 8170   1.300   5.137  10.336  0.0605  0.0619 -0.6154
   86SAPS   C22 8171   1.213   4.974  10.167  0.3600  0.5656 -0.0650
   86SAPS   H2R 8172   1.253   4.880  10.123 -0.1394 -0.7104  2.0642
   86SAPS   H2S 8173   1.119   4.954  10.222  1.6334  0.1706  2.0881
   86SAPS    C3 8174   1.591   4.858  10.408 -0.0031  0.3228 -0.0369
   86SAPS    HX 8175   1.540   4.765  10.440  0.4534 -0.2049 -0.7859
   86SAPS    HY 8176   1.672   4.870  10.483  1.0010  1.3108 -1.2205
   86SAPS   O31 8177   1.648   4.847  10.283  0.1317  0.4797 -0.7377
   86SAPS   C31 8178   1.719   4.949  10.241  0.3387  0.6771 -0.3669
   86SAPS   O32 8179   1.751   5.048  10.305 -0.1269  0.4370  0.2643
   86SAPS   C32 8180   1.785   4.911  10.111 -0.5977 -0.7282  0.3102
   86SAPS   H2X 8181   1.716   4.857  10.043 -0.8592  0.9130 -0.7783
   86SAPS   H2Y 8182   1.871   4.840  10.119  0.5966  0.6896  0.4890
   86SAPS   C23 8183   1.179   5.076  10.045  0.3616 -0.0068 -0.3644
   86SAPS   H3R 8184   1.137   5.168  10.092 -0.3418  0.5145 -1.9544
   86SAPS   H3S 8185   1.099   5.020   9.992 -3.6737  2.1004  2.9220
   86SAPS   C24 8186   1.297   5.098   9.955  0.2434  0.2325  0.5355
   86SAPS   H4R 8187   1.344   5.002   9.924 -0.3251 -0.3159  1.3509
   86SAPS   H4S 8188   1.377   5.157  10.005  0.2246  1.7651 -1.1170
   86SAPS   C25 8189   1.235   5.166   9.831 -0.0172 -0.2077 -0.0168
   86SAPS   H5R 8190   1.170   5.253   9.848  0.9286  0.5834 -0.3759
   86SAPS   C26 8191   1.273   5.155   9.706 -0.6156 -0.2757 -0.2579
   86SAPS   H6R 8192   1.229   5.220   9.629  0.1660 -3.4510 -3.6768
   86SAPS   C27 8193   1.378   5.058   9.659  0.2998 -0.2111  0.0120
   86SAPS   H7R 8194   1.374   4.961   9.712  0.9470  0.4157  1.2560
   86SAPS   H7S 8195   1.471   5.104   9.697  0.1570  2.4574 -2.5122
   86SAPS   C28 8196   1.367   5.039   9.507 -0.5040  0.8977 -0.0538
   86SAPS   H8R 8197   1.394   5.126   9.446  2.8705  1.1228  1.5285
   86SAPS   C29 8198   1.336   4.925   9.442  0.2687 -0.2294  0.0603
   86SAPS   H9R 8199   1.333   4.924   9.332 -1.9650  2.1950 -0.0030
   86SAPS  C210 8200   1.298   4.792   9.500 -0.0288  0.4050 -0.5449
   86SAPS  H10R 8201   1.246   4.798   9.598  0.4454  1.2253 -0.3300
   86SAPS  H10S 8202   1.390   4.733   9.520  0.4778  1.8197  1.7547
   86SAPS  C211 8203   1.196   4.720   9.420 -0.0531 -0.3749  0.2458
   86SAPS  H11R 8204   1.095   4.765   9.423 -0.1309 -0.5643  2.1322
   86SAPS  C212 8205   1.212   4.607   9.355 -0.5897  0.8233 -0.2115
   86SAPS  H12R 8206   1.133   4.568   9.288 -0.6115  0.9815 -0.2783
   86SAPS  C213 8207   1.323   4.514   9.351  0.5002 -0.6020 -0.2854
   86SAPS  H13R 8208   1.279   4.415   9.325  0.5612 -0.7342  0.1095
   86SAPS  H13S 8209   1.366   4.497   9.452 -2.1439 -0.1764  1.0043
   86SAPS  C214 8210   1.434   4.562   9.259  0.1174 -0.4071 -0.6664
   86SAPS  H14R 8211   1.513   4.624   9.305  1.4522 -2.5097  0.0330
   86SAPS  C215 8212   1.469   4.507   9.144  0.4622  0.6799 -0.5684
   86SAPS  H15R 8213   1.557   4.531   9.082  0.4067 -2.9921 -2.3176
   86SAPS  C216 8214   1.396   4.395   9.079 -0.4911 -0.5683 -0.2316
   86SAPS  H16R 8215   1.351   4.332   9.159  1.0402  1.5718  2.5022
   86SAPS  H16S 8216   1.473   4.340   9.020 -0.9896 -1.0790 -0.4118
   86SAPS  C217 8217   1.276   4.443   8.995  0.3239  0.2077 -0.1411
   86SAPS  H17R 8218   1.220   4.523   9.047  1.2042 -0.4822  1.9828
   86SAPS  H17S 8219   1.196   4.366   9.003  1.3255 -0.9403 -0.6952
   86SAPS  C218 8220   1.303   4.467   8.852 -0.5674 -0.5793  0.2703
   86SAPS  H18R 8221   1.399   4.524   8.848 -0.1946 -1.2714 -1.3955
   86SAPS  H18S 8222   1.232   4.542   8.813  0.6306  0.9609  0.9173
   86SAPS  C219 8223   1.310   4.336   8.766 -0.0289 -0.1123 -0.1036
   86SAPS  H19R 8224   1.325   4.248   8.833  0.1342 -0.0451 -0.0512
   86SAPS  H19S 8225   1.402   4.347   8.705 -0.4985 -1.3824 -1.0908
   86SAPS  C220 8226   1.184   4.301   8.683  0.2472 -0.2336  0.4566
   86SAPS  H20R 8227   1.201   4.216   8.614  2.3281  0.5435 -0.0740
   86SAPS  H20S 8228   1.175   4.384   8.609  2.3522 -0.2146  0.1380
   86SAPS  H20T 8229   1.090   4.298   8.741 -0.0312  0.1963  0.0351
   86SAPS   C33 8230   1.836   5.046  10.037  0.0684 -0.4890  0.0866
   86SAPS   H3X 8231   1.924   5.085  10.093  0.9739 -0.8247 -1.0584
   86SAPS   H3Y 8232   1.759   5.125  10.034  0.5038  0.0212  1.4832
   86SAPS   C34 8233   1.878   5.016   9.893  0.0016 -0.5281  0.0054
   86SAPS   H4X 8234   1.971   4.955   9.890  1.8914  2.0389  1.6506
   86SAPS   H4Y 8235   1.916   5.106   9.840  1.7026 -2.1103 -1.5958
   86SAPS   C35 8236   1.775   4.961   9.789  0.0467 -0.3258 -0.0155
   86SAPS   H5X 8237   1.696   5.038   9.781 -0.1492 -0.6943 -2.0802
   86SAPS   H5Y 8238   1.717   4.869   9.815 -0.8665  0.7362  1.9516
   86SAPS   C36 8239   1.840   4.938   9.651  0.3864 -0.6133 -0.1552
   86SAPS   H6X 8240   1.886   4.837   9.644  1.0813 -0.2606 -0.8336
   86SAPS   H6Y 8241   1.917   5.011   9.619  2.1746 -2.8598 -1.2617
   86SAPS   C37 8242   1.741   4.947   9.534 -0.8305 -0.7592 -0.4840
   86SAPS   H7X 8243   1.722   5.057   9.537  0.9787 -0.4427  0.5199
   86SAPS   H7Y 8244   1.645   4.893   9.551 -1.0009 -0.8683 -1.6933
   86SAPS   C38 8245   1.804   4.918   9.395 -0.4362  0.2817  0.4116
   86SAPS   H8X 8246   1.849   4.818   9.415 -1.2756 -0.3684 -0.7997
   86SAPS   H8Y 8247   1.883   4.990   9.369 -2.5984  2.9461  0.7670
   86SAPS   C39 8248   1.697   4.901   9.289  0.2133 -0.0282  0.4569
   86SAPS   H9X 8249   1.626   4.986   9.303 -0.6927 -0.7224  0.2141
   86SAPS   H9Y 8250   1.636   4.812   9.318 -1.0823  1.3139  2.0923
   86SAPS  C310 8251   1.746   4.891   9.146 -0.4757  0.0703  0.2663
   86SAPS  H10X 8252   1.810   4.801   9.135 -1.7700 -0.7467 -0.9011
   86SAPS  H10Y 8253   1.809   4.982   9.134 -0.1805 -0.0740  0.6860
   86SAPS  C311 8254   1.643   4.893   9.035  0.9520 -0.0088  0.0972
   86SAPS  H11X 8255   1.587   4.989   9.030  1.0895  0.0717  0.1138
   86SAPS  H11Y 8256   1.573   4.810   9.056 -0.2144  1.0007  0.3117
   86SAPS  C312 8257   1.702   4.850   8.897  0.3270 -0.4063 -0.7895
   86SAPS  H12X 8258   1.768   4.763   8.918 -0.3630 -0.6309  0.5865
   86SAPS  H12Y 8259   1.757   4.938   8.858  0.2066  0.5374  1.0699
   86SAPS  C313 8260   1.602   4.827   8.779  0.4870 -0.3320 -0.4336
   86SAPS  H13X 8261   1.550   4.924   8.762 -2.5165 -2.2698 -4.1210
   86SAPS  H13Y 8262   1.517   4.762   8.810 -0.8736  1.9902  0.9984
   86SAPS  C314 8263   1.668   4.766   8.652 -0.2674 -0.1007 -0.7454
   86SAPS  H14X 8264   1.691   4.661   8.681  0.9186  0.3046 -0.1745
   86SAPS  H14Y 8265   1.769   4.804   8.626 -0.6399  0.2558 -1.7014
   86SAPS  C315 8266   1.591   4.766   8.523 -1.2301 -0.1241 -0.2562
   86SAPS  H15X 8267   1.662   4.721   8.449 -0.2650  1.1186 -0.1152
   86SAPS  H15Y 8268   1.563   4.866   8.485  0.2421  0.1000 -0.8338
   86SAPS  C316 8269   1.470   4.674   8.540  0.1819 -0.0621  0.9467
   86SAPS  H16X 8270   1.402   4.732   8.605 -0.8849 -1.6776  1.3397
   86SAPS  H16Y 8271   1.509   4.582   8.589 -1.3536 -0.8190  0.8057
   86SAPS  C317 8272   1.399   4.641   8.402 -0.6207  0.4745  0.3463
   86SAPS  H17X 8273   1.443   4.705   8.322 -0.7148 -1.2354 -1.1266
   86SAPS  H17Y 8274   1.291   4.660   8.419 -0.9840 -1.0527 -0.1029
   86SAPS  C318 8275   1.416   4.494   8.357  0.1447  0.2200  0.2484
   86SAPS  H18X 8276   1.523   4.464   8.368  0.3524  1.1708  0.9420
   86SAPS  H18Y 8277   1.391   4.480   8.250 -0.2184 -2.1617  0.6025
   86SAPS  H18Z 8278   1.349   4.425   8.412  0.7324 -1.9573 -1.6041
   87SAPS     N 8279   0.612   5.216  11.138  0.5462 -0.5876  0.1664
   87SAPS   HN1 8280   0.619   5.112  11.144  3.0465 -0.8761 -4.0453
   87SAPS   HN2 8281   0.571   5.249  11.228 -0.9021  1.2651 -1.0994
   87SAPS   HN3 8282   0.558   5.240  11.053  0.9768  1.3502  0.3835
   87SAPS   C12 8283   0.749   5.273  11.119  0.3911  0.0993 -0.3315
   87SAPS  H12A 8284   0.741   5.372  11.163 -0.4156 -0.4759  0.8903
   87SAPS   C13 8285   0.857   5.182  11.191 -0.6562 -0.3495 -0.4867
   87SAPS  O13A 8286   0.827   5.077  11.254 -0.3320  0.2410 -0.0184
   87SAPS  O13B 8287   0.977   5.209  11.158  0.1391 -0.3866  0.1896
   87SAPS   C11 8288   0.790   5.273  10.967 -0.3485 -0.2066 -0.2044
   87SAPS  H11A 8289   0.894   5.308  10.956 -0.8349  0.6741 -2.6201
   87SAPS  H11B 8290   0.726   5.342  10.907  1.3582 -1.0713 -3.2252
   87SAPS     P 8291   0.846   5.106  10.773  0.7393 -0.1987  0.2472
   87SAPS   O13 8292   0.944   5.001  10.816 -0.0968 -0.5942  0.3503
   87SAPS   O14 8293   0.748   5.074  10.670 -0.3389  0.1688  0.4203
   87SAPS   O12 8294   0.766   5.146  10.899  0.1569  0.3193 -0.2205
   87SAPS   O11 8295   0.924   5.234  10.725  0.4862 -0.3363 -0.1345
   87SAPS    C1 8296   0.853   5.328  10.643 -0.0139 -0.5634 -0.4634
   87SAPS    HA 8297   0.743   5.316  10.637  0.1799 -2.1930 -1.3291
   87SAPS    HB 8298   0.877   5.427  10.686  2.5864 -0.8391 -1.1331
   87SAPS    C2 8299   0.906   5.332  10.496  0.0262 -0.1132 -0.6428
   87SAPS    HS 8300   0.855   5.409  10.434 -1.8316 -0.1293  0.7408
   87SAPS   O21 8301   0.890   5.202  10.446  0.8726 -0.2339 -0.1218
   87SAPS   C21 8302   0.770   5.196  10.366  0.0977  0.7109 -0.5711
   87SAPS   O22 8303   0.698   5.288  10.354  0.1641  0.0068  0.0558
   87SAPS   C22 8304   0.780   5.070  10.285 -0.4318 -0.2382  0.2588
   87SAPS   H2R 8305   0.887   5.061  10.256 -0.2070  0.6969  0.7426
   87SAPS   H2S 8306   0.760   4.983  10.350  1.2372 -0.1695  0.9119
   87SAPS    C3 8307   1.051   5.380  10.496 -0.7542  0.2325 -0.4540
   87SAPS    HX 8308   1.104   5.310  10.564 -2.1462 -0.1923  0.2388
   87SAPS    HY 8309   1.069   5.477  10.547 -1.0064  0.9434 -1.6713
   87SAPS   O31 8310   1.100   5.383  10.362 -0.0769 -0.5782 -0.2335
   87SAPS   C31 8311   1.066   5.500  10.303  0.6745 -0.2822  0.5009
   87SAPS   O32 8312   0.997   5.587  10.357  0.0270  0.5358  0.2012
   87SAPS   C32 8313   1.116   5.497  10.160 -0.2726 -0.2583 -0.0517
   87SAPS   H2X 8314   1.198   5.423  10.153 -0.0518 -0.1572  1.1833
   87SAPS   H2Y 8315   1.151   5.601  10.142  0.5708 -0.6137 -0.5097
   87SAPS   C23 8316   0.676   5.073  10.169  0.5558 -0.7939 -0.5073
   87SAPS   H3R 8317   0.699   5.157  10.099 -1.5719  1.6613  1.5231
   87SAPS   H3S 8318   0.573   5.077  10.211  0.7366  1.4260 -0.1781
   87SAPS   C24 8319   0.683   4.944  10.087  0.7356 -0.0106  0.0024
   87SAPS   H4R 8320   0.640   4.861  10.148  2.9086  0.5536  2.4682
   87SAPS   H4S 8321   0.792   4.925  10.091  1.1580  2.2855  2.8798
   87SAPS   C25 8322   0.628   4.960   9.945 -0.2219 -0.6597 -1.4912
   87SAPS   H5R 8323   0.536   5.020   9.940  1.1815  1.7604 -0.3736
   87SAPS   C26 8324   0.676   4.917   9.836 -0.8157 -0.2650  0.0244
   87SAPS   H6R 8325   0.622   4.945   9.744 -0.8682  0.1252  0.1713
   87SAPS   C27 8326   0.802   4.835   9.828 -0.9312  0.5724 -0.2152
   87SAPS   H7R 8327   0.782   4.743   9.768  0.6266  0.1768 -0.1760
   87SAPS   H7S 8328   0.838   4.801   9.927 -0.9178  1.8583  0.2373
   87SAPS   C28 8329   0.901   4.916   9.749 -0.3325  0.3419 -0.3199
   87SAPS   H8R 8330   0.989   4.950   9.806 -1.0758 -1.1943  1.8907
   87SAPS   C29 8331   0.898   4.938   9.619  0.5236 -0.9250 -0.5255
   87SAPS   H9R 8332   0.967   5.016   9.583  2.0693 -0.9146  2.2438
   87SAPS  C210 8333   0.791   4.893   9.520  0.4661  0.5350 -0.1891
   87SAPS  H10R 8334   0.747   4.793   9.539 -1.2677  1.2938 -0.0872
   87SAPS  H10S 8335   0.859   4.874   9.433 -0.4312 -1.7101 -0.4696
   87SAPS  C211 8336   0.679   4.987   9.478 -0.9474 -0.4405 -0.2453
   87SAPS  H11R 8337   0.674   5.070   9.549  1.8207  0.3958 -0.9218
   87SAPS  C212 8338   0.588   4.965   9.385  0.0508  0.2234 -0.2946
   87SAPS  H12R 8339   0.507   5.035   9.361 -1.2730 -1.3411 -0.5844
   87SAPS  C213 8340   0.588   4.836   9.300  0.7184 -0.4851 -0.0134
   87SAPS  H13R 8341   0.493   4.786   9.329 -0.4797  0.7999 -1.5473
   87SAPS  H13S 8342   0.674   4.774   9.332  1.9584  0.9302 -0.5152
   87SAPS  C214 8343   0.580   4.844   9.148 -0.2762 -0.4104 -0.3630
   87SAPS  H14R 8344   0.513   4.925   9.115  0.0436 -0.3811 -0.9689
   87SAPS  C215 8345   0.643   4.769   9.054  0.0113  0.2271 -0.1857
   87SAPS  H15R 8346   0.630   4.790   8.947 -0.2926 -0.9780 -0.3959
   87SAPS  C216 8347   0.737   4.657   9.076 -0.9327  0.1397 -0.0565
   87SAPS  H16R 8348   0.786   4.653   9.175  1.4448 -2.1849 -1.1816
   87SAPS  H16S 8349   0.831   4.678   9.020  0.9168 -0.0269  2.8035
   87SAPS  C217 8350   0.678   4.518   9.035 -0.1632  0.4040 -0.1844
   87SAPS  H17R 8351   0.595   4.496   9.104  1.1269 -0.1285  1.2520
   87SAPS  H17S 8352   0.760   4.445   9.050  0.4221  1.4020  1.8326
   87SAPS  C218 8353   0.626   4.513   8.892 -0.6563 -0.3053  0.6882
   87SAPS  H18R 8354   0.703   4.540   8.818 -2.5720  0.8488 -1.0082
   87SAPS  H18S 8355   0.540   4.584   8.889  1.0346  1.9027  1.0675
   87SAPS  C219 8356   0.582   4.368   8.874 -0.2413  0.4738 -0.4248
   87SAPS  H19R 8357   0.504   4.353   8.952  0.5341  0.5053  0.3694
   87SAPS  H19S 8358   0.665   4.295   8.886 -2.4280 -2.1149 -0.2233
   87SAPS  C220 8359   0.517   4.337   8.738 -1.1321 -1.0104  0.2227
   87SAPS  H20R 8360   0.440   4.416   8.722  1.0238  1.3202  0.7144
   87SAPS  H20S 8361   0.469   4.237   8.743 -1.6710 -0.8235 -0.8494
   87SAPS  H20T 8362   0.585   4.336   8.650  0.7180 -1.4448  1.6087
   87SAPS   C33 8363   1.013   5.451  10.061  0.1578  0.0402 -0.6557
   87SAPS   H3X 8364   0.920   5.510  10.078 -0.2725 -0.7240 -0.2840
   87SAPS   H3Y 8365   0.988   5.343  10.063 -0.9996  0.0676  5.5461
   87SAPS   C34 8366   1.067   5.479   9.919  0.3756 -0.2850  0.0644
   87SAPS   H4X 8367   1.163   5.432   9.891 -1.4149 -3.1460 -1.9043
   87SAPS   H4Y 8368   1.075   5.589   9.913  0.1859 -0.2905 -0.3429
   87SAPS   C35 8369   0.968   5.436   9.810 -0.7953 -0.2899 -0.7002
   87SAPS   H5X 8370   0.873   5.486   9.840  0.0568  1.3655 -0.6669
   87SAPS   H5Y 8371   0.951   5.326   9.813  0.2886 -0.4520  1.2352
   87SAPS   C36 8372   1.018   5.479   9.673 -0.1785 -0.0362 -0.6133
   87SAPS   H6X 8373   1.127   5.461   9.661  0.1264 -0.7958  2.4567
   87SAPS   H6Y 8374   0.999   5.588   9.661  0.7903 -0.0694 -2.8007
   87SAPS   C37 8375   0.946   5.408   9.559  0.2809  0.8479  0.5532
   87SAPS   H7X 8376   0.840   5.437   9.573  0.1688  0.8634 -0.2516
   87SAPS   H7Y 8377   0.955   5.297   9.564 -0.9531  0.7337  0.5009
   87SAPS   C38 8378   0.995   5.450   9.419  0.1175 -0.0154 -1.0366
   87SAPS   H8X 8379   1.103   5.425   9.409  0.1116  0.1630 -1.5710
   87SAPS   H8Y 8380   0.983   5.560   9.417 -1.5327 -0.0121  2.3371
   87SAPS   C39 8381   0.931   5.378   9.302  0.7179  0.2435 -0.3384
   87SAPS   H9X 8382   0.922   5.442   9.211 -0.1652  1.6542  0.6984
   87SAPS   H9Y 8383   0.824   5.360   9.328  0.3121  0.6621 -1.5967
   87SAPS  C310 8384   1.002   5.251   9.256  0.0470  0.9786  0.4722
   87SAPS  H10X 8385   0.985   5.185   9.343 -2.1231  1.5888  0.5765
   87SAPS  H10Y 8386   1.107   5.271   9.225  0.2036  0.7359  0.8460
   87SAPS  C311 8387   0.952   5.171   9.136  0.3419  0.1073 -0.1417
   87SAPS  H11X 8388   0.971   5.231   9.045  1.9978 -2.0836 -1.3282
   87SAPS  H11Y 8389   0.844   5.142   9.136  0.8543 -2.0436 -1.7559
   87SAPS  C312 8390   1.039   5.050   9.118 -0.1803 -0.2502 -1.1142
   87SAPS  H12X 8391   1.024   4.981   9.204  0.5880 -1.1276 -1.6606
   87SAPS  H12Y 8392   1.145   5.084   9.115 -0.4422  1.3527  2.3202
   87SAPS  C313 8393   0.993   4.979   8.991 -0.0144  0.4255  0.3809
   87SAPS  H13X 8394   1.004   5.048   8.905 -0.0609  0.0372  0.0576
   87SAPS  H13Y 8395   0.884   4.958   9.001  0.1488 -0.4818  0.3662
   87SAPS  C314 8396   1.070   4.857   8.945 -0.6810  0.4252 -0.0464
   87SAPS  H14X 8397   1.031   4.772   9.005 -1.2501  0.9674  0.3642
   87SAPS  H14Y 8398   1.180   4.853   8.963 -0.8122 -1.3671  0.5432
   87SAPS  C315 8399   1.057   4.811   8.795  0.6675 -0.4970  0.7986
   87SAPS  H15X 8400   1.118   4.719   8.781  0.9787 -0.4193  1.6176
   87SAPS  H15Y 8401   1.085   4.895   8.727 -1.7293  1.2559  1.8248
   87SAPS  C316 8402   0.914   4.784   8.735 -0.0757  1.0134  0.5843
   87SAPS  H16X 8403   0.851   4.875   8.742  1.9877  2.8420 -2.5090
   87SAPS  H16Y 8404   0.866   4.703   8.794 -0.5044 -0.1079 -1.2441
   87SAPS  C317 8405   0.916   4.734   8.588 -0.4383  0.4054  0.1328
   87SAPS  H17X 8406   0.965   4.799   8.513  1.1238 -1.4935 -0.6035
   87SAPS  H17Y 8407   0.810   4.712   8.562 -0.5228 -0.2119  0.9758
   87SAPS  C318 8408   0.990   4.599   8.578  0.5646  0.2563  0.3124
   87SAPS  H18X 8409   0.958   4.541   8.488  3.2262 -0.0660 -0.5073
   87SAPS  H18Y 8410   0.985   4.547   8.675  2.0117 -0.4034  0.0615
   87SAPS  H18Z 8411   1.098   4.614   8.559  0.8361 -1.0292  0.7819
   88SAPS     N 8412   1.231   3.207  11.081 -0.0649  0.2298  0.0771
   88SAPS   HN1 8413   1.227   3.190  11.184 -1.2672 -0.6820 -0.0886
   88SAPS   HN2 8414   1.202   3.305  11.064  0.2939  0.2956 -0.1498
   88SAPS   HN3 8415   1.169   3.138  11.033  0.4232 -0.6431  0.6688
   88SAPS   C12 8416   1.363   3.186  11.023 -0.1750 -0.1575  0.1373
   88SAPS  H12A 8417   1.420   3.275  11.047  0.3345 -0.0647 -1.2794
   88SAPS   C13 8418   1.425   3.050  11.070 -0.2524  0.3106  0.3752
   88SAPS  O13A 8419   1.366   2.980  11.157 -0.1336 -0.3288  0.3811
   88SAPS  O13B 8420   1.549   3.024  11.039  0.4452  0.4122  0.3558
   88SAPS   C11 8421   1.352   3.183  10.867 -0.3209 -0.1142  0.1465
   88SAPS  H11A 8422   1.272   3.110  10.842  0.3447  0.3044 -3.9188
   88SAPS  H11B 8423   1.452   3.150  10.833 -0.1828 -0.2047  0.6382
   88SAPS     P 8424   1.430   3.411  10.760 -0.0811 -0.0705  0.5419
   88SAPS   O13 8425   1.392   3.552  10.755 -0.3105  0.2049  0.0104
   88SAPS   O14 8426   1.553   3.380  10.831 -0.2786 -0.0201  0.7522
   88SAPS   O12 8427   1.312   3.313  10.810  0.2071  0.0246 -0.1166
   88SAPS   O11 8428   1.445   3.354  10.608 -0.3705  0.0077 -0.2581
   88SAPS    C1 8429   1.360   3.390  10.500  0.0331  0.3029 -0.3918
   88SAPS    HA 8430   1.317   3.290  10.480 -1.0689  0.2273  2.0305
   88SAPS    HB 8431   1.275   3.455  10.529  0.9297  1.2926  0.0892
   88SAPS    C2 8432   1.422   3.469  10.383 -0.0057  0.2618 -0.5101
   88SAPS    HS 8433   1.339   3.494  10.314  0.5300  1.5504 -0.7111
   88SAPS   O21 8434   1.532   3.394  10.319  0.1718 -0.1084  0.4688
   88SAPS   C21 8435   1.493   3.285  10.249  0.0697 -0.4113 -0.5500
   88SAPS   O22 8436   1.379   3.251  10.228 -0.3602 -0.1159  0.0333
   88SAPS   C22 8437   1.623   3.225  10.201  0.3509  0.8492 -0.3083
   88SAPS   H2R 8438   1.678   3.307  10.148 -0.0830  0.6246 -1.1197
   88SAPS   H2S 8439   1.695   3.188  10.277 -0.5917  0.7009  0.5224
   88SAPS    C3 8440   1.472   3.603  10.439  0.2993  0.1661  0.1982
   88SAPS    HX 8441   1.533   3.582  10.529 -1.3691  0.4082  1.4278
   88SAPS    HY 8442   1.390   3.668  10.475  1.0434  0.9941  0.4443
   88SAPS   O31 8443   1.557   3.676  10.345  0.7967  0.1762  0.2462
   88SAPS   C31 8444   1.487   3.729  10.249 -0.0922  0.2397 -0.8145
   88SAPS   O32 8445   1.366   3.745  10.246  0.6135  0.2296  0.5894
   88SAPS   C32 8446   1.588   3.779  10.144 -0.1476 -0.1494  0.7945
   88SAPS   H2X 8447   1.697   3.772  10.168  0.2034 -1.1140 -0.9196
   88SAPS   H2Y 8448   1.556   3.884  10.125 -1.1255 -0.5769  0.0345
   88SAPS   C23 8449   1.594   3.101  10.107  0.4579  0.0162  0.1597
   88SAPS   H3R 8450   1.523   3.123  10.024 -0.4012  3.8350  1.6720
   88SAPS   H3S 8451   1.519   3.041  10.163 -2.2617  0.1183 -3.0410
   88SAPS   C24 8452   1.714   3.017  10.057 -0.1566  0.0290 -0.0910
   88SAPS   H4R 8453   1.686   2.928   9.997  0.8861 -1.6048  1.7053
   88SAPS   H4S 8454   1.775   2.969  10.137 -0.3860 -1.6442 -0.8736
   88SAPS   C25 8455   1.813   3.105   9.989 -0.1900  0.2934 -0.7260
   88SAPS   H5R 8456   1.867   3.177  10.053 -0.0078  1.2508 -1.9149
   88SAPS   C26 8457   1.833   3.122   9.861  0.2878  0.2018  0.6987
   88SAPS   H6R 8458   1.908   3.197   9.832  0.8987 -1.0681 -1.1905
   88SAPS   C27 8459   1.768   3.041   9.751  0.8610  0.0693 -0.7656
   88SAPS   H7R 8460   1.723   2.951   9.798  0.3994  1.1339  0.9325
   88SAPS   H7S 8461   1.846   3.004   9.682  2.3420  2.8557 -0.7234
   88SAPS   C28 8462   1.651   3.110   9.678 -0.4221 -0.3380 -0.7012
   88SAPS   H8R 8463   1.605   3.182   9.748  0.0671 -0.1874 -0.5292
   88SAPS   C29 8464   1.604   3.090   9.552 -0.1377  0.1201 -0.0708
   88SAPS   H9R 8465   1.518   3.142   9.506 -1.9029 -1.5444  1.1856
   88SAPS  C210 8466   1.655   2.987   9.458  0.6107 -0.4282  0.2010
   88SAPS  H10R 8467   1.747   2.949   9.507  0.3456  1.0929  1.9904
   88SAPS  H10S 8468   1.691   3.028   9.362 -1.8216  2.8249  0.4961
   88SAPS  C211 8469   1.565   2.867   9.453  0.7084  0.3451  0.3236
   88SAPS  H11R 8470   1.538   2.823   9.550  1.1980 -2.8290 -0.8437
   88SAPS  C212 8471   1.510   2.808   9.352  0.6511  0.5248  0.1432
   88SAPS  H12R 8472   1.428   2.735   9.364  1.2518 -0.1748  0.0968
   88SAPS  C213 8473   1.537   2.850   9.207 -0.1050  0.2337 -0.5272
   88SAPS  H13R 8474   1.642   2.835   9.174  0.5196 -1.3826  1.9715
   88SAPS  H13S 8475   1.492   2.952   9.200 -3.0746 -0.7722  1.6530
   88SAPS  C214 8476   1.452   2.769   9.111  0.2731 -0.1850 -0.1073
   88SAPS  H14R 8477   1.418   2.671   9.146 -2.4517  0.9642  0.7713
   88SAPS  C215 8478   1.397   2.809   8.993 -0.2980  0.2120 -0.0622
   88SAPS  H15R 8479   1.338   2.733   8.940 -0.1095  1.0491 -1.5007
   88SAPS  C216 8480   1.412   2.937   8.921 -0.1359  0.4391 -0.2876
   88SAPS  H16R 8481   1.483   3.007   8.970  1.2245  0.0422 -1.6405
   88SAPS  H16S 8482   1.318   2.996   8.911  0.3191  1.1303 -0.5597
   88SAPS  C217 8483   1.469   2.912   8.789  0.7048 -0.0752  0.3097
   88SAPS  H17R 8484   1.406   2.850   8.723  0.7956 -0.5808  0.6947
   88SAPS  H17S 8485   1.565   2.857   8.790  1.4153  1.0964  1.6827
   88SAPS  C218 8486   1.482   3.051   8.720  0.2877 -0.0055 -0.2184
   88SAPS  H18R 8487   1.553   3.128   8.757  0.7283  0.3045 -1.6326
   88SAPS  H18S 8488   1.384   3.103   8.718  0.0863 -0.3011  1.1896
   88SAPS  C219 8489   1.523   3.029   8.569  0.6460  0.3383  0.0130
   88SAPS  H19R 8490   1.438   2.982   8.516  0.7340 -1.6416  1.4961
   88SAPS  H19S 8491   1.611   2.961   8.573  0.1976 -0.2535 -0.0136
   88SAPS  C220 8492   1.562   3.154   8.495  0.3214 -0.6015 -0.7506
   88SAPS  H20R 8493   1.623   3.210   8.569 -1.2144 -0.4124  0.4267
   88SAPS  H20S 8494   1.486   3.222   8.451  2.6495  0.7011 -3.0476
   88SAPS  H20T 8495   1.617   3.141   8.399 -1.0064 -0.1157 -1.6098
   88SAPS   C33 8496   1.566   3.709  10.002 -0.3443 -0.0432 -0.2733
   88SAPS   H3X 8497   1.634   3.765   9.935 -2.5205 -0.4816 -3.0440
   88SAPS   H3Y 8498   1.463   3.715   9.961 -0.3919  3.4780  0.0730
   88SAPS   C34 8499   1.608   3.555  10.000  1.1264 -0.6280  0.3881
   88SAPS   H4X 8500   1.520   3.503  10.043  0.2149  0.6578  0.1315
   88SAPS   H4Y 8501   1.706   3.531  10.046  2.1805  0.6447 -1.0783
   88SAPS   C35 8502   1.616   3.495   9.861  0.2526 -0.0205 -0.3983
   88SAPS   H5X 8503   1.643   3.388   9.875  0.2298  0.2890  2.6031
   88SAPS   H5Y 8504   1.696   3.549   9.807 -0.4479 -1.2433 -2.8129
   88SAPS   C36 8505   1.484   3.501   9.784 -0.6042 -0.0311 -0.1687
   88SAPS   H6X 8506   1.445   3.605   9.781 -2.0318 -0.5673 -0.6921
   88SAPS   H6Y 8507   1.410   3.436   9.835 -0.1859  0.9281  1.7775
   88SAPS   C37 8508   1.525   3.460   9.643 -0.4305 -0.0670  0.2592
   88SAPS   H7X 8509   1.589   3.370   9.639  0.9838  0.7928  1.9943
   88SAPS   H7Y 8510   1.589   3.540   9.599  0.8172 -0.0241  2.0411
   88SAPS   C38 8511   1.411   3.430   9.559 -0.1237  0.3668  0.2504
   88SAPS   H8X 8512   1.344   3.518   9.548 -0.8122  0.1425  2.2975
   88SAPS   H8Y 8513   1.352   3.347   9.603  0.1034 -0.2900 -0.6519
   88SAPS   C39 8514   1.455   3.391   9.413  0.1462 -0.0773  0.1423
   88SAPS   H9X 8515   1.555   3.345   9.428 -0.2393 -1.1927 -0.5529
   88SAPS   H9Y 8516   1.458   3.488   9.360 -1.9062 -0.7682 -1.3837
   88SAPS  C310 8517   1.364   3.293   9.332 -0.2966 -0.3308  0.7950
   88SAPS  H10X 8518   1.258   3.325   9.325 -1.4308 -3.7212  0.4972
   88SAPS  H10Y 8519   1.354   3.192   9.378 -2.3606 -0.6274 -0.1774
   88SAPS  C311 8520   1.418   3.277   9.193  1.2021 -0.1592 -0.0096
   88SAPS  H11X 8521   1.369   3.185   9.157  0.2945  0.6913 -1.0131
   88SAPS  H11Y 8522   1.528   3.263   9.187  1.1251 -0.0497 -3.0129
   88SAPS  C312 8523   1.362   3.386   9.100  0.0180  0.0611  0.1953
   88SAPS  H12X 8524   1.413   3.480   9.127 -1.2621  0.2883  1.9831
   88SAPS  H12Y 8525   1.253   3.395   9.119 -0.2847  1.3175 -1.8520
   88SAPS  C313 8526   1.378   3.339   8.955 -0.8587  0.6798  0.4071
   88SAPS  H13X 8527   1.338   3.239   8.929 -1.3379  1.4519 -2.1177
   88SAPS  H13Y 8528   1.484   3.319   8.931 -1.0514 -1.5939  1.2299
   88SAPS  C314 8529   1.321   3.433   8.855 -0.0619  1.1117  0.0396
   88SAPS  H14X 8530   1.383   3.525   8.855 -1.4150  2.0959 -2.2225
   88SAPS  H14Y 8531   1.216   3.466   8.870 -0.6719  0.0524 -1.6419
   88SAPS  C315 8532   1.317   3.358   8.708 -0.5287 -0.5251 -1.0243
   88SAPS  H15X 8533   1.249   3.270   8.715 -2.5084  0.8967 -1.5202
   88SAPS  H15Y 8534   1.419   3.324   8.680 -0.8410 -0.5545 -2.2108
   88SAPS  C316 8535   1.255   3.458   8.611 -0.6951 -0.4579  0.3677
   88SAPS  H16X 8536   1.317   3.550   8.606 -1.4049 -0.0493 -3.0439
   88SAPS  H16Y 8537   1.152   3.491   8.639 -1.1016 -2.2815  1.2340
   88SAPS  C317 8538   1.239   3.406   8.467 -0.4543 -0.0572  0.1061
   88SAPS  H17X 8539   1.339   3.395   8.419 -0.0236  0.3427  0.9019
   88SAPS  H17Y 8540   1.185   3.491   8.420 -0.4791 -0.5188 -0.7180
   88SAPS  C318 8541   1.160   3.285   8.442  0.0991 -0.2275 -0.3007
   88SAPS  H18X 8542   1.062   3.293   8.495  0.9276  0.3035  1.2225
   88SAPS  H18Y 8543   1.217   3.198   8.480 -0.6233 -0.1899  0.9346
   88SAPS  H18Z 8544   1.132   3.279   8.335  1.6085  0.0702 -0.7271
   89SAPS     N 8545   2.393   5.964  10.474  0.2329 -0.2444  0.1270
   89SAPS   HN1 8546   2.344   5.882  10.435 -0.6937  0.8278 -1.0321
   89SAPS   HN2 8547   2.369   6.048  10.417  2.7719  0.2445 -0.3391
   89SAPS   HN3 8548   2.495   5.946  10.481  0.2568 -0.0643  0.2797
   89SAPS   C12 8549   2.343   5.977  10.615  0.0671 -0.3366 -0.5409
   89SAPS  H12A 8550   2.372   6.074  10.654  0.3720 -0.6867  0.1234
   89SAPS   C13 8551   2.190   5.974  10.625  0.0583 -0.7026  0.2048
   89SAPS  O13A 8552   2.120   5.971  10.519 -0.7790  0.4794 -0.2076
   89SAPS  O13B 8553   2.137   5.965  10.737 -0.0661 -0.1389 -0.5706
   89SAPS   C11 8554   2.411   5.863  10.703 -0.1824 -0.1644  0.2902
   89SAPS  H11A 8555   2.363   5.769  10.668  2.8201 -0.6031 -3.2068
   89SAPS  H11B 8556   2.401   5.891  10.810 -0.0108 -1.0823  0.5484
   89SAPS     P 8557   2.643   5.738  10.718 -0.1529  0.3646 -0.3285
   89SAPS   O13 8558   2.616   5.714  10.861 -0.3142  0.4534  0.4353
   89SAPS   O14 8559   2.626   5.626  10.630  0.4661 -0.5820  0.4125
   89SAPS   O12 8560   2.554   5.852  10.661 -0.0731  0.1662 -0.3463
   89SAPS   O11 8561   2.796   5.781  10.694  0.8235 -0.4728 -0.0671
   89SAPS    C1 8562   2.841   5.915  10.671  0.5170  0.7638  0.1951
   89SAPS    HA 8563   2.819   5.990  10.750 -0.3771  1.1974 -0.4559
   89SAPS    HB 8564   2.952   5.905  10.674  0.3607 -1.6646  0.2649
   89SAPS    C2 8565   2.803   5.964  10.523 -0.0712  0.7210  0.2242
   89SAPS    HS 8566   2.699   6.002  10.528 -0.2981  0.0502  0.5960
   89SAPS   O21 8567   2.816   5.848  10.431 -0.5055 -0.6024  0.8760
   89SAPS   C21 8568   2.737   5.857  10.325 -0.3008  0.2553 -0.7151
   89SAPS   O22 8569   2.653   5.939  10.304 -1.0189 -0.6066 -0.4039
   89SAPS   C22 8570   2.750   5.737  10.231  0.6493  0.5534 -0.2818
   89SAPS   H2R 8571   2.852   5.693  10.232 -0.3892 -2.0624  1.4753
   89SAPS   H2S 8572   2.667   5.665  10.247  0.7507  1.0601  3.4593
   89SAPS    C3 8573   2.899   6.081  10.493 -0.0085  0.3044 -0.1715
   89SAPS    HX 8574   2.999   6.033  10.494 -0.3414 -0.6125 -2.8152
   89SAPS    HY 8575   2.909   6.160  10.570  0.7882 -0.2165  0.2737
   89SAPS   O31 8576   2.884   6.138  10.362 -0.4309  0.8328  0.2745
   89SAPS   C31 8577   2.785   6.232  10.357  0.0486 -0.7408  0.1264
   89SAPS   O32 8578   2.708   6.261  10.448  0.7237  0.0878 -0.3705
   89SAPS   C32 8579   2.795   6.291  10.213 -0.3273 -0.4765  0.5346
   89SAPS   H2X 8580   2.903   6.304  10.190 -0.6899  1.7293 -0.2098
   89SAPS   H2Y 8581   2.753   6.394  10.217  0.9893  0.0604  1.2086
   89SAPS   C23 8582   2.739   5.788  10.094 -0.0681  0.1191  0.4594
   89SAPS   H3R 8583   2.806   5.877  10.086 -1.9050  1.6707  1.5281
   89SAPS   H3S 8584   2.639   5.825  10.063  0.7985  1.7764 -0.5579
   89SAPS   C24 8585   2.797   5.680  10.000 -0.5212 -0.3005 -0.4108
   89SAPS   H4R 8586   2.899   5.645  10.029 -1.1136 -0.5363  1.5416
   89SAPS   H4S 8587   2.812   5.717   9.896  3.2670 -0.5747 -0.1208
   89SAPS   C25 8588   2.714   5.553   9.983  0.1412 -0.0399 -0.7350
   89SAPS   H5R 8589   2.685   5.499  10.075 -0.1689 -1.8968 -1.8825
   89SAPS   C26 8590   2.655   5.498   9.883 -0.4535  0.1048  1.3612
   89SAPS   H6R 8591   2.599   5.406   9.905  0.7147 -0.7405  0.8968
   89SAPS   C27 8592   2.665   5.547   9.734  0.1556 -0.2055  0.6640
   89SAPS   H7R 8593   2.694   5.653   9.723  0.3214 -0.4067 -1.3137
   89SAPS   H7S 8594   2.562   5.550   9.692  0.8316 -0.0121 -1.0594
   89SAPS   C28 8595   2.765   5.477   9.640 -0.0668  0.8934  0.4887
   89SAPS   H8R 8596   2.852   5.432   9.691  0.3556  1.3503  0.1859
   89SAPS   C29 8597   2.752   5.453   9.509  0.3307 -0.9773  0.2480
   89SAPS   H9R 8598   2.839   5.414   9.453  1.4666 -1.4752  2.2563
   89SAPS  C210 8599   2.633   5.496   9.419  0.1760  0.2715 -0.0879
   89SAPS  H10R 8600   2.591   5.587   9.467  2.2952  0.2346  2.0127
   89SAPS  H10S 8601   2.551   5.421   9.426  1.3384 -1.0661 -0.3067
   89SAPS  C211 8602   2.661   5.532   9.273  0.0610 -0.9545 -0.1858
   89SAPS  H11R 8603   2.645   5.637   9.244  3.0901  0.9903  4.0565
   89SAPS  C212 8604   2.695   5.453   9.168  0.4432 -0.1034 -0.3813
   89SAPS  H12R 8605   2.711   5.501   9.070  1.2391 -0.7723 -0.5913
   89SAPS  C213 8606   2.715   5.302   9.180 -0.1345  0.0459 -0.2907
   89SAPS  H13R 8607   2.681   5.251   9.272 -2.7166 -1.1818 -1.8211
   89SAPS  H13S 8608   2.824   5.282   9.181  0.0257  0.8429 -0.5925
   89SAPS  C214 8609   2.658   5.216   9.071 -0.4778 -0.3855 -0.1069
   89SAPS  H14R 8610   2.550   5.224   9.048  0.0231  1.9077 -2.0839
   89SAPS  C215 8611   2.725   5.130   8.992 -0.4192 -0.0079 -0.3180
   89SAPS  H15R 8612   2.672   5.076   8.911  2.3429 -1.7589 -1.1080
   89SAPS  C216 8613   2.872   5.100   9.000  0.3263 -0.5009  0.1266
   89SAPS  H16R 8614   2.906   5.015   9.064 -0.2037  0.0663  1.1936
   89SAPS  H16S 8615   2.920   5.191   9.041 -1.0387 -0.6042  2.0767
   89SAPS  C217 8616   2.940   5.078   8.868  0.5562 -0.3930  0.0796
   89SAPS  H17R 8617   2.947   5.171   8.808  3.0347 -1.0753 -0.7963
   89SAPS  H17S 8618   2.897   4.994   8.810 -1.5414  1.3963 -1.1607
   89SAPS  C218 8619   3.087   5.058   8.875 -0.5040 -0.2857 -0.6400
   89SAPS  H18R 8620   3.112   4.979   8.949 -1.2649  0.8998  0.9453
   89SAPS  H18S 8621   3.139   5.148   8.914 -1.2482 -1.5406  3.7582
   89SAPS  C219 8622   3.146   5.020   8.741 -0.3692 -0.2375  0.2419
   89SAPS  H19R 8623   3.109   5.094   8.668 -3.8447 -1.2657  0.7829
   89SAPS  H19S 8624   3.098   4.924   8.711  1.3235 -0.4233 -2.1845
   89SAPS  C220 8625   3.293   5.022   8.756 -0.8532 -0.0866  0.3178
   89SAPS  H20R 8626   3.342   4.995   8.661 -0.9956 -0.6128  0.3922
   89SAPS  H20S 8627   3.329   4.940   8.822  0.2746 -1.0928 -1.4856
   89SAPS  H20T 8628   3.327   5.119   8.799  0.8133  0.4426 -1.9884
   89SAPS   C33 8629   2.726   6.202  10.110 -0.1838 -0.1878 -0.1151
   89SAPS   H3X 8630   2.617   6.209  10.127  0.2968  0.7055  3.2831
   89SAPS   H3Y 8631   2.761   6.097  10.110  0.2509 -0.0507 -0.5661
   89SAPS   C34 8632   2.758   6.258   9.969  0.2410 -0.1603 -0.0319
   89SAPS   H4X 8633   2.868   6.262   9.958  0.6364 -4.5030  0.4771
   89SAPS   H4Y 8634   2.726   6.365   9.967  3.4569  0.9644  1.7943
   89SAPS   C35 8635   2.677   6.208   9.846  0.3280  0.6579 -0.0102
   89SAPS   H5X 8636   2.571   6.183   9.870  0.4467  0.4270  0.2743
   89SAPS   H5Y 8637   2.719   6.109   9.817 -0.4953  0.5245 -0.8151
   89SAPS   C36 8638   2.672   6.295   9.721 -0.3233 -0.1997  0.7739
   89SAPS   H6X 8639   2.776   6.319   9.691 -1.0744  0.3797 -1.5834
   89SAPS   H6Y 8640   2.617   6.385   9.755  0.3291 -0.0480  1.4566
   89SAPS   C37 8641   2.619   6.225   9.596  1.3344 -0.7302  0.6182
   89SAPS   H7X 8642   2.508   6.223   9.598  1.0163  4.2145  0.9387
   89SAPS   H7Y 8643   2.660   6.123   9.582 -1.3504 -1.6795 -1.1005
   89SAPS   C38 8644   2.665   6.291   9.460  0.1009  0.3584  0.3816
   89SAPS   H8X 8645   2.769   6.261   9.435  0.6819  3.3411 -1.2138
   89SAPS   H8Y 8646   2.658   6.402   9.451  0.1069  0.5492  2.3428
   89SAPS   C39 8647   2.579   6.244   9.345 -0.1462 -0.1366 -0.0925
   89SAPS   H9X 8648   2.561   6.136   9.363 -0.3369 -0.2373 -0.8630
   89SAPS   H9Y 8649   2.635   6.250   9.249 -2.0008 -0.2296 -1.2332
   89SAPS  C310 8650   2.452   6.322   9.318 -0.0401  0.9317 -0.6358
   89SAPS  H10X 8651   2.487   6.427   9.304  1.7035  0.6314  1.0601
   89SAPS  H10Y 8652   2.387   6.313   9.407 -1.9982  0.6805 -2.0316
   89SAPS  C311 8653   2.365   6.278   9.198 -0.2442  0.1751  0.0228
   89SAPS  H11X 8654   2.287   6.354   9.174  0.8196  0.7089 -2.0618
   89SAPS  H11Y 8655   2.321   6.181   9.229 -0.4128  0.1919 -0.1624
   89SAPS  C312 8656   2.449   6.272   9.067  0.1801  0.1724 -0.0943
   89SAPS  H12X 8657   2.517   6.186   9.052  0.1888  0.5380 -2.6065
   89SAPS  H12Y 8658   2.514   6.362   9.058  0.1153  0.1347 -1.0009
   89SAPS  C313 8659   2.349   6.265   8.946  0.3600 -0.6542 -0.5468
   89SAPS  H13X 8660   2.406   6.302   8.859  0.3681  1.5569  0.3306
   89SAPS  H13Y 8661   2.260   6.330   8.963  0.2947 -1.1088  1.0705
   89SAPS  C314 8662   2.298   6.123   8.930 -0.6163  0.5530  0.7828
   89SAPS  H14X 8663   2.260   6.084   9.027 -0.8388 -1.5236 -0.0904
   89SAPS  H14Y 8664   2.383   6.058   8.900 -0.2966  1.7546 -1.0925
   89SAPS  C315 8665   2.178   6.113   8.837 -0.0584  0.0425 -0.0489
   89SAPS  H15X 8666   2.101   6.188   8.864 -0.7283 -0.1134 -1.4126
   89SAPS  H15Y 8667   2.124   6.017   8.851 -0.0282  0.1095  0.5469
   89SAPS  C316 8668   2.196   6.119   8.686 -0.1563  0.0226 -0.3474
   89SAPS  H16X 8669   2.221   6.226   8.668 -1.5302  0.2511 -1.0167
   89SAPS  H16Y 8670   2.096   6.099   8.642 -2.0856  1.5542  2.9079
   89SAPS  C317 8671   2.310   6.033   8.613  1.0307  0.0174 -0.4197
   89SAPS  H17X 8672   2.298   5.928   8.647  0.5240  0.5938  1.2908
   89SAPS  H17Y 8673   2.406   6.075   8.651  0.4577  2.8131 -1.8058
   89SAPS  C318 8674   2.304   6.054   8.467 -0.9576  0.0850  0.1681
   89SAPS  H18X 8675   2.377   5.997   8.406 -1.5070 -0.7787  0.3076
   89SAPS  H18Y 8676   2.313   6.157   8.427 -0.6705  0.2828  0.7290
   89SAPS  H18Z 8677   2.207   6.018   8.427  0.4715 -2.1083 -1.5809
   90SAPS     N 8678   6.089   3.036  10.959 -0.3584 -0.2746  0.6455
   90SAPS   HN1 8679   6.037   3.114  10.914 -1.1485 -0.8328  0.5712
   90SAPS   HN2 8680   6.167   3.078  11.013  0.9104  0.2140 -1.4515
   90SAPS   HN3 8681   6.122   2.965  10.890 -0.7253  0.5091 -0.3551
   90SAPS   C12 8682   5.981   2.965  11.042 -0.8055 -0.2164  0.6230
   90SAPS  H12A 8683   6.021   2.865  11.055  0.1324 -0.1913 -1.6261
   90SAPS   C13 8684   5.946   3.016  11.180 -0.0196  0.1093 -0.4887
   90SAPS  O13A 8685   6.026   3.095  11.238 -0.3104 -0.1818  0.2338
   90SAPS  O13B 8686   5.864   2.945  11.241 -0.1419 -0.3306 -0.0430
   90SAPS   C11 8687   5.855   2.957  10.956  0.1326 -0.1074  0.3197
   90SAPS  H11A 8688   5.816   3.061  10.960  0.7032  0.0780  1.4372
   90SAPS  H11B 8689   5.769   2.909  11.008 -2.2500  3.7569  0.4074
   90SAPS     P 8690   5.813   2.787  10.753 -0.4475 -0.3407 -0.3481
   90SAPS   O13 8691   5.910   2.678  10.733  0.0151 -0.1411  0.0760
   90SAPS   O14 8692   5.683   2.754  10.810 -0.2628 -0.6025 -0.4528
   90SAPS   O12 8693   5.879   2.917  10.823  0.8040 -0.4501 -0.0279
   90SAPS   O11 8694   5.787   2.838  10.605 -0.8931  0.0873  0.8623
   90SAPS    C1 8695   5.750   2.976  10.587 -0.3485 -0.0400 -0.1450
   90SAPS    HA 8696   5.646   2.987  10.549 -0.8678 -2.2911  0.5185
   90SAPS    HB 8697   5.753   3.041  10.677 -0.7365  2.1220 -1.5960
   90SAPS    C2 8698   5.853   3.045  10.495 -0.1908 -0.6151  0.5399
   90SAPS    HS 8699   5.802   3.133  10.449 -3.2158 -1.2972  2.3033
   90SAPS   O21 8700   5.901   2.948  10.398  0.1510 -0.5094  0.1158
   90SAPS   C21 8701   5.821   2.911  10.303 -0.1354 -0.1813 -0.1241
   90SAPS   O22 8702   5.704   2.948  10.284  0.1034 -0.1786 -0.3038
   90SAPS   C22 8703   5.890   2.809  10.215 -0.9672  0.1704  0.4383
   90SAPS   H2R 8704   5.895   2.848  10.111  2.0263 -1.7279 -0.2539
   90SAPS   H2S 8705   5.988   2.777  10.257 -0.5646 -0.3540 -0.8407
   90SAPS    C3 8706   5.976   3.104  10.571 -0.2885  0.1493 -0.0656
   90SAPS    HX 8707   6.014   3.033  10.648 -0.8183  0.3838  0.4202
   90SAPS    HY 8708   5.931   3.185  10.632 -0.6687 -0.3359  0.3038
   90SAPS   O31 8709   6.079   3.165  10.492 -0.0618 -0.3631 -0.2672
   90SAPS   C31 8710   6.179   3.085  10.455  0.5758  0.5054 -0.1508
   90SAPS   O32 8711   6.201   2.969  10.486  0.3068 -0.1578  0.3169
   90SAPS   C32 8712   6.273   3.161  10.354  0.5003  0.0553 -0.2016
   90SAPS   H2X 8713   6.340   3.079  10.320  2.1170  1.0092  0.5616
   90SAPS   H2Y 8714   6.332   3.236  10.410 -0.0600 -0.2654  0.8391
   90SAPS   C23 8715   5.797   2.689  10.204 -0.6114 -0.2894  0.2147
   90SAPS   H3R 8716   5.699   2.718  10.161  0.3389 -0.8370 -2.4849
   90SAPS   H3S 8717   5.799   2.650  10.308  4.6337  2.1511  1.3925
   90SAPS   C24 8718   5.857   2.588  10.110  1.0747 -0.7336  0.2092
   90SAPS   H4R 8719   5.962   2.573  10.142  1.1891  1.1670  0.8349
   90SAPS   H4S 8720   5.840   2.627  10.007  0.1884 -1.7142 -0.0360
   90SAPS   C25 8721   5.776   2.463  10.117 -0.3859 -1.2224 -0.0035
   90SAPS   H5R 8722   5.751   2.428  10.218 -0.9661  1.4367  0.8666
   90SAPS   C26 8723   5.713   2.404  10.009 -0.4962  0.8843  0.0237
   90SAPS   H6R 8724   5.650   2.316  10.031 -0.1193  0.7565  0.6283
   90SAPS   C27 8725   5.713   2.434   9.861  0.4975 -0.1778  0.2233
   90SAPS   H7R 8726   5.781   2.369   9.801 -0.5914 -0.9418 -0.2285
   90SAPS   H7S 8727   5.751   2.536   9.842  0.5840  0.1872  2.1478
   90SAPS   C28 8728   5.571   2.427   9.799 -0.3956  0.1603  0.7296
   90SAPS   H8R 8729   5.503   2.501   9.843  1.2903  0.6630  2.6657
   90SAPS   C29 8730   5.532   2.342   9.702 -0.1972  0.0447  0.2670
   90SAPS   H9R 8731   5.425   2.331   9.681 -0.1723  2.2345 -1.4343
   90SAPS  C210 8732   5.616   2.241   9.629 -0.3166  0.2624  0.0704
   90SAPS  H10R 8733   5.547   2.167   9.582  0.7528 -0.5453 -0.2548
   90SAPS  H10S 8734   5.685   2.183   9.694 -0.5940  0.3527  0.4503
   90SAPS  C211 8735   5.696   2.305   9.519  0.2665 -0.3907 -0.3875
   90SAPS  H11R 8736   5.709   2.414   9.531  0.6013 -0.3452 -1.0957
   90SAPS  C212 8737   5.739   2.240   9.408 -0.2897 -0.4928 -0.1862
   90SAPS  H12R 8738   5.796   2.301   9.337 -1.0206  0.0244 -0.3459
   90SAPS  C213 8739   5.714   2.099   9.370  0.2608 -0.1264 -0.7735
   90SAPS  H13R 8740   5.626   2.097   9.302  0.4530  0.9346 -1.0684
   90SAPS  H13S 8741   5.688   2.036   9.457 -1.1025  0.3746 -0.8010
   90SAPS  C214 8742   5.836   2.040   9.303 -0.1672  0.5081  0.4191
   90SAPS  H14R 8743   5.924   2.106   9.299 -0.6298  1.1580  0.8725
   90SAPS  C215 8744   5.842   1.919   9.239  0.0266 -0.0837 -0.6827
   90SAPS  H15R 8745   5.938   1.884   9.197  0.3308  2.3772 -2.2515
   90SAPS  C216 8746   5.723   1.824   9.225 -0.4934 -0.2577 -0.3383
   90SAPS  H16R 8747   5.629   1.881   9.237 -0.1408 -0.1039  2.3390
   90SAPS  H16S 8748   5.729   1.746   9.304 -1.5285  0.0103  0.0094
   90SAPS  C217 8749   5.719   1.753   9.088  0.0533  0.3651 -0.0800
   90SAPS  H17R 8750   5.647   1.669   9.103  0.8594 -0.4695 -0.7618
   90SAPS  H17S 8751   5.817   1.705   9.068 -0.3299 -0.2569 -0.5083
   90SAPS  C218 8752   5.672   1.841   8.968  0.2696  0.0641 -0.1976
   90SAPS  H18R 8753   5.749   1.920   8.953  0.8356 -0.2668  0.8846
   90SAPS  H18S 8754   5.577   1.890   9.000  0.4080 -0.0503  0.3901
   90SAPS  C219 8755   5.650   1.765   8.833 -0.7158 -0.3056 -0.6858
   90SAPS  H19R 8756   5.730   1.691   8.813 -0.7672 -0.7368  0.5756
   90SAPS  H19S 8757   5.647   1.835   8.747  0.9816 -0.8199 -1.2150
   90SAPS  C220 8758   5.518   1.702   8.846  0.7703  0.6087 -0.5238
   90SAPS  H20R 8759   5.435   1.776   8.838 -1.0611 -1.1173  1.2030
   90SAPS  H20S 8760   5.512   1.642   8.939 -0.3174  2.6733  0.8181
   90SAPS  H20T 8761   5.496   1.634   8.761 -0.2250  0.7076 -0.3591
   90SAPS   C33 8762   6.195   3.218  10.231  0.1892  0.2253  0.1213
   90SAPS   H3X 8763   6.255   3.308  10.206 -1.5280  2.9806  4.5745
   90SAPS   H3Y 8764   6.103   3.264  10.274 -0.4293 -1.6545  0.8900
   90SAPS   C34 8765   6.153   3.123  10.123 -0.6137 -0.1148  0.6321
   90SAPS   H4X 8766   6.091   3.046  10.174  0.4193 -0.7705  0.9324
   90SAPS   H4Y 8767   6.243   3.070  10.085 -0.3600 -0.4696  1.6929
   90SAPS   C35 8768   6.086   3.211  10.015  0.1881  0.0685 -0.5396
   90SAPS   H5X 8769   6.165   3.284   9.988  0.8426  0.3577  1.9150
   90SAPS   H5Y 8770   6.005   3.266  10.068  0.2725 -1.4274  1.2301
   90SAPS   C36 8771   6.022   3.131   9.896  0.4530 -0.1924 -0.3781
   90SAPS   H6X 8772   5.935   3.073   9.934 -0.7449  1.5285 -0.3913
   90SAPS   H6Y 8773   6.095   3.054   9.863 -1.4234 -1.8343 -0.8425
   90SAPS   C37 8774   5.970   3.223   9.789  0.7774 -0.5256  0.9393
   90SAPS   H7X 8775   6.041   3.291   9.738 -2.1172  0.7741 -1.6633
   90SAPS   H7Y 8776   5.892   3.287   9.836  0.3804  1.1686 -1.7925
   90SAPS   C38 8777   5.906   3.159   9.662  0.4991 -0.1371  0.0111
   90SAPS   H8X 8778   5.809   3.109   9.685  0.0209  1.1925  1.0040
   90SAPS   H8Y 8779   5.975   3.081   9.623  0.6737  0.2321 -0.4207
   90SAPS   C39 8780   5.880   3.256   9.549 -0.0417  0.0951  0.2483
   90SAPS   H9X 8781   5.980   3.296   9.521  0.2718  0.0122  1.1933
   90SAPS   H9Y 8782   5.825   3.342   9.591  0.7408  0.0613  1.3868
   90SAPS  C310 8783   5.815   3.192   9.422  0.0664  0.2180  0.6153
   90SAPS  H10X 8784   5.719   3.145   9.455  0.6801 -0.8333  0.9474
   90SAPS  H10Y 8785   5.871   3.103   9.387  2.6593  1.9476  0.1100
   90SAPS  C311 8786   5.773   3.296   9.313 -0.1291 -0.0160 -0.1181
   90SAPS  H11X 8787   5.866   3.354   9.292  1.0428 -2.5727 -2.6009
   90SAPS  H11Y 8788   5.707   3.368   9.367  1.4863  0.6091  1.1022
   90SAPS  C312 8789   5.713   3.220   9.199  0.1885  0.2616 -0.3329
   90SAPS  H12X 8790   5.621   3.171   9.237 -0.2482  1.2647 -0.0895
   90SAPS  H12Y 8791   5.786   3.142   9.166  2.2903  2.8243 -2.1594
   90SAPS  C313 8792   5.680   3.304   9.079  0.4822 -0.7466 -0.5457
   90SAPS  H13X 8793   5.654   3.246   8.988 -3.3790 -0.0084 -0.0932
   90SAPS  H13Y 8794   5.767   3.368   9.051  0.1987 -0.5082 -0.8969
   90SAPS  C314 8795   5.555   3.396   9.099  0.4684  0.1942  0.0130
   90SAPS  H14X 8796   5.570   3.456   9.192 -0.3591 -2.4522  1.9783
   90SAPS  H14Y 8797   5.472   3.329   9.131  0.0705  0.7115  0.0876
   90SAPS  C315 8798   5.501   3.469   8.983  0.5047 -0.1082 -1.1299
   90SAPS  H15X 8799   5.584   3.532   8.946  0.5509  0.0941 -0.6874
   90SAPS  H15Y 8800   5.416   3.534   9.014 -1.3441 -2.4949 -0.8622
   90SAPS  C316 8801   5.466   3.394   8.861  0.4921 -0.1270 -0.1208
   90SAPS  H16X 8802   5.378   3.329   8.883 -1.1632  1.7436 -0.9225
   90SAPS  H16Y 8803   5.547   3.328   8.824  0.6233 -0.4276  0.6776
   90SAPS  C317 8804   5.420   3.479   8.745  0.4375  0.2255  0.3858
   90SAPS  H17X 8805   5.392   3.409   8.663 -2.1643 -0.1410  1.5091
   90SAPS  H17Y 8806   5.502   3.541   8.702  1.3690  0.2245  2.0708
   90SAPS  C318 8807   5.300   3.578   8.768  0.6184 -0.1688  0.7321
   90SAPS  H18X 8808   5.334   3.661   8.834  3.6775 -2.8149  2.8161
   90SAPS  H18Y 8809   5.217   3.523   8.818  0.7216 -2.5535 -1.4956
   90SAPS  H18Z 8810   5.279   3.613   8.665 -0.3181 -1.0545  0.6093
   91SAPS     N 8811   3.705   3.090   5.832 -0.5439  0.0624 -0.0658
   91SAPS   HN1 8812   3.610   3.104   5.792 -0.0546 -1.5787 -1.9728
   91SAPS   HN2 8813   3.726   3.166   5.900 -1.8918  2.0673 -1.7856
   91SAPS   HN3 8814   3.775   3.093   5.756 -0.4815 -1.0423 -0.0721
   91SAPS   C12 8815   3.709   2.948   5.890  0.2104  0.6536 -0.3576
   91SAPS  H12A 8816   3.680   2.889   5.805 -1.4858  2.5658 -1.1994
   91SAPS   C13 8817   3.847   2.899   5.949 -0.3482 -0.2880 -0.1067
   91SAPS  O13A 8818   3.956   2.962   5.926  0.1511 -0.3862  0.2058
   91SAPS  O13B 8819   3.854   2.791   6.004 -0.1932 -0.1910 -0.9140
   91SAPS   C11 8820   3.584   2.929   5.985 -0.1536 -0.1646 -0.6347
   91SAPS  H11A 8821   3.608   3.001   6.066  1.2952  1.1037 -2.1063
   91SAPS  H11B 8822   3.590   2.822   6.014  1.3433 -0.5164 -2.0724
   91SAPS     P 8823   3.326   2.924   5.993 -0.5424  0.2350 -0.1118
   91SAPS   O13 8824   3.224   3.016   5.947 -0.5240  0.3550  0.9381
   91SAPS   O14 8825   3.298   2.774   5.970  0.2398 -0.3411 -0.5418
   91SAPS   O12 8826   3.463   2.961   5.930  0.8050 -0.0485 -0.8434
   91SAPS   O11 8827   3.353   2.942   6.149 -0.1505  0.3448  0.1982
   91SAPS    C1 8828   3.311   2.848   6.251  0.1402 -0.5603  0.1770
   91SAPS    HA 8829   3.342   2.747   6.215  1.6088  1.0575 -3.5994
   91SAPS    HB 8830   3.364   2.862   6.347  0.0215  0.0016  0.1620
   91SAPS    C2 8831   3.159   2.861   6.269 -0.3635 -0.0260 -0.1097
   91SAPS    HS 8832   3.102   2.839   6.176 -1.1466  0.1850  0.3158
   91SAPS   O21 8833   3.129   3.005   6.313 -0.1903  0.3075  1.0283
   91SAPS   C21 8834   2.998   3.031   6.304 -0.5171 -0.7356  0.6285
   91SAPS   O22 8835   2.910   2.955   6.266  0.1645  0.4964  0.1748
   91SAPS   C22 8836   2.978   3.173   6.349 -0.1907 -0.2469 -0.0348
   91SAPS   H2R 8837   3.066   3.212   6.405 -0.5286 -0.8602  0.9419
   91SAPS   H2S 8838   2.975   3.233   6.256 -1.1776  0.3575  0.3660
   91SAPS    C3 8839   3.095   2.755   6.363  0.3875  0.0626 -0.3527
   91SAPS    HX 8840   3.131   2.655   6.330 -1.0658 -0.3523 -0.7415
   91SAPS    HY 8841   2.987   2.748   6.338  0.6471 -0.2635 -1.4273
   91SAPS   O31 8842   3.113   2.789   6.503 -0.2584 -0.6584  0.2406
   91SAPS   C31 8843   3.224   2.746   6.563 -0.2674  0.0974 -0.3315
   91SAPS   O32 8844   3.303   2.671   6.508 -0.5992  0.4027  0.3200
   91SAPS   C32 8845   3.221   2.794   6.712  0.1117 -0.8165  0.4948
   91SAPS   H2X 8846   3.124   2.763   6.756 -0.7499  3.0208  1.7325
   91SAPS   H2Y 8847   3.208   2.904   6.699 -0.3338 -0.8985  0.2090
   91SAPS   C23 8848   2.851   3.201   6.430 -0.3821  0.7635 -0.5721
   91SAPS   H3R 8849   2.762   3.169   6.372 -1.5899 -2.2413  2.6075
   91SAPS   H3S 8850   2.844   3.311   6.437  0.5402  0.7075  2.8014
   91SAPS   C24 8851   2.842   3.112   6.556  0.1901 -0.5653 -0.4507
   91SAPS   H4R 8852   2.827   3.004   6.532  2.6891 -0.7589 -1.3625
   91SAPS   H4S 8853   2.758   3.153   6.616  0.9191  0.8759 -0.3722
   91SAPS   C25 8854   2.962   3.127   6.650  0.7672  0.1881  0.0492
   91SAPS   H5R 8855   3.041   3.197   6.619  1.3777  0.3724  1.9354
   91SAPS   C26 8856   2.967   3.084   6.775  0.2183  0.0720  0.3981
   91SAPS   H6R 8857   3.059   3.106   6.832  0.2549 -1.2286  0.8602
   91SAPS   C27 8858   2.856   3.001   6.838  0.3425 -0.7063  0.1599
   91SAPS   H7R 8859   2.904   2.903   6.860 -0.2310 -0.4248  3.0581
   91SAPS   H7S 8860   2.771   2.973   6.773 -0.2245  1.6514 -0.1905
   91SAPS   C28 8861   2.811   3.082   6.958  0.9809  0.0853  0.1363
   91SAPS   H8R 8862   2.805   3.189   6.934  1.2748 -0.0013 -0.3311
   91SAPS   C29 8863   2.781   3.034   7.081 -0.0112 -0.2943  0.2956
   91SAPS   H9R 8864   2.744   3.103   7.158  0.6160  0.0841  0.2665
   91SAPS  C210 8865   2.775   2.889   7.147 -0.1802  0.1850  0.4426
   91SAPS  H10R 8866   2.819   2.914   7.246 -1.2643  0.8427  0.7824
   91SAPS  H10S 8867   2.841   2.818   7.093  0.3896 -0.2712  1.7044
   91SAPS  C211 8868   2.632   2.844   7.157 -0.1922  0.5615  1.2706
   91SAPS  H11R 8869   2.583   2.861   7.060  0.6526 -1.0062  0.5405
   91SAPS  C212 8870   2.573   2.786   7.259  0.0358  0.1033 -0.5167
   91SAPS  H12R 8871   2.467   2.755   7.264  0.1807 -0.2053  2.3767
   91SAPS  C213 8872   2.640   2.763   7.395 -0.2853  0.1289  0.7121
   91SAPS  H13R 8873   2.589   2.822   7.474  1.2784 -0.1420  1.9974
   91SAPS  H13S 8874   2.744   2.799   7.412 -0.2835  0.3177  0.3279
   91SAPS  C214 8875   2.649   2.620   7.439  0.0908  0.4442 -0.8436
   91SAPS  H14R 8876   2.638   2.534   7.371  2.5232 -1.7295  1.3136
   91SAPS  C215 8877   2.673   2.593   7.573  0.0465 -0.3119  0.3513
   91SAPS  H15R 8878   2.684   2.484   7.586  2.4978 -0.5622 -2.6073
   91SAPS  C216 8879   2.714   2.674   7.687 -1.1641  0.3037  0.1954
   91SAPS  H16R 8880   2.766   2.762   7.644 -0.6547 -0.7331 -1.3866
   91SAPS  H16S 8881   2.792   2.611   7.734 -0.9755 -0.1949 -0.7562
   91SAPS  C217 8882   2.608   2.715   7.784 -0.3637  0.4284 -0.1858
   91SAPS  H17R 8883   2.537   2.631   7.797  0.5552 -1.0955 -3.6684
   91SAPS  H17S 8884   2.533   2.792   7.755  0.1133  3.0671  4.5592
   91SAPS  C218 8885   2.671   2.762   7.917  0.5758  0.0225 -0.5347
   91SAPS  H18R 8886   2.722   2.857   7.890 -0.8301  1.3474  1.1753
   91SAPS  H18S 8887   2.740   2.680   7.947  1.0403  0.9252  0.9929
   91SAPS  C219 8888   2.568   2.776   8.024 -0.2531  0.0610  0.6891
   91SAPS  H19R 8889   2.624   2.794   8.118 -1.1969  2.8816  0.8224
   91SAPS  H19S 8890   2.514   2.680   8.034  1.4620 -1.0192  0.0778
   91SAPS  C220 8891   2.472   2.897   8.014 -0.3698 -0.1371 -0.2695
   91SAPS  H20R 8892   2.411   2.885   8.107  1.8754 -0.7502  1.2075
   91SAPS  H20S 8893   2.411   2.904   7.922 -0.4185  2.3430 -0.1046
   91SAPS  H20T 8894   2.534   2.989   8.014 -0.7831  0.3213 -4.3094
   91SAPS   C33 8895   3.344   2.742   6.791  0.1832  0.3549  0.4489
   91SAPS   H3X 8896   3.425   2.739   6.714  0.2653  0.1259  0.5459
   91SAPS   H3Y 8897   3.329   2.636   6.817 -1.5241 -0.0437 -1.8703
   91SAPS   C34 8898   3.373   2.830   6.914 -0.3752 -0.1782  0.0810
   91SAPS   H4X 8899   3.393   2.936   6.888 -4.6460  0.5354 -1.0395
   91SAPS   H4Y 8900   3.469   2.784   6.945 -1.1854 -1.8490  0.2095
   91SAPS   C35 8901   3.277   2.794   7.028  0.3897  0.6427 -0.2124
   91SAPS   H5X 8902   3.269   2.685   7.045  1.2002  0.7894  1.3696
   91SAPS   H5Y 8903   3.175   2.833   7.008 -0.0943 -1.3229 -1.8560
   91SAPS   C36 8904   3.306   2.868   7.162 -0.5654  0.2522 -0.5891
   91SAPS   H6X 8905   3.347   2.969   7.143 -0.1683 -0.4269 -4.0501
   91SAPS   H6Y 8906   3.395   2.810   7.196 -0.2225  0.4597 -1.1176
   91SAPS   C37 8907   3.186   2.862   7.259 -0.0713  0.0635 -0.3995
   91SAPS   H7X 8908   3.159   2.754   7.262  0.1738  0.0199  1.5569
   91SAPS   H7Y 8909   3.095   2.915   7.222 -2.4738 -2.7362  1.0205
   91SAPS   C38 8910   3.209   2.930   7.396 -0.2295 -0.0645  0.1096
   91SAPS   H8X 8911   3.204   3.037   7.364  0.8633 -0.3648 -1.2032
   91SAPS   H8Y 8912   3.313   2.904   7.426  0.3202  0.5208 -1.1836
   91SAPS   C39 8913   3.106   2.898   7.505  0.9053  0.4933  0.1577
   91SAPS   H9X 8914   3.140   2.797   7.538  1.8403  0.3456 -1.1534
   91SAPS   H9Y 8915   3.003   2.890   7.465  0.5142  1.4230  0.9564
   91SAPS  C310 8916   3.094   3.013   7.613  0.2848  0.3329 -0.4159
   91SAPS  H10X 8917   3.066   3.107   7.560 -0.5253  0.0198 -0.5645
   91SAPS  H10Y 8918   3.198   3.016   7.652 -0.0415 -0.7665  0.6268
   91SAPS  C311 8919   2.992   2.982   7.718 -0.9016  0.1563 -0.0053
   91SAPS  H11X 8920   3.038   2.902   7.780 -0.7350  0.7989  0.7092
   91SAPS  H11Y 8921   2.905   2.935   7.666  0.4528  0.6862 -2.9592
   91SAPS  C312 8922   2.957   3.108   7.795  0.0816 -0.5398  0.3959
   91SAPS  H12X 8923   2.906   3.176   7.722  0.1149 -0.9655 -0.0291
   91SAPS  H12Y 8924   3.047   3.161   7.834 -0.1804 -0.5404  1.0028
   91SAPS  C313 8925   2.859   3.091   7.907  0.2392 -0.3050 -0.1940
   91SAPS  H13X 8926   2.892   3.003   7.967  0.3948  0.1380  0.3748
   91SAPS  H13Y 8927   2.764   3.055   7.863 -0.5634  1.5404 -0.0285
   91SAPS  C314 8928   2.846   3.223   7.989 -0.0566  0.0359 -0.4109
   91SAPS  H14X 8929   2.806   3.307   7.928  0.5941 -0.2321 -1.2408
   91SAPS  H14Y 8930   2.952   3.241   8.017  0.0722 -2.4481  0.9317
   91SAPS  C315 8931   2.746   3.208   8.110 -0.7478 -0.5080 -0.1810
   91SAPS  H15X 8932   2.775   3.120   8.170  0.7397  1.8049  2.7863
   91SAPS  H15Y 8933   2.641   3.204   8.074 -0.3396 -1.5160 -1.2937
   91SAPS  C316 8934   2.754   3.323   8.209 -0.7484 -0.2349 -0.2842
   91SAPS  H16X 8935   2.835   3.312   8.284 -0.4977 -0.4541 -0.5833
   91SAPS  H16Y 8936   2.663   3.345   8.269  1.3697  3.4755  1.9067
   91SAPS  C317 8937   2.773   3.466   8.158  0.0156  0.4139 -0.1982
   91SAPS  H17X 8938   2.699   3.494   8.080 -0.2730 -1.9429 -0.8510
   91SAPS  H17Y 8939   2.870   3.468   8.105  0.2737  0.0882  0.2561
   91SAPS  C318 8940   2.760   3.563   8.277 -1.2992  0.2668 -0.8550
   91SAPS  H18X 8941   2.856   3.566   8.332 -1.8175 -2.4781  0.3366
   91SAPS  H18Y 8942   2.684   3.534   8.353  2.4118 -1.3721  2.5439
   91SAPS  H18Z 8943   2.739   3.666   8.239 -1.3946  0.4488 -0.3167
   92SAPS     N 8944   2.018   0.146   6.239 -0.0429  0.2182 -0.7662
   92SAPS   HN1 8945   1.987   0.149   6.139  1.0879  0.9333 -1.1233
   92SAPS   HN2 8946   2.107   0.092   6.243 -0.3911 -0.4060 -1.2528
   92SAPS   HN3 8947   1.951   0.094   6.298  1.5497 -0.5289  0.4258
   92SAPS   C12 8948   2.048   0.290   6.273  0.2947 -0.1942 -0.2524
   92SAPS  H12A 8949   2.137   0.319   6.219  0.7372 -0.6420  0.2339
   92SAPS   C13 8950   1.937   0.388   6.235  0.5262  0.3887 -0.2869
   92SAPS  O13A 8951   1.824   0.353   6.190  0.0641 -0.0870  0.1000
   92SAPS  O13B 8952   1.964   0.511   6.255 -0.2610  0.5250 -0.3105
   92SAPS   C11 8953   2.093   0.295   6.417  1.1021  0.0820  0.2915
   92SAPS  H11A 8954   2.019   0.264   6.494  0.3926 -1.6402 -1.0343
   92SAPS  H11B 8955   2.105   0.402   6.444  1.4881  0.1588 -0.1698
   92SAPS     P 8956   2.346   0.284   6.458  0.1758  0.0738  0.1978
   92SAPS   O13 8957   2.439   0.176   6.485 -0.3982  0.1070 -0.5051
   92SAPS   O14 8958   2.366   0.388   6.357 -0.2555 -0.2931  0.7651
   92SAPS   O12 8959   2.210   0.220   6.431  0.8862  0.0842  0.4248
   92SAPS   O11 8960   2.324   0.353   6.601  0.5531 -0.3477  0.1387
   92SAPS    C1 8961   2.270   0.293   6.711  0.0512 -0.0762 -0.1161
   92SAPS    HA 8962   2.244   0.370   6.787 -3.2720  0.7089 -1.8496
   92SAPS    HB 8963   2.173   0.255   6.673 -1.1268  0.8468  1.8517
   92SAPS    C2 8964   2.354   0.191   6.786  0.2575 -0.3401  0.2074
   92SAPS    HS 8965   2.359   0.097   6.727  0.9278  0.2839 -0.7718
   92SAPS   O21 8966   2.288   0.163   6.907  0.6110  0.2851  0.4365
   92SAPS   C21 8967   2.339   0.073   6.986  0.1775 -0.7961 -0.5167
   92SAPS   O22 8968   2.437   0.002   6.973  0.2403  0.1150  0.0276
   92SAPS   C22 8969   2.258   0.056   7.111  0.8098 -1.0435  0.4190
   92SAPS   H2R 8970   2.155   0.027   7.079 -0.5122  2.1631  1.3562
   92SAPS   H2S 8971   2.303  -0.028   7.168  1.3448 -2.1072 -1.4770
   92SAPS    C3 8972   2.498   0.249   6.806 -0.6630 -0.3144 -0.4888
   92SAPS    HX 8973   2.541   0.250   6.704 -1.0101 -2.0951 -0.6796
   92SAPS    HY 8974   2.560   0.176   6.863 -0.2942 -0.6376 -1.2995
   92SAPS   O31 8975   2.501   0.378   6.879 -0.3186 -0.1068  0.8807
   92SAPS   C31 8976   2.614   0.452   6.856 -0.2185 -0.0860  0.0723
   92SAPS   O32 8977   2.698   0.426   6.767 -0.4188 -0.1510 -0.0621
   92SAPS   C32 8978   2.614   0.569   6.953  0.4177 -0.1679  0.2932
   92SAPS   H2X 8979   2.512   0.611   6.964 -0.1380 -0.6746 -2.3740
   92SAPS   H2Y 8980   2.671   0.653   6.909 -2.4310  1.0332 -1.3175
   92SAPS   C23 8981   2.237   0.169   7.210  0.2404  0.6637  0.1340
   92SAPS   H3R 8982   2.133   0.152   7.247  0.8027 -0.3834  1.2986
   92SAPS   H3S 8983   2.238   0.269   7.161  1.1350  0.3334 -0.5514
   92SAPS   C24 8984   2.330   0.178   7.325  0.4558 -0.1254  0.2459
   92SAPS   H4R 8985   2.436   0.185   7.293  1.1721  0.4913  2.5286
   92SAPS   H4S 8986   2.319   0.087   7.388 -0.3737 -0.5222 -0.4611
   92SAPS   C25 8987   2.305   0.304   7.401 -0.0420 -0.3902 -0.0806
   92SAPS   H5R 8988   2.277   0.389   7.338  0.7612 -0.1482 -0.1226
   92SAPS   C26 8989   2.318   0.329   7.538  0.0317  0.0629  0.4585
   92SAPS   H6R 8990   2.303   0.433   7.570  1.6482  0.3192  0.4737
   92SAPS   C27 8991   2.362   0.229   7.642  0.3438  0.6673  0.5095
   92SAPS   H7R 8992   2.449   0.264   7.701 -0.0223 -1.0991  2.1670
   92SAPS   H7S 8993   2.397   0.130   7.605  1.2447  1.3339 -0.4752
   92SAPS   C28 8994   2.245   0.200   7.736 -0.0918 -0.2937  0.4286
   92SAPS   H8R 8995   2.161   0.147   7.689  1.2325 -2.5587  0.4289
   92SAPS   C29 8996   2.233   0.231   7.865 -0.7537 -0.2410 -0.4014
   92SAPS   H9R 8997   2.142   0.199   7.918  0.0087 -1.2793  0.3154
   92SAPS  C210 8998   2.337   0.304   7.949  0.3224 -0.0385  0.9638
   92SAPS  H10R 8999   2.290   0.389   8.003 -1.2642  1.1833 -2.1263
   92SAPS  H10S 9000   2.414   0.352   7.886  0.6963  1.3208  2.3873
   92SAPS  C211 9001   2.406   0.209   8.042  0.3352  0.4506 -0.1568
   92SAPS  H11R 9002   2.487   0.153   7.993  0.5336  1.1170 -0.5918
   92SAPS  C212 9003   2.364   0.167   8.162  0.1253 -0.2283 -0.4018
   92SAPS  H12R 9004   2.433   0.117   8.231  0.1781 -1.0413 -1.0323
   92SAPS  C213 9005   2.233   0.201   8.236 -0.3808 -0.1514 -0.4990
   92SAPS  H13R 9006   2.147   0.143   8.196 -0.2156 -1.2059  0.6391
   92SAPS  H13S 9007   2.206   0.309   8.229 -0.1624 -0.1492 -1.6429
   92SAPS  C214 9008   2.237   0.180   8.386  0.0870  0.6034  0.1714
   92SAPS  H14R 9009   2.209   0.077   8.413  1.7419 -1.1552 -3.8710
   92SAPS  C215 9010   2.286   0.267   8.479 -0.4618 -0.4142  0.1473
   92SAPS  H15R 9011   2.292   0.240   8.585  0.6239 -2.7666 -0.4518
   92SAPS  C216 9012   2.338   0.410   8.445  1.1195 -0.0796 -0.4080
   92SAPS  H16R 9013   2.285   0.480   8.513 -1.3648 -1.4558 -0.8021
   92SAPS  H16S 9014   2.306   0.434   8.341  0.7517 -3.0488 -1.0592
   92SAPS  C217 9015   2.489   0.429   8.456 -0.6388 -0.1810 -0.3996
   92SAPS  H17R 9016   2.510   0.537   8.440  1.5922 -0.5295 -0.1426
   92SAPS  H17S 9017   2.535   0.374   8.371  2.9185  0.4418  0.9682
   92SAPS  C218 9018   2.539   0.393   8.598  0.4501 -0.1091  0.4725
   92SAPS  H18R 9019   2.538   0.282   8.600  1.1497 -0.1127  0.6247
   92SAPS  H18S 9020   2.469   0.436   8.673 -0.9296 -2.9207  0.9338
   92SAPS  C219 9021   2.688   0.434   8.619  0.7972  0.2750 -0.5383
   92SAPS  H19R 9022   2.705   0.408   8.726  2.2882  2.4190 -0.2008
   92SAPS  H19S 9023   2.704   0.543   8.608 -0.8240  0.4869 -1.0873
   92SAPS  C220 9024   2.802   0.358   8.540  0.4126 -0.5965 -0.0782
   92SAPS  H20R 9025   2.904   0.382   8.576  0.6012 -0.8367 -0.4466
   92SAPS  H20S 9026   2.780   0.401   8.439 -3.6660  0.7158  1.1557
   92SAPS  H20T 9027   2.790   0.248   8.551 -0.6614 -0.4997 -0.1954
   92SAPS   C33 9028   2.674   0.530   7.088  0.3388 -0.3055  0.4427
   92SAPS   H3X 9029   2.669   0.624   7.148 -0.1923  2.0879 -2.9981
   92SAPS   H3Y 9030   2.778   0.493   7.080 -0.9781 -4.4525  0.1066
   92SAPS   C34 9031   2.592   0.436   7.182 -0.0225 -0.6569 -0.4743
   92SAPS   H4X 9032   2.568   0.341   7.130  0.0560 -1.0201  0.1470
   92SAPS   H4Y 9033   2.494   0.482   7.208 -0.0196 -0.2140 -1.2252
   92SAPS   C35 9034   2.672   0.396   7.313  0.8788  0.1400  0.2645
   92SAPS   H5X 9035   2.772   0.359   7.284  0.5818 -0.2447 -0.2915
   92SAPS   H5Y 9036   2.611   0.313   7.356  1.2748  0.8903  2.4142
   92SAPS   C36 9037   2.673   0.493   7.429  0.0495 -1.1191 -0.1929
   92SAPS   H6X 9038   2.584   0.560   7.427  1.8594  1.4128 -1.8670
   92SAPS   H6Y 9039   2.758   0.562   7.417  0.5413 -1.6485  0.1899
   92SAPS   C37 9040   2.686   0.431   7.576  0.5618 -0.7438  0.2107
   92SAPS   H7X 9041   2.789   0.392   7.588  0.3238 -1.6182 -0.5402
   92SAPS   H7Y 9042   2.615   0.346   7.589  1.5699 -1.8323 -1.1691
   92SAPS   C38 9043   2.660   0.527   7.700  0.4515  0.4522 -0.1957
   92SAPS   H8X 9044   2.551   0.547   7.707  0.1547 -1.5690  3.4101
   92SAPS   H8Y 9045   2.721   0.615   7.669 -0.2328  0.6703 -0.9630
   92SAPS   C39 9046   2.703   0.469   7.835 -0.2871 -0.1178  0.9340
   92SAPS   H9X 9047   2.768   0.380   7.820 -0.1144  0.4717 -2.5564
   92SAPS   H9Y 9048   2.606   0.446   7.884 -0.7419 -1.6413 -0.5989
   92SAPS  C310 9049   2.780   0.573   7.920 -0.2926 -1.1857  0.2680
   92SAPS  H10X 9050   2.732   0.672   7.935  1.0948 -0.6087  1.1095
   92SAPS  H10Y 9051   2.874   0.597   7.866 -0.2092  1.2660  1.3582
   92SAPS  C311 9052   2.793   0.517   8.061 -0.3292 -0.3310  0.1022
   92SAPS  H11X 9053   2.840   0.420   8.032  1.9511  0.0472  2.2809
   92SAPS  H11Y 9054   2.696   0.502   8.113 -0.6448  0.9458 -0.0950
   92SAPS  C312 9055   2.889   0.583   8.152 -0.0746  0.3987 -0.2181
   92SAPS  H12X 9056   2.982   0.622   8.104  0.3904 -0.2703  0.1246
   92SAPS  H12Y 9057   2.926   0.508   8.224  0.2545 -1.9494 -2.6769
   92SAPS  C313 9058   2.811   0.700   8.221  0.2255  0.3310  0.0376
   92SAPS  H13X 9059   2.718   0.672   8.275  1.0973  1.2792  2.1309
   92SAPS  H13Y 9060   2.785   0.776   8.145  0.4819  0.9879  0.6001
   92SAPS  C314 9061   2.894   0.770   8.333 -0.2184  0.3707 -0.7240
   92SAPS  H14X 9062   2.980   0.824   8.288 -0.1928 -0.1935 -1.3822
   92SAPS  H14Y 9063   2.937   0.703   8.410  0.0555  1.5980  0.2093
   92SAPS  C315 9064   2.802   0.874   8.405  0.2177  0.2608 -0.3461
   92SAPS  H15X 9065   2.744   0.814   8.477  0.4644  0.2803 -0.1304
   92SAPS  H15Y 9066   2.739   0.927   8.330  1.6496  0.3839 -1.5065
   92SAPS  C316 9067   2.888   0.978   8.486 -0.1930 -0.1113  0.1262
   92SAPS  H16X 9068   2.966   1.027   8.424  1.4237 -0.5324  1.7320
   92SAPS  H16Y 9069   2.948   0.922   8.560  0.3078  1.3742  0.8896
   92SAPS  C317 9070   2.803   1.093   8.545  0.3730 -0.4516 -0.3155
   92SAPS  H17X 9071   2.717   1.051   8.602  0.5000  0.7761  0.8304
   92SAPS  H17Y 9072   2.758   1.140   8.455 -1.7079 -1.6535  0.0332
   92SAPS  C318 9073   2.872   1.195   8.634 -0.2753 -0.9856 -0.2710
   92SAPS  H18X 9074   2.801   1.278   8.655 -0.1365 -0.6651 -1.0159
   92SAPS  H18Y 9075   2.967   1.246   8.605 -0.9788  1.0404  0.7651
   92SAPS  H18Z 9076   2.891   1.155   8.736 -3.4327  1.6744  1.5548
   93SAPS     N 9077   2.105   0.754   6.271  0.9930 -0.0788  0.1976
   93SAPS   HN1 9078   2.208   0.744   6.265  0.7955 -2.3209 -0.5691
   93SAPS   HN2 9079   2.073   0.765   6.369 -3.1642 -1.8135 -0.7222
   93SAPS   HN3 9080   2.067   0.667   6.227  1.0967 -0.2516  0.4517
   93SAPS   C12 9081   2.053   0.875   6.191 -0.5960  0.4022 -0.6192
   93SAPS  H12A 9082   2.103   0.876   6.095  1.2722  2.4427  0.2807
   93SAPS   C13 9083   1.901   0.890   6.174  0.3688 -0.4900  0.2970
   93SAPS  O13A 9084   1.829   0.806   6.227  0.1555 -0.6015  0.0191
   93SAPS  O13B 9085   1.854   0.983   6.105  0.7387 -0.2994 -0.3812
   93SAPS   C11 9086   2.109   1.008   6.259  0.1014 -0.0943 -0.4890
   93SAPS  H11A 9087   2.058   1.020   6.357  1.7902  0.1836  0.4069
   93SAPS  H11B 9088   2.084   1.090   6.189 -1.1095  1.5821  1.7865
   93SAPS     P 9089   2.332   1.093   6.367  0.1360 -0.2327 -0.4589
   93SAPS   O13 9090   2.474   1.066   6.348  0.1828  0.2686  0.3104
   93SAPS   O14 9091   2.293   1.230   6.338 -0.2312  0.2184 -0.3360
   93SAPS   O12 9092   2.252   0.996   6.275 -0.1576 -0.2029  0.6494
   93SAPS   O11 9093   2.289   1.048   6.514  0.5024 -0.5813 -0.5156
   93SAPS    C1 9094   2.205   1.148   6.581  0.5030 -0.4601  0.7567
   93SAPS    HA 9095   2.148   1.221   6.520 -0.6356 -0.6343  1.5697
   93SAPS    HB 9096   2.121   1.095   6.631  0.1661  1.1873  2.0118
   93SAPS    C2 9097   2.291   1.211   6.693 -0.1121 -0.5621 -0.0367
   93SAPS    HS 9098   2.396   1.241   6.671  0.5183 -1.8365  1.0966
   93SAPS   O21 9099   2.283   1.123   6.800  0.1660 -0.3958 -0.5674
   93SAPS   C21 9100   2.397   1.068   6.844  0.7868 -0.1532  0.1102
   93SAPS   O22 9101   2.509   1.089   6.803 -0.5712 -0.1495 -0.1905
   93SAPS   C22 9102   2.350   0.961   6.948 -0.6736  0.4091 -0.6296
   93SAPS   H2R 9103   2.245   0.932   6.928 -0.1017 -3.0144  0.6244
   93SAPS   H2S 9104   2.420   0.877   6.929  0.4397  1.2229 -0.2478
   93SAPS    C3 9105   2.233   1.350   6.733  0.2398  0.1967  0.2563
   93SAPS    HX 9106   2.130   1.321   6.766  0.3510  0.8141  1.2037
   93SAPS    HY 9107   2.231   1.432   6.658  0.2903 -0.0997 -0.0716
   93SAPS   O31 9108   2.281   1.398   6.867  0.8751 -0.2233  0.5576
   93SAPS   C31 9109   2.381   1.485   6.842 -0.1525  0.1668 -0.6087
   93SAPS   O32 9110   2.424   1.528   6.733  0.1402  0.1658 -0.4180
   93SAPS   C32 9111   2.437   1.523   6.977  0.5209 -0.1773  0.0666
   93SAPS   H2X 9112   2.347   1.537   7.040 -0.2871 -1.0773 -0.8461
   93SAPS   H2Y 9113   2.496   1.616   6.965  2.2306 -1.1962  0.1676
   93SAPS   C23 9114   2.387   1.012   7.092 -0.1458 -0.1028  0.4384
   93SAPS   H3R 9115   2.341   1.111   7.112  0.5663  0.5673 -1.0952
   93SAPS   H3S 9116   2.495   1.033   7.102 -0.5313  1.1728  2.3602
   93SAPS   C24 9117   2.351   0.919   7.204  0.4443 -0.3139 -0.7026
   93SAPS   H4R 9118   2.393   0.956   7.300 -2.2369  0.0774  0.4215
   93SAPS   H4S 9119   2.409   0.826   7.187 -1.2282 -1.2197 -1.7556
   93SAPS   C25 9120   2.202   0.884   7.221 -0.2582 -0.1770  0.7356
   93SAPS   H5R 9121   2.135   0.899   7.135 -0.0197  1.2013  0.7612
   93SAPS   C26 9122   2.150   0.842   7.334 -0.3893 -0.3318  0.2545
   93SAPS   H6R 9123   2.040   0.839   7.332 -0.3712 -0.9865 -0.8915
   93SAPS   C27 9124   2.224   0.820   7.461  0.5447  0.0606 -0.0058
   93SAPS   H7R 9125   2.265   0.916   7.497 -0.5997  0.9781 -1.0786
   93SAPS   H7S 9126   2.307   0.746   7.453 -0.7422 -1.2750 -1.6260
   93SAPS   C28 9127   2.130   0.758   7.570  0.2226  0.0363 -0.3456
   93SAPS   H8R 9128   2.143   0.650   7.583 -3.2438 -0.3244  1.1437
   93SAPS   C29 9129   2.047   0.824   7.651 -0.1678 -0.3961  0.9552
   93SAPS   H9R 9130   1.994   0.756   7.720  0.6222 -1.8656  0.1660
   93SAPS  C210 9131   2.015   0.971   7.645  0.2488 -0.3447  0.7823
   93SAPS  H10R 9132   1.941   0.977   7.562 -0.5785 -2.6200  1.2609
   93SAPS  H10S 9133   2.102   1.035   7.618 -0.1097  0.0013  0.4357
   93SAPS  C211 9134   1.935   1.028   7.766 -0.5170  0.2984  0.3743
   93SAPS  H11R 9135   1.851   0.963   7.795  0.5474 -1.3045 -0.0326
   93SAPS  C212 9136   1.967   1.132   7.843 -0.3103 -0.0563  0.0039
   93SAPS  H12R 9137   1.913   1.153   7.937  0.3791  1.0193  0.1642
   93SAPS  C213 9138   2.094   1.214   7.828 -0.5844  0.5803 -0.7925
   93SAPS  H13R 9139   2.129   1.222   7.723  2.7192 -0.4776  0.1007
   93SAPS  H13S 9140   2.173   1.151   7.875 -0.2332  0.3288 -1.6946
   93SAPS  C214 9141   2.075   1.354   7.887 -0.5053  0.0189  0.0645
   93SAPS  H14R 9142   2.033   1.433   7.822  1.8098 -0.0146 -1.6062
   93SAPS  C215 9143   2.112   1.395   8.014  0.6410 -0.1581  0.7939
   93SAPS  H15R 9144   2.075   1.494   8.042  0.3322 -0.6691  2.2559
   93SAPS  C216 9145   2.172   1.310   8.119  0.6196  0.0290 -0.2014
   93SAPS  H16R 9146   2.281   1.297   8.106  0.9278  0.4651  1.6416
   93SAPS  H16S 9147   2.130   1.208   8.133 -1.1729  0.7517 -0.0331
   93SAPS  C217 9148   2.154   1.374   8.261  0.2670 -0.2002 -0.0486
   93SAPS  H17R 9149   2.047   1.393   8.287  0.1713  0.2546 -0.7503
   93SAPS  H17S 9150   2.190   1.477   8.282  0.5799 -0.2909 -0.1388
   93SAPS  C218 9151   2.222   1.282   8.372  0.6461  0.4006 -0.3924
   93SAPS  H18R 9152   2.179   1.180   8.362 -1.9222  1.6165 -3.8250
   93SAPS  H18S 9153   2.197   1.336   8.466 -0.5845  1.4580 -1.2792
   93SAPS  C219 9154   2.374   1.278   8.372  0.0919  0.8257 -0.6723
   93SAPS  H19R 9155   2.415   1.218   8.289  2.1100  0.1650  0.7378
   93SAPS  H19S 9156   2.404   1.215   8.458 -0.5776 -0.8233 -1.5998
   93SAPS  C220 9157   2.439   1.416   8.387  0.1220 -0.2187  0.2438
   93SAPS  H20R 9158   2.396   1.471   8.473  0.7895  1.5233 -0.4907
   93SAPS  H20S 9159   2.430   1.468   8.289 -2.7996 -1.3069 -0.1544
   93SAPS  H20T 9160   2.545   1.400   8.417 -0.1491 -0.8020  0.9168
   93SAPS   C33 9161   2.531   1.420   7.048 -0.3351 -0.8690 -0.5720
   93SAPS   H3X 9162   2.631   1.443   7.007 -0.1078 -1.6960 -0.5071
   93SAPS   H3Y 9163   2.512   1.317   7.012  1.3268 -1.5398  0.3946
   93SAPS   C34 9164   2.510   1.428   7.198  0.3621  0.2022 -0.5942
   93SAPS   H4X 9165   2.400   1.413   7.208  0.1391  1.6020 -0.8495
   93SAPS   H4Y 9166   2.531   1.526   7.246 -0.6859 -0.0172  0.3660
   93SAPS   C35 9167   2.576   1.310   7.275 -0.4405  0.1786  0.0256
   93SAPS   H5X 9168   2.684   1.324   7.293 -0.2729  0.2613 -0.9633
   93SAPS   H5Y 9169   2.575   1.219   7.212  0.2408  0.3657 -0.2643
   93SAPS   C36 9170   2.505   1.274   7.409 -0.6538  0.3341 -0.6713
   93SAPS   H6X 9171   2.538   1.172   7.439 -0.1207  0.8595  0.5541
   93SAPS   H6Y 9172   2.398   1.260   7.379 -0.6343  2.3604 -1.8650
   93SAPS   C37 9173   2.533   1.364   7.530  0.3463  0.4478  0.7957
   93SAPS   H7X 9174   2.634   1.409   7.518 -0.2261  1.2196 -1.9516
   93SAPS   H7Y 9175   2.533   1.310   7.627 -0.5718 -0.6117  0.2330
   93SAPS   C38 9176   2.432   1.477   7.544  0.4198 -0.9844 -0.8606
   93SAPS   H8X 9177   2.341   1.447   7.601  0.0675 -0.0630 -0.9110
   93SAPS   H8Y 9178   2.398   1.514   7.445 -1.9190 -0.1468  0.1784
   93SAPS   C39 9179   2.494   1.599   7.622  0.7473  0.1686  0.2499
   93SAPS   H9X 9180   2.420   1.681   7.610 -2.1587 -2.1675  1.0223
   93SAPS   H9Y 9181   2.593   1.639   7.592  0.5717 -0.3012 -0.9958
   93SAPS  C310 9182   2.479   1.579   7.776 -0.6041  0.7328  0.0875
   93SAPS  H10X 9183   2.515   1.477   7.801 -2.7972 -0.0619  0.2033
   93SAPS  H10Y 9184   2.372   1.577   7.805 -0.0857  0.1417  2.1226
   93SAPS  C311 9185   2.536   1.689   7.856  0.0804  0.6510 -0.0851
   93SAPS  H11X 9186   2.486   1.779   7.814 -0.8615  0.4432  0.5699
   93SAPS  H11Y 9187   2.645   1.701   7.839  0.0708  2.4444  0.8698
   93SAPS  C312 9188   2.496   1.677   8.002  0.6688  0.2058 -0.1129
   93SAPS  H12X 9189   2.546   1.595   8.059 -0.5769  1.9549  3.8426
   93SAPS  H12Y 9190   2.386   1.668   8.005  0.4933  0.8916 -2.4555
   93SAPS  C313 9191   2.547   1.800   8.080  0.2502 -0.4731  0.1930
   93SAPS  H13X 9192   2.498   1.889   8.035 -1.1032 -0.3472  1.7835
   93SAPS  H13Y 9193   2.657   1.813   8.074  0.2004 -0.1108  0.0005
   93SAPS  C314 9194   2.505   1.810   8.229 -0.5575 -0.4088 -0.4637
   93SAPS  H14X 9195   2.530   1.912   8.263 -0.4716 -0.9738  1.2683
   93SAPS  H14Y 9196   2.550   1.732   8.294 -3.0137 -3.0646 -1.7186
   93SAPS  C315 9197   2.354   1.805   8.260  0.2885  1.0176  0.2581
   93SAPS  H15X 9198   2.344   1.830   8.367  1.7538 -1.2834  1.0163
   93SAPS  H15Y 9199   2.316   1.702   8.242 -1.4018  1.5049  0.9268
   93SAPS  C316 9200   2.268   1.895   8.179 -0.0182 -0.3553 -0.1030
   93SAPS  H16X 9201   2.237   1.852   8.081 -1.8158  0.9273 -0.1485
   93SAPS  H16Y 9202   2.334   1.982   8.157  2.9179 -2.1664  0.9488
   93SAPS  C317 9203   2.140   1.958   8.241 -0.4588  0.1684  0.8683
   93SAPS  H17X 9204   2.183   2.005   8.332  1.7192  0.8225 -0.4092
   93SAPS  H17Y 9205   2.071   1.875   8.266  1.4701 -1.4784  0.9702
   93SAPS  C318 9206   2.077   2.075   8.169 -0.0208 -0.0657  0.1014
   93SAPS  H18X 9207   2.039   2.044   8.069 -0.3536 -0.6760  0.4133
   93SAPS  H18Y 9208   2.155   2.151   8.150 -1.0139  1.2193  1.0163
   93SAPS  H18Z 9209   1.984   2.109   8.218 -0.4998  1.4739 -1.7609
   94SAPS     N 9210   4.181   3.517   5.919  0.8188  0.5695  0.1311
   94SAPS   HN1 9211   4.169   3.454   6.000 -0.1606  0.2227 -0.2692
   94SAPS   HN2 9212   4.279   3.519   5.884 -0.0283 -0.6178 -2.5876
   94SAPS   HN3 9213   4.156   3.610   5.958  0.2151  0.9900 -1.1730
   94SAPS   C12 9214   4.083   3.493   5.816  0.3383 -0.2917 -0.6421
   94SAPS  H12A 9215   4.087   3.586   5.762 -1.8873 -0.4668 -1.1954
   94SAPS   C13 9216   4.108   3.372   5.726  0.2479  0.4066  0.2832
   94SAPS  O13A 9217   4.201   3.283   5.732  0.3450 -0.3561 -0.2801
   94SAPS  O13B 9218   4.024   3.365   5.625 -0.0427 -0.2880 -0.5131
   94SAPS   C11 9219   3.934   3.495   5.874 -0.1803  0.9405 -0.4505
   94SAPS  H11A 9220   3.922   3.397   5.925 -0.4247  2.4018  2.5273
   94SAPS  H11B 9221   3.874   3.506   5.780  0.3283  0.3078 -0.8561
   94SAPS     P 9222   3.767   3.660   5.982  0.2443  0.1333 -0.1957
   94SAPS   O13 9223   3.746   3.773   5.883 -0.0961  0.1222  0.1068
   94SAPS   O14 9224   3.664   3.548   5.979  0.2491 -0.4783 -0.3088
   94SAPS   O12 9225   3.915   3.607   5.963 -0.9517 -0.2987 -0.1935
   94SAPS   O11 9226   3.762   3.735   6.116  0.2671  0.0003  0.1807
   94SAPS    C1 9227   3.863   3.722   6.214  0.4877 -0.8633 -0.1202
   94SAPS    HA 9228   3.963   3.727   6.166  1.4117 -0.3019  1.7344
   94SAPS    HB 9229   3.861   3.810   6.283  4.2951  1.0500 -2.1601
   94SAPS    C2 9230   3.859   3.592   6.303 -0.3913  0.4995  0.1393
   94SAPS    HS 9231   3.872   3.506   6.234 -0.4344 -1.0445  1.9825
   94SAPS   O21 9232   3.740   3.593   6.377  0.3417 -0.6203 -0.7308
   94SAPS   C21 9233   3.696   3.472   6.386  0.0524 -0.3194  0.0605
   94SAPS   O22 9234   3.752   3.370   6.352  0.5652  0.0772  0.3028
   94SAPS   C22 9235   3.560   3.482   6.458  1.0083  0.0839  0.0681
   94SAPS   H2R 9236   3.492   3.554   6.407  0.0034 -1.0824 -0.2969
   94SAPS   H2S 9237   3.508   3.384   6.445  0.4524  0.2816  0.7057
   94SAPS    C3 9238   3.979   3.591   6.403 -0.0649 -0.0505  0.0245
   94SAPS    HX 9239   4.002   3.697   6.427 -1.6964  0.7024 -1.5450
   94SAPS    HY 9240   4.065   3.575   6.334 -2.3690 -1.3075 -2.7368
   94SAPS   O31 9241   3.974   3.508   6.527  0.2284 -0.1547 -0.2130
   94SAPS   C31 9242   4.068   3.411   6.533  0.1226 -0.3387 -0.5194
   94SAPS   O32 9243   4.145   3.382   6.445 -0.0263  0.1978  0.3397
   94SAPS   C32 9244   4.075   3.341   6.670  0.6559 -0.1950 -0.0308
   94SAPS   H2X 9245   4.177   3.297   6.673  0.4506 -0.8302 -1.6059
   94SAPS   H2Y 9246   3.985   3.275   6.671  0.4314  0.1064 -0.1693
   94SAPS   C23 9247   3.579   3.527   6.603  0.0062 -0.2453  0.3586
   94SAPS   H3R 9248   3.602   3.636   6.601 -0.0979 -0.2205  0.4862
   94SAPS   H3S 9249   3.658   3.466   6.651  0.1276 -0.2677  0.1312
   94SAPS   C24 9250   3.451   3.505   6.684 -0.3979 -0.0031 -0.5394
   94SAPS   H4R 9251   3.364   3.562   6.647 -1.5727 -1.3484  0.0429
   94SAPS   H4S 9252   3.473   3.546   6.785  2.5056 -1.7101 -0.3529
   94SAPS   C25 9253   3.414   3.356   6.701 -0.1350 -0.6456 -0.1623
   94SAPS   H5R 9254   3.407   3.301   6.606  0.1689 -2.0243  0.5865
   94SAPS   C26 9255   3.383   3.285   6.814 -0.2596 -0.0571  0.4001
   94SAPS   H6R 9256   3.350   3.180   6.806  0.5850 -0.5486  2.7059
   94SAPS   C27 9257   3.369   3.341   6.955 -0.2336  0.3956  0.1739
   94SAPS   H7R 9258   3.390   3.450   6.962 -2.6831  0.8729  0.7870
   94SAPS   H7S 9259   3.450   3.296   7.017 -0.3468 -1.3382 -0.8692
   94SAPS   C28 9260   3.236   3.305   7.016  0.1213 -0.3076 -0.8293
   94SAPS   H8R 9261   3.170   3.244   6.952  0.0790 -0.5368 -0.5718
   94SAPS   C29 9262   3.188   3.349   7.134  0.4591  0.0633 -0.2272
   94SAPS   H9R 9263   3.096   3.306   7.176  0.8115  0.2004  0.6898
   94SAPS  C210 9264   3.259   3.438   7.238 -0.3469  0.0677 -0.5248
   94SAPS  H10R 9265   3.181   3.510   7.272 -0.3663  0.4056 -1.2597
   94SAPS  H10S 9266   3.327   3.515   7.196 -0.9744  0.7037 -0.3890
   94SAPS  C211 9267   3.328   3.354   7.338  0.1707 -0.1783 -0.0754
   94SAPS  H11R 9268   3.398   3.279   7.298 -0.6977 -1.8079  1.2979
   94SAPS  C212 9269   3.316   3.371   7.471 -0.1843  0.3681  0.6757
   94SAPS  H12R 9270   3.387   3.306   7.523  0.3433 -0.3980 -0.9469
   94SAPS  C213 9271   3.233   3.469   7.551  0.5677  0.2860 -0.2988
   94SAPS  H13R 9272   3.239   3.567   7.497  0.9636  0.7278  0.5298
   94SAPS  H13S 9273   3.294   3.480   7.643 -0.2513  0.1020  0.2764
   94SAPS  C214 9274   3.084   3.430   7.583 -0.0316  0.9758 -0.3551
   94SAPS  H14R 9275   3.058   3.327   7.553  1.9583  0.3273 -0.0078
   94SAPS  C215 9276   3.000   3.515   7.655  0.2350  0.4367 -0.0930
   94SAPS  H15R 9277   2.897   3.477   7.655  0.4256 -0.1278 -1.1173
   94SAPS  C216 9278   3.022   3.651   7.715  0.0510 -0.5728  0.0423
   94SAPS  H16R 9279   2.965   3.725   7.655  2.3041  1.1717 -0.0804
   94SAPS  H16S 9280   3.130   3.680   7.714 -0.0483 -0.1811 -1.5006
   94SAPS  C217 9281   2.985   3.657   7.863 -0.0757  0.3639  0.6080
   94SAPS  H17R 9282   3.009   3.560   7.913  0.2244  0.2369  0.2194
   94SAPS  H17S 9283   2.874   3.667   7.868 -0.0646  0.7983  0.0677
   94SAPS  C218 9284   3.042   3.782   7.933 -0.5025  0.3541 -0.2510
   94SAPS  H18R 9285   3.036   3.865   7.859 -0.5512 -0.2828 -0.9747
   94SAPS  H18S 9286   3.148   3.753   7.950 -0.6391  0.4046  0.7425
   94SAPS  C219 9287   2.977   3.823   8.068 -0.3291  0.0151  0.1428
   94SAPS  H19R 9288   3.063   3.873   8.117 -0.4450  0.2602  0.0987
   94SAPS  H19S 9289   2.970   3.738   8.140  0.7280 -1.1590 -1.0887
   94SAPS  C220 9290   2.847   3.905   8.052 -0.5128 -0.3501  0.1144
   94SAPS  H20R 9291   2.801   3.930   8.150  0.5263  2.5074 -0.0210
   94SAPS  H20S 9292   2.764   3.850   8.004 -1.2145  0.0442  0.8515
   94SAPS  H20T 9293   2.876   3.997   7.996  2.9257 -0.5175  1.3545
   94SAPS   C33 9294   4.057   3.440   6.787 -0.1309  0.7443 -0.9149
   94SAPS   H3X 9295   3.954   3.482   6.783 -0.2372  0.5958  0.0324
   94SAPS   H3Y 9296   4.133   3.520   6.776  1.2092 -0.2429  0.6881
   94SAPS   C34 9297   4.082   3.378   6.927 -0.6916 -0.2578 -0.3326
   94SAPS   H4X 9298   4.190   3.353   6.933 -0.7955 -0.8032 -0.6293
   94SAPS   H4Y 9299   4.020   3.286   6.940 -0.3830 -0.3586  0.4671
   94SAPS   C35 9300   4.048   3.466   7.055  0.4274  0.6864  0.1719
   94SAPS   H5X 9301   3.942   3.498   7.053  0.2445  0.1310  0.7272
   94SAPS   H5Y 9302   4.108   3.560   7.046  1.8873 -0.1003  1.2841
   94SAPS   C36 9303   4.081   3.397   7.190  0.1661  0.0989 -0.2205
   94SAPS   H6X 9304   4.187   3.368   7.200 -0.6444 -2.2725  2.7205
   94SAPS   H6Y 9305   4.022   3.305   7.207 -1.0868  1.0990  1.1877
   94SAPS   C37 9306   4.029   3.486   7.303  0.1124 -0.0631  0.9561
   94SAPS   H7X 9307   3.961   3.428   7.368 -2.2962  0.6361 -0.7726
   94SAPS   H7Y 9308   3.960   3.565   7.266  1.5755  1.1253  0.7023
   94SAPS   C38 9309   4.141   3.552   7.382  0.3349 -0.2397 -0.8961
   94SAPS   H8X 9310   4.214   3.604   7.316 -0.3383  0.4858 -1.0864
   94SAPS   H8Y 9311   4.197   3.471   7.433  1.7565  1.3767  0.1863
   94SAPS   C39 9312   4.085   3.645   7.494 -0.3086  0.7051  0.3875
   94SAPS   H9X 9313   3.979   3.624   7.518 -0.5461  1.8511  0.3962
   94SAPS   H9Y 9314   4.078   3.744   7.444 -0.9377  0.2700 -0.4204
   94SAPS  C310 9315   4.173   3.674   7.611  0.2733 -0.1280 -1.0969
   94SAPS  H10X 9316   4.147   3.776   7.648  0.2744  0.2246 -2.0443
   94SAPS  H10Y 9317   4.282   3.683   7.590  1.2016  1.1091  3.1653
   94SAPS  C311 9318   4.157   3.589   7.736  0.7276  0.4255  0.2414
   94SAPS  H11X 9319   4.158   3.480   7.717  3.0678  0.2674  0.9262
   94SAPS  H11Y 9320   4.061   3.616   7.785  0.8213  0.0624  0.6265
   94SAPS  C312 9321   4.272   3.630   7.829  0.0119  0.1463  0.1519
   94SAPS  H12X 9322   4.258   3.740   7.823 -0.2498  0.2035  1.4998
   94SAPS  H12Y 9323   4.370   3.602   7.783 -0.1505  0.4529 -0.3827
   94SAPS  C313 9324   4.251   3.570   7.969 -0.0981  0.3837 -0.0273
   94SAPS  H13X 9325   4.252   3.459   7.961 -1.2675  0.4472 -1.4364
   94SAPS  H13Y 9326   4.158   3.616   8.010 -0.2263 -0.0924  0.2269
   94SAPS  C314 9327   4.362   3.596   8.067  0.4155 -0.0838 -0.6199
   94SAPS  H14X 9328   4.346   3.702   8.095 -0.0417  0.0563 -1.3781
   94SAPS  H14Y 9329   4.464   3.589   8.023 -0.2257 -0.5057 -2.0776
   94SAPS  C315 9330   4.375   3.516   8.198  0.1178 -0.2184  1.0951
   94SAPS  H15X 9331   4.289   3.551   8.258 -1.6887  1.5294 -2.2222
   94SAPS  H15Y 9332   4.470   3.548   8.248  0.5259  1.3078 -0.5622
   94SAPS  C316 9333   4.363   3.365   8.181 -0.6627 -0.5888 -0.1837
   94SAPS  H16X 9334   4.443   3.346   8.106  3.6259 -2.4285  4.2929
   94SAPS  H16Y 9335   4.274   3.332   8.122  0.2417  0.4636 -2.2567
   94SAPS  C317 9336   4.385   3.282   8.305 -0.0531  0.4326 -0.2361
   94SAPS  H17X 9337   4.341   3.334   8.393 -0.1990  0.6180 -0.4176
   94SAPS  H17Y 9338   4.490   3.293   8.339 -0.1683 -1.7960  1.0542
   94SAPS  C318 9339   4.339   3.139   8.286  0.0120 -0.2865 -0.5166
   94SAPS  H18X 9340   4.232   3.136   8.316  0.4136  3.7942  2.1885
   94SAPS  H18Y 9341   4.387   3.074   8.362  0.2762  0.6924  0.1791
   94SAPS  H18Z 9342   4.353   3.113   8.179 -3.0085 -0.1490 -1.0392
   95SAPS     N 9343   5.819   6.212   6.452  0.5206 -0.5674 -0.0369
   95SAPS   HN1 9344   5.819   6.224   6.555  2.9669 -2.5287  0.3057
   95SAPS   HN2 9345   5.733   6.161   6.422  0.5319 -0.5632 -0.0756
   95SAPS   HN3 9346   5.894   6.144   6.428  0.6532 -0.0459 -1.1668
   95SAPS   C12 9347   5.830   6.332   6.371  0.1034  0.0600 -0.0186
   95SAPS  H12A 9348   5.910   6.388   6.417  1.0654  0.3830 -1.9828
   95SAPS   C13 9349   5.864   6.300   6.219 -0.1166 -0.4102  0.1930
   95SAPS  O13A 9350   5.904   6.183   6.180  0.2275 -0.4578  0.2760
   95SAPS  O13B 9351   5.860   6.398   6.142  0.0580 -0.0204 -0.1059
   95SAPS   C11 9352   5.698   6.421   6.370  0.0639 -0.0515 -0.3931
   95SAPS  H11A 9353   5.609   6.364   6.337 -1.5174  2.6413 -1.0648
   95SAPS  H11B 9354   5.715   6.507   6.301  0.4723 -0.1238 -0.3870
   95SAPS     P 9355   5.587   6.582   6.549 -0.4426 -0.1769  0.0522
   95SAPS   O13 9356   5.651   6.705   6.509 -0.5704  0.5422  0.3288
   95SAPS   O14 9357   5.455   6.562   6.493  0.4500 -0.6501  0.8782
   95SAPS   O12 9358   5.682   6.458   6.505 -0.1954  0.2467 -0.1313
   95SAPS   O11 9359   5.598   6.564   6.708  0.2848 -0.7159  0.3580
   95SAPS    C1 9360   5.719   6.593   6.783  0.5041  0.3253 -0.1777
   95SAPS    HA 9361   5.774   6.680   6.740 -3.2997  2.0234 -2.1330
   95SAPS    HB 9362   5.692   6.622   6.887 -1.7605  0.6476 -0.8002
   95SAPS    C2 9363   5.804   6.463   6.798 -0.1058  0.6270 -0.6267
   95SAPS    HS 9364   5.842   6.432   6.699  2.3497  1.2018  0.0713
   95SAPS   O21 9365   5.729   6.357   6.857  0.1593  0.2322  0.4826
   95SAPS   C21 9366   5.767   6.237   6.815  0.0942  0.9422 -0.1576
   95SAPS   O22 9367   5.851   6.216   6.731 -0.3452 -0.2486 -0.3020
   95SAPS   C22 9368   5.691   6.131   6.896 -0.0825  0.2191 -0.3221
   95SAPS   H2R 9369   5.724   6.148   7.000  0.5859 -0.7533 -0.3638
   95SAPS   H2S 9370   5.581   6.142   6.908  0.2555  3.0112  0.8053
   95SAPS    C3 9371   5.939   6.493   6.888 -0.2831  0.0373  0.2878
   95SAPS    HX 9372   6.000   6.574   6.842 -0.9764  0.1276 -0.4911
   95SAPS    HY 9373   5.998   6.399   6.885 -1.3216 -0.8319  3.3054
   95SAPS   O31 9374   5.921   6.542   7.023  0.5230  0.1184 -0.1161
   95SAPS   C31 9375   6.035   6.560   7.095 -1.3383  0.2331  0.7211
   95SAPS   O32 9376   6.146   6.529   7.049 -0.1709  0.0313 -0.9648
   95SAPS   C32 9377   5.991   6.613   7.228  0.3923 -0.3152 -0.4945
   95SAPS   H2X 9378   5.898   6.562   7.262 -0.7703  3.1353  2.0327
   95SAPS   H2Y 9379   5.950   6.715   7.210 -1.6209 -0.9206  0.3237
   95SAPS   C23 9380   5.740   5.989   6.851 -0.0111  0.4456  0.1275
   95SAPS   H3R 9381   5.850   5.987   6.839  0.1598 -2.2987  1.3980
   95SAPS   H3S 9382   5.702   5.963   6.750  4.2754 -1.7572 -1.1714
   95SAPS   C24 9383   5.699   5.876   6.950  0.1082 -0.3252 -0.1256
   95SAPS   H4R 9384   5.744   5.916   7.044 -0.1770  0.3989 -0.2930
   95SAPS   H4S 9385   5.732   5.772   6.930 -1.2836 -1.1719  1.6667
   95SAPS   C25 9386   5.544   5.873   6.951  0.5082  0.0916  0.2412
   95SAPS   H5R 9387   5.491   5.824   6.867  0.5728 -0.2231  0.3820
   95SAPS   C26 9388   5.468   5.915   7.054 -0.1457 -0.4569 -0.2820
   95SAPS   H6R 9389   5.358   5.910   7.054 -0.1277 -0.9462  0.4852
   95SAPS   C27 9390   5.523   5.966   7.192 -0.9026  0.4601  0.2471
   95SAPS   H7R 9391   5.432   6.014   7.233 -1.9554 -0.5949 -0.7924
   95SAPS   H7S 9392   5.599   6.046   7.179  0.7764 -1.2412 -1.0080
   95SAPS   C28 9393   5.581   5.857   7.274  0.3976  0.0011 -0.3332
   95SAPS   H8R 9394   5.625   5.771   7.222 -2.1193 -0.7084 -1.4211
   95SAPS   C29 9395   5.594   5.849   7.407 -0.4748 -0.2163  0.1038
   95SAPS   H9R 9396   5.635   5.760   7.457 -0.9087  0.5145  1.8374
   95SAPS  C210 9397   5.546   5.948   7.509  0.0555 -0.4063  0.1133
   95SAPS  H10R 9398   5.436   5.951   7.521 -0.0038 -0.9925 -0.2104
   95SAPS  H10S 9399   5.572   6.051   7.477 -1.6669 -0.0187 -0.1249
   95SAPS  C211 9400   5.612   5.919   7.644  0.9147 -0.6650 -0.2825
   95SAPS  H11R 9401   5.696   5.984   7.673 -0.4075 -0.0111  2.3700
   95SAPS  C212 9402   5.575   5.828   7.740 -1.2919 -0.7464 -0.1972
   95SAPS  H12R 9403   5.638   5.831   7.830  1.5156 -2.8104 -1.9089
   95SAPS  C213 9404   5.460   5.733   7.732  0.6181 -0.0062  0.2637
   95SAPS  H13R 9405   5.421   5.734   7.628  0.1196  4.3696  0.3136
   95SAPS  H13S 9406   5.373   5.786   7.777  0.8435 -0.1115  0.8281
   95SAPS  C214 9407   5.462   5.599   7.791 -0.3724 -0.4263  0.1401
   95SAPS  H14R 9408   5.495   5.513   7.730  0.9869  1.5606 -2.1214
   95SAPS  C215 9409   5.451   5.577   7.927 -0.2042 -0.4132 -0.6682
   95SAPS  H15R 9410   5.458   5.471   7.956 -0.4019 -0.2939 -0.1870
   95SAPS  C216 9411   5.426   5.680   8.037 -0.0583 -0.4158 -0.0208
   95SAPS  H16R 9412   5.429   5.780   7.988 -0.2654 -0.0296  0.7386
   95SAPS  H16S 9413   5.507   5.672   8.113  0.1982  1.1412 -0.0974
   95SAPS  C217 9414   5.287   5.673   8.103 -0.8273 -0.2028  0.0470
   95SAPS  H17R 9415   5.213   5.637   8.028 -0.6471 -3.8224  1.3931
   95SAPS  H17S 9416   5.249   5.769   8.143 -0.6078  0.0832 -0.4175
   95SAPS  C218 9417   5.291   5.563   8.200 -0.0185  0.5873 -0.8170
   95SAPS  H18R 9418   5.371   5.594   8.270  0.0879  2.1214 -1.5910
   95SAPS  H18S 9419   5.310   5.466   8.148 -0.4197 -1.0380  1.8568
   95SAPS  C219 9420   5.163   5.549   8.281  0.2810 -0.2705  0.6003
   95SAPS  H19R 9421   5.084   5.518   8.210 -1.3240  1.8764  1.3610
   95SAPS  H19S 9422   5.135   5.644   8.331 -1.3146 -0.9744  1.0865
   95SAPS  C220 9423   5.175   5.424   8.382  0.4552 -0.1493  0.2718
   95SAPS  H20R 9424   5.176   5.330   8.323  0.6855 -0.4952  0.8186
   95SAPS  H20S 9425   5.091   5.417   8.454 -0.1232 -2.4405 -0.5393
   95SAPS  H20T 9426   5.270   5.439   8.438 -0.1128 -0.0944  1.2466
   95SAPS   C33 9427   6.104   6.607   7.333 -0.3511  0.6061  0.4466
   95SAPS   H3X 9428   6.183   6.681   7.308  1.7271 -1.1803  1.3608
   95SAPS   H3Y 9429   6.147   6.504   7.329  0.5861  1.0147 -0.3594
   95SAPS   C34 9430   6.055   6.628   7.474 -0.0841 -0.0777 -0.3965
   95SAPS   H4X 9431   6.000   6.536   7.502  3.7515 -2.8207 -1.1000
   95SAPS   H4Y 9432   5.978   6.708   7.475  2.1189  2.2354 -2.0110
   95SAPS   C35 9433   6.164   6.669   7.576 -0.3162  0.0484 -0.0880
   95SAPS   H5X 9434   6.226   6.753   7.539 -1.5638  1.5328  1.0679
   95SAPS   H5Y 9435   6.227   6.582   7.604 -2.8333 -1.8341  0.0684
   95SAPS   C36 9436   6.102   6.731   7.701  0.4042 -0.2536  0.3922
   95SAPS   H6X 9437   6.036   6.812   7.664  0.5009  0.3208  1.4133
   95SAPS   H6Y 9438   6.180   6.780   7.763  2.6173  1.8440 -3.6652
   95SAPS   C37 9439   6.017   6.638   7.784 -0.2363 -0.2781 -0.5939
   95SAPS   H7X 9440   6.061   6.538   7.805 -0.9479  0.0077  2.7448
   95SAPS   H7Y 9441   5.928   6.613   7.722 -2.0174  1.9515  0.8952
   95SAPS   C38 9442   5.973   6.718   7.906  0.6014 -0.7276  0.3529
   95SAPS   H8X 9443   5.873   6.677   7.930  0.3164 -0.2712 -0.0266
   95SAPS   H8Y 9444   5.960   6.824   7.874 -3.0639 -1.5802 -1.5151
   95SAPS   C39 9445   6.068   6.705   8.023 -0.6329  0.1916 -0.5265
   95SAPS   H9X 9446   6.175   6.712   7.992 -0.7080 -0.0820 -0.8524
   95SAPS   H9Y 9447   6.061   6.601   8.061  0.2442  0.4485  0.3885
   95SAPS  C310 9448   6.044   6.803   8.138  0.3710  0.0718  0.2597
   95SAPS  H10X 9449   5.934   6.815   8.145  0.3462 -0.1439  0.2661
   95SAPS  H10Y 9450   6.084   6.895   8.091 -1.7630  0.1412 -1.6383
   95SAPS  C311 9451   6.089   6.741   8.270 -0.2915 -0.1190 -0.8360
   95SAPS  H11X 9452   6.197   6.713   8.272 -0.2217 -0.0503  3.0228
   95SAPS  H11Y 9453   6.030   6.648   8.287 -2.1369  1.0470 -0.5600
   95SAPS  C312 9454   6.076   6.842   8.380  0.4341 -0.5034 -0.3486
   95SAPS  H12X 9455   6.097   6.800   8.481 -0.6888  2.9785  1.4885
   95SAPS  H12Y 9456   5.967   6.861   8.379 -0.0557 -2.9402 -1.7643
   95SAPS  C313 9457   6.178   6.961   8.367 -0.1912 -0.2439 -0.4955
   95SAPS  H13X 9458   6.147   7.016   8.276 -0.0632 -1.0242 -1.0252
   95SAPS  H13Y 9459   6.278   6.918   8.343  0.6195  1.0909  0.3094
   95SAPS  C314 9460   6.191   7.049   8.483 -0.9905 -0.2041 -0.9728
   95SAPS  H14X 9461   6.236   6.981   8.558  1.0312  0.9532 -1.0643
   95SAPS  H14Y 9462   6.084   7.069   8.503 -0.9385 -0.5712 -0.3033
   95SAPS  C315 9463   6.270   7.182   8.467  0.1681 -0.5958 -0.3707
   95SAPS  H15X 9464   6.238   7.238   8.376  0.0541 -0.9367 -0.5429
   95SAPS  H15Y 9465   6.378   7.163   8.451  0.7910 -0.7118  3.1894
   95SAPS  C316 9466   6.263   7.273   8.585  0.4180  0.1445 -0.1015
   95SAPS  H16X 9467   6.276   7.212   8.677 -3.5888  0.3653  0.7786
   95SAPS  H16Y 9468   6.164   7.323   8.586 -0.1855 -0.9914 -0.5240
   95SAPS  C317 9469   6.384   7.367   8.582 -0.8598  0.1505 -0.3024
   95SAPS  H17X 9470   6.389   7.436   8.494 -2.8742  1.3892  0.4778
   95SAPS  H17Y 9471   6.478   7.309   8.594 -1.5027 -0.7786  0.3297
   95SAPS  C318 9472   6.384   7.444   8.709 -0.3120  0.0903  0.3765
   95SAPS  H18X 9473   6.285   7.489   8.731  0.5805  1.2270  2.3211
   95SAPS  H18Y 9474   6.468   7.516   8.714  1.8326 -2.2572  0.3287
   95SAPS  H18Z 9475   6.405   7.376   8.795 -0.5831 -0.4189  0.0461
   96SAPS     N 9476   6.170   3.098   6.071 -0.4991  0.6278  0.1140
   96SAPS   HN1 9477   6.227   3.171   6.022 -0.4254 -1.3659 -3.0752
   96SAPS   HN2 9478   6.120   3.052   5.993 -1.2085  2.9744 -0.9147
   96SAPS   HN3 9479   6.096   3.147   6.125  2.0448  2.5357  2.1332
   96SAPS   C12 9480   6.252   3.010   6.160 -0.8527  1.0861  0.8986
   96SAPS  H12A 9481   6.180   2.937   6.196 -0.3946 -1.1276 -2.2248
   96SAPS   C13 9482   6.366   2.922   6.089  0.4863 -0.3124  0.6342
   96SAPS  O13A 9483   6.388   2.935   5.967 -0.5358  0.1425 -0.0520
   96SAPS  O13B 9484   6.415   2.835   6.163 -0.4180  0.2516 -0.7293
   96SAPS   C11 9485   6.308   3.090   6.280 -0.0105  0.8852 -0.3982
   96SAPS  H11A 9486   6.352   3.013   6.346 -0.7148 -0.4743 -1.4629
   96SAPS  H11B 9487   6.229   3.135   6.344  0.5370  2.4045 -0.7336
   96SAPS     P 9488   6.425   3.315   6.316  0.3493  0.0143 -0.1433
   96SAPS   O13 9489   6.566   3.358   6.323  0.4956  0.3758  0.0992
   96SAPS   O14 9490   6.337   3.424   6.266  0.0036  0.0706  1.5370
   96SAPS   O12 9491   6.415   3.183   6.240  0.1945  0.1046 -0.2198
   96SAPS   O11 9492   6.378   3.286   6.467  0.2877 -0.1363  0.3025
   96SAPS    C1 9493   6.453   3.196   6.552  0.2074 -0.0742  0.1928
   96SAPS    HA 9494   6.415   3.093   6.537 -0.5074 -0.1202  2.0628
   96SAPS    HB 9495   6.563   3.199   6.538  0.4973  0.6220  2.3136
   96SAPS    C2 9496   6.442   3.229   6.705  0.1567  0.5927  0.2049
   96SAPS    HS 9497   6.503   3.156   6.763 -0.9938  0.3504  1.1447
   96SAPS   O21 9498   6.306   3.220   6.736 -0.3502 -0.1770  0.1080
   96SAPS   C21 9499   6.270   3.168   6.854 -0.2387  0.5968 -0.8139
   96SAPS   O22 9500   6.356   3.116   6.927 -0.0407 -0.5470 -0.0968
   96SAPS   C22 9501   6.123   3.200   6.879  0.0469  0.4614  0.4698
   96SAPS   H2R 9502   6.087   3.261   6.794  2.8005  1.2682 -0.2427
   96SAPS   H2S 9503   6.068   3.104   6.878  1.0385 -0.1218  0.8169
   96SAPS    C3 9504   6.503   3.372   6.734 -0.0956  0.1175  0.1993
   96SAPS    HX 9505   6.466   3.444   6.658 -0.5751  0.8246  1.0900
   96SAPS    HY 9506   6.613   3.363   6.723 -0.2643  0.7883 -2.8854
   96SAPS   O31 9507   6.472   3.418   6.865 -0.2242 -0.1445 -0.4453
   96SAPS   C31 9508   6.546   3.370   6.962  0.4302  0.3795  0.2668
   96SAPS   O32 9509   6.636   3.283   6.952 -0.3832  0.2088 -0.0761
   96SAPS   C32 9510   6.509   3.421   7.095  0.1433 -0.0645  0.0599
   96SAPS   H2X 9511   6.435   3.503   7.081 -1.8481 -2.2840 -4.6491
   96SAPS   H2Y 9512   6.604   3.445   7.147 -0.2328 -2.2687  1.9386
   96SAPS   C23 9513   6.091   3.268   7.010  0.3385  0.1678 -0.0586
   96SAPS   H3R 9514   6.148   3.363   7.020 -2.0119  1.4286  2.7674
   96SAPS   H3S 9515   6.126   3.207   7.096  1.6523 -0.1297 -0.7721
   96SAPS   C24 9516   5.950   3.324   7.037 -0.1525  0.8188 -0.1256
   96SAPS   H4R 9517   5.912   3.384   6.952  1.1217  1.9164  0.0492
   96SAPS   H4S 9518   5.967   3.388   7.126  1.3277  0.0799  0.1631
   96SAPS   C25 9519   5.858   3.207   7.074  0.0071  0.1538 -0.3571
   96SAPS   H5R 9520   5.840   3.125   7.004  2.3750  0.0794 -0.9856
   96SAPS   C26 9521   5.794   3.193   7.190  0.5058 -0.2125  0.0140
   96SAPS   H6R 9522   5.735   3.104   7.214 -2.8988  1.4455 -1.5517
   96SAPS   C27 9523   5.798   3.286   7.304  0.0522  0.1836  0.5814
   96SAPS   H7R 9524   5.689   3.294   7.325 -0.7330  0.5521 -2.9998
   96SAPS   H7S 9525   5.834   3.385   7.267  1.5594 -1.7020 -3.6477
   96SAPS   C28 9526   5.880   3.229   7.416 -1.2113 -0.4717  0.3836
   96SAPS   H8R 9527   5.972   3.177   7.385 -0.6483 -0.1193  1.4428
   96SAPS   C29 9528   5.863   3.237   7.552 -0.0745 -0.0082  0.3387
   96SAPS   H9R 9529   5.937   3.194   7.621  0.6898  2.2226  1.0124
   96SAPS  C210 9530   5.754   3.313   7.623  0.3746 -0.7301  0.0633
   96SAPS  H10R 9531   5.693   3.369   7.549  0.4697  0.0834  0.5941
   96SAPS  H10S 9532   5.806   3.398   7.671  0.2587 -1.0553  0.7715
   96SAPS  C211 9533   5.678   3.238   7.723 -0.8496 -0.8911 -0.5982
   96SAPS  H11R 9534   5.571   3.229   7.698 -1.3303  0.5557  0.8016
   96SAPS  C212 9535   5.715   3.197   7.838 -0.0932  0.0028 -0.1883
   96SAPS  H12R 9536   5.641   3.154   7.907  2.1449 -2.6947  0.7358
   96SAPS  C213 9537   5.854   3.202   7.894  0.2092 -0.7411 -0.3437
   96SAPS  H13R 9538   5.841   3.235   7.999 -0.6667 -1.4756 -0.2137
   96SAPS  H13S 9539   5.915   3.279   7.842  0.3816 -0.1668  0.6887
   96SAPS  C214 9540   5.929   3.070   7.895 -0.5469 -0.3149  0.1615
   96SAPS  H14R 9541   5.937   3.017   7.799 -1.3219 -4.9842  2.3759
   96SAPS  C215 9542   5.980   3.004   7.996 -1.0399  0.0328  0.5460
   96SAPS  H15R 9543   6.024   2.905   7.978 -1.5489 -0.0479 -0.3158
   96SAPS  C216 9544   5.973   3.035   8.139  0.4977 -0.5235  0.2571
   96SAPS  H16R 9545   5.920   2.951   8.187  0.9672  0.0727  1.8839
   96SAPS  H16S 9546   5.909   3.120   8.171 -0.1629  0.1737 -2.6097
   96SAPS  C217 9547   6.115   3.057   8.206  0.3738 -0.3175 -0.1289
   96SAPS  H17R 9548   6.173   3.127   8.142 -1.1909  0.3738 -0.8527
   96SAPS  H17S 9549   6.177   2.965   8.197  1.1991  0.1015  1.0904
   96SAPS  C218 9550   6.102   3.110   8.344  0.0413  0.1492  0.2353
   96SAPS  H18R 9551   6.066   3.215   8.348  0.8283  0.5323 -1.6259
   96SAPS  H18S 9552   6.199   3.117   8.398 -0.2862  0.9026  0.7482
   96SAPS  C219 9553   6.023   3.018   8.435  0.2213 -0.2709  0.1684
   96SAPS  H19R 9554   6.079   2.923   8.422  2.2070  0.7900  0.5360
   96SAPS  H19S 9555   5.918   3.005   8.401  0.0086  1.1937  0.1769
   96SAPS  C220 9556   6.023   3.066   8.576  0.0068 -0.4345 -0.1431
   96SAPS  H20R 9557   6.110   3.025   8.633 -1.0676 -2.4062  0.1623
   96SAPS  H20S 9558   5.932   3.034   8.631  0.2741 -1.4694 -0.2915
   96SAPS  H20T 9559   6.031   3.176   8.589  1.7995  0.2598 -5.0495
   96SAPS   C33 9560   6.453   3.306   7.180 -0.3018  0.3861 -0.5723
   96SAPS   H3X 9561   6.523   3.221   7.182 -1.1414 -0.3199 -0.6794
   96SAPS   H3Y 9562   6.352   3.271   7.149 -0.8335  2.6411 -1.6645
   96SAPS   C34 9563   6.437   3.346   7.334 -0.2901  0.6098  0.5075
   96SAPS   H4X 9564   6.530   3.399   7.362  0.7520 -0.1593 -1.3267
   96SAPS   H4Y 9565   6.428   3.254   7.395  1.9197 -0.1034 -0.1787
   96SAPS   C35 9566   6.316   3.436   7.352 -0.5900 -0.2403  0.1711
   96SAPS   H5X 9567   6.231   3.368   7.329  0.2869 -1.2371 -0.2082
   96SAPS   H5Y 9568   6.317   3.529   7.291 -2.0664 -0.5975 -0.4461
   96SAPS   C36 9569   6.292   3.468   7.496 -0.2274 -0.0567  0.4971
   96SAPS   H6X 9570   6.234   3.562   7.511  1.0340  0.7768  0.3208
   96SAPS   H6Y 9571   6.384   3.490   7.555 -0.2397 -0.3252  0.6189
   96SAPS   C37 9572   6.215   3.353   7.562  0.4758  0.4942  0.5554
   96SAPS   H7X 9573   6.265   3.254   7.561 -0.2703  0.1031  0.0981
   96SAPS   H7Y 9574   6.132   3.324   7.493  1.1597 -0.5678  0.1508
   96SAPS   C38 9575   6.148   3.385   7.686 -0.1673  0.3386 -0.3719
   96SAPS   H8X 9576   6.089   3.296   7.719  1.5041 -0.5619  0.3253
   96SAPS   H8Y 9577   6.070   3.464   7.678 -1.3697 -0.6013  1.3352
   96SAPS   C39 9578   6.252   3.414   7.800  0.1028  0.5559 -0.6100
   96SAPS   H9X 9579   6.298   3.512   7.774  0.8552  0.4558  0.3073
   96SAPS   H9Y 9580   6.326   3.331   7.797 -0.8121 -0.3281 -4.1468
   96SAPS  C310 9581   6.182   3.432   7.934  0.2390  0.0775  0.5948
   96SAPS  H10X 9582   6.256   3.476   8.004 -0.0188  0.5637  0.5642
   96SAPS  H10Y 9583   6.134   3.341   7.975  0.0506  0.1862  0.6156
   96SAPS  C311 9584   6.072   3.547   7.941 -0.6493  0.0813  0.3118
   96SAPS  H11X 9585   5.982   3.513   7.886  0.4951 -1.1628 -0.8805
   96SAPS  H11Y 9586   6.115   3.633   7.885  0.2888 -0.2011  0.5841
   96SAPS  C312 9587   6.047   3.596   8.084  0.1877  0.0162 -0.0342
   96SAPS  H12X 9588   5.977   3.682   8.078  0.0753  0.0195  1.0392
   96SAPS  H12Y 9589   6.133   3.625   8.148  0.4873 -1.5043  0.2849
   96SAPS  C313 9590   5.967   3.493   8.167  0.4408 -0.3922  0.2580
   96SAPS  H13X 9591   6.007   3.390   8.154  2.8639  0.4345  0.5154
   96SAPS  H13Y 9592   5.862   3.493   8.132  0.8293 -0.0699 -0.9737
   96SAPS  C314 9593   5.973   3.534   8.319 -0.3859 -0.1862 -0.1181
   96SAPS  H14X 9594   5.966   3.645   8.325  1.9070 -0.0536  0.8273
   96SAPS  H14Y 9595   6.076   3.507   8.348 -0.3399 -1.8742 -1.7228
   96SAPS  C315 9596   5.861   3.470   8.398  0.0514 -0.0257 -0.3765
   96SAPS  H15X 9597   5.855   3.369   8.353 -0.8596  0.1451 -0.6736
   96SAPS  H15Y 9598   5.768   3.528   8.376  1.1170  1.3572 -1.4532
   96SAPS  C316 9599   5.893   3.465   8.547 -0.2671  0.2377 -0.7378
   96SAPS  H16X 9600   5.881   3.562   8.601  0.6647 -0.8535  1.5564
   96SAPS  H16Y 9601   6.001   3.442   8.555  0.0193  1.4274 -0.9363
   96SAPS  C317 9602   5.801   3.373   8.628  0.3096  0.3770  0.3660
   96SAPS  H17X 9603   5.814   3.278   8.572 -1.3556  1.6342 -2.3403
   96SAPS  H17Y 9604   5.692   3.391   8.624  0.3550  0.8809  1.2790
   96SAPS  C318 9605   5.857   3.363   8.771 -0.0703  0.4936  0.3411
   96SAPS  H18X 9606   5.816   3.275   8.824  0.1281  0.0511 -0.2302
   96SAPS  H18Y 9607   5.829   3.451   8.833 -1.0310 -0.5148  1.3742
   96SAPS  H18Z 9608   5.968   3.363   8.766 -0.0575  1.7765  0.3069
   97SAPS     N 9609   0.182   1.184   6.137 -0.1470 -0.2679 -0.2145
   97SAPS   HN1 9610   0.212   1.185   6.037  0.6300 -0.1885  0.0114
   97SAPS   HN2 9611   0.079   1.198   6.140 -0.6645 -3.5461  0.6540
   97SAPS   HN3 9612   0.231   1.254   6.195  0.2267 -1.5291  1.0433
   97SAPS   C12 9613   0.213   1.056   6.208 -0.5485  0.4881  0.0307
   97SAPS  H12A 9614   0.188   1.079   6.311  0.9884  0.5359  0.4092
   97SAPS   C13 9615   0.137   0.932   6.151 -0.0858  1.1232  1.3353
   97SAPS  O13A 9616   0.078   0.945   6.041  0.1747  0.4932  0.2277
   97SAPS  O13B 9617   0.184   0.820   6.190 -0.5339  0.4077  0.4464
   97SAPS   C11 9618   0.370   1.023   6.202 -0.3140  0.9778  0.3885
   97SAPS  H11A 9619   0.411   1.015   6.099 -1.6811 -2.2397 -0.0256
   97SAPS  H11B 9620   0.381   0.920   6.243  1.3322 -0.0574 -2.3567
   97SAPS     P 9621   0.479   1.080   6.429  0.2645 -0.3388 -0.1475
   97SAPS   O13 9622   0.433   0.943   6.458  0.2275  0.1215 -0.2068
   97SAPS   O14 9623   0.621   1.118   6.455 -0.0032  0.0660  0.4346
   97SAPS   O12 9624   0.449   1.118   6.276  0.1875 -0.1489  0.3102
   97SAPS   O11 9625   0.387   1.181   6.505  0.8005 -0.2407  0.1958
   97SAPS    C1 9626   0.275   1.129   6.583  0.7689 -0.6347  0.2056
   97SAPS    HA 9627   0.194   1.205   6.585  1.5597  0.2241  0.2765
   97SAPS    HB 9628   0.237   1.031   6.547  0.0244 -0.3167  0.1035
   97SAPS    C2 9629   0.307   1.127   6.732  0.0252 -0.1082 -0.4179
   97SAPS    HS 9630   0.316   1.234   6.762  0.7678  0.3097 -1.9945
   97SAPS   O21 9631   0.433   1.058   6.748 -0.0729 -0.3681 -0.8429
   97SAPS   C21 9632   0.537   1.143   6.761 -0.5751 -0.2807  0.3300
   97SAPS   O22 9633   0.537   1.265   6.758 -0.3045 -0.1956 -0.1956
   97SAPS   C22 9634   0.669   1.066   6.795  0.8497 -0.3773  0.7338
   97SAPS   H2R 9635   0.687   1.007   6.702 -0.3946 -1.6902  1.2803
   97SAPS   H2S 9636   0.742   1.146   6.820  0.6096  0.5068 -1.1911
   97SAPS    C3 9637   0.194   1.053   6.809 -0.3399 -0.1151  0.0268
   97SAPS    HX 9638   0.185   0.949   6.770 -1.4301  0.2039 -0.6059
   97SAPS    HY 9639   0.099   1.107   6.791  0.4271  0.5966 -2.1213
   97SAPS   O31 9640   0.216   1.049   6.956  0.7335 -0.1080  1.2206
   97SAPS   C31 9641   0.267   0.937   7.011  0.0344 -0.9841 -0.1344
   97SAPS   O32 9642   0.301   0.841   6.952  0.0751 -0.2923  0.0840
   97SAPS   C32 9643   0.274   0.954   7.164 -0.3035 -0.0802 -0.2768
   97SAPS   H2X 9644   0.168   0.975   7.187 -1.2673 -0.4580 -3.8448
   97SAPS   H2Y 9645   0.343   1.038   7.190 -0.0876 -0.1477 -0.6256
   97SAPS   C23 9646   0.640   0.974   6.919 -0.2912  0.1180 -0.4026
   97SAPS   H3R 9647   0.721   0.899   6.934 -0.7061 -0.5163 -1.2408
   97SAPS   H3S 9648   0.543   0.922   6.910 -1.0429  1.2632  0.7040
   97SAPS   C24 9649   0.629   1.064   7.046  0.2677  0.9891 -0.2471
   97SAPS   H4R 9650   0.585   1.009   7.132  0.3879  1.7831  0.3341
   97SAPS   H4S 9651   0.568   1.154   7.023 -1.2111 -0.3437 -1.8653
   97SAPS   C25 9652   0.766   1.104   7.087  0.7013 -0.7003 -0.5750
   97SAPS   H5R 9653   0.834   1.111   7.001 -0.1863  0.8294 -1.1736
   97SAPS   C26 9654   0.810   1.144   7.206 -0.1136  0.5722 -0.6131
   97SAPS   H6R 9655   0.918   1.162   7.217  0.2924 -1.7352 -0.2141
   97SAPS   C27 9656   0.725   1.143   7.327  0.4629  0.0284 -0.0305
   97SAPS   H7R 9657   0.715   1.036   7.355  2.2110  0.1761  1.3988
   97SAPS   H7S 9658   0.623   1.174   7.298 -0.6060 -1.6245  1.7227
   97SAPS   C28 9659   0.777   1.224   7.441  0.7034 -0.1522 -0.1999
   97SAPS   H8R 9660   0.742   1.328   7.450 -0.1848 -0.4082 -0.5584
   97SAPS   C29 9661   0.849   1.181   7.541  0.2213  0.3608 -0.2484
   97SAPS   H9R 9662   0.877   1.257   7.615 -0.1127 -0.9221  1.2595
   97SAPS  C210 9663   0.901   1.036   7.570  1.2041  0.0936  0.4817
   97SAPS  H10R 9664   0.844   0.962   7.509 -0.1831  2.3108 -1.0535
   97SAPS  H10S 9665   0.894   1.009   7.678  0.2812  2.7682  1.1577
   97SAPS  C211 9666   1.046   1.019   7.530 -0.0599  0.4076 -0.3044
   97SAPS  H11R 9667   1.055   0.983   7.427 -1.0755 -0.8462  0.0273
   97SAPS  C212 9668   1.157   1.030   7.611  0.2764  0.2712  0.5498
   97SAPS  H12R 9669   1.258   1.006   7.573  0.3381  0.5576  0.5304
   97SAPS  C213 9670   1.166   1.063   7.757 -0.8136  0.2139  0.1019
   97SAPS  H13R 9671   1.070   1.110   7.789 -0.6893 -0.9783  2.4468
   97SAPS  H13S 9672   1.248   1.137   7.771  1.3095 -1.9143 -0.5094
   97SAPS  C214 9673   1.190   0.930   7.832 -0.4401  0.1516  0.0239
   97SAPS  H14R 9674   1.235   0.851   7.771 -0.9476  1.5675 -2.3035
   97SAPS  C215 9675   1.153   0.893   7.955  0.2971  0.4871  0.0835
   97SAPS  H15R 9676   1.186   0.790   7.975 -1.3164  0.3352  2.4425
   97SAPS  C216 9677   1.071   0.967   8.058 -0.5178  0.2735 -0.9485
   97SAPS  H16R 9678   1.054   0.898   8.144  1.7949  1.3209  0.4675
   97SAPS  H16S 9679   0.972   0.988   8.013 -1.1321 -1.8895 -0.7015
   97SAPS  C217 9680   1.139   1.099   8.102 -0.1734  1.2212  0.0666
   97SAPS  H17R 9681   1.079   1.158   8.175  0.1816  2.5761 -0.7007
   97SAPS  H17S 9682   1.138   1.160   8.010  0.6041 -0.6080 -1.2195
   97SAPS  C218 9683   1.285   1.099   8.143  0.1634  0.0712  0.5366
   97SAPS  H18R 9684   1.317   1.205   8.145 -0.1955  0.2143 -0.5765
   97SAPS  H18S 9685   1.337   1.054   8.056  1.7430  0.0018  1.4879
   97SAPS  C219 9686   1.342   1.032   8.265 -0.3434  0.1278 -0.3119
   97SAPS  H19R 9687   1.452   1.046   8.264 -0.2425 -0.6305 -1.1392
   97SAPS  H19S 9688   1.321   0.924   8.258 -0.2579  0.1781 -1.6479
   97SAPS  C220 9689   1.282   1.086   8.390 -0.3915 -0.2636 -0.3667
   97SAPS  H20R 9690   1.311   1.190   8.416 -0.4772  0.3003 -2.3606
   97SAPS  H20S 9691   1.322   1.027   8.475  1.9509 -0.9431 -1.8562
   97SAPS  H20T 9692   1.173   1.079   8.367 -0.8214  0.0110  1.4432
   97SAPS   C33 9693   0.318   0.828   7.244  0.8477  0.5834  0.0995
   97SAPS   H3X 9694   0.412   0.787   7.201 -0.1356 -0.6141 -1.0117
   97SAPS   H3Y 9695   0.241   0.751   7.223  1.3590  0.5648 -1.9337
   97SAPS   C34 9696   0.340   0.852   7.397 -0.6225  0.1342  0.3481
   97SAPS   H4X 9697   0.418   0.931   7.401  1.0259 -1.4725  2.7187
   97SAPS   H4Y 9698   0.384   0.763   7.447  0.2741  1.0495  1.2232
   97SAPS   C35 9699   0.210   0.888   7.477  0.6325 -0.3978  0.7024
   97SAPS   H5X 9700   0.141   0.801   7.475  0.6523 -0.4079 -1.3338
   97SAPS   H5Y 9701   0.172   0.977   7.423  2.7210 -0.5998 -1.2357
   97SAPS   C36 9702   0.231   0.915   7.628 -0.4577 -0.6781  0.6596
   97SAPS   H6X 9703   0.248   0.815   7.672 -2.0540 -0.5452  1.6517
   97SAPS   H6Y 9704   0.131   0.950   7.662 -1.2826 -0.7817 -1.5646
   97SAPS   C37 9705   0.340   1.017   7.646 -1.4292 -0.2931 -0.5375
   97SAPS   H7X 9706   0.317   1.103   7.579 -1.1239 -0.3727 -0.7467
   97SAPS   H7Y 9707   0.445   0.988   7.627 -0.6550  2.1224 -0.2692
   97SAPS   C38 9708   0.343   1.066   7.793 -0.2456  0.0156  0.4982
   97SAPS   H8X 9709   0.365   0.981   7.861  1.9112  2.7311  3.4586
   97SAPS   H8Y 9710   0.237   1.094   7.807  0.2837  2.9509 -0.6545
   97SAPS   C39 9711   0.434   1.186   7.812  0.1444 -0.3768  0.2819
   97SAPS   H9X 9712   0.399   1.227   7.909 -2.9960 -1.6844 -0.1915
   97SAPS   H9Y 9713   0.410   1.259   7.732 -0.2270 -0.8921 -0.0790
   97SAPS  C310 9714   0.586   1.171   7.812 -0.5067 -0.1744 -0.1401
   97SAPS  H10X 9715   0.629   1.273   7.828 -0.1837 -0.4131  0.5645
   97SAPS  H10Y 9716   0.633   1.132   7.719  3.4296 -2.6492  2.5716
   97SAPS  C311 9717   0.646   1.074   7.920  0.3147 -0.2665  0.5476
   97SAPS  H11X 9718   0.749   1.045   7.891 -0.0263 -1.0209  0.0592
   97SAPS  H11Y 9719   0.578   0.987   7.922  0.7447 -0.5980  0.8903
   97SAPS  C312 9720   0.635   1.137   8.057  0.4918 -1.0178  1.0305
   97SAPS  H12X 9721   0.526   1.155   8.068  0.6695 -0.5792  2.3062
   97SAPS  H12Y 9722   0.709   1.220   8.063 -0.0898 -0.5255  1.4961
   97SAPS  C313 9723   0.680   1.046   8.178  0.1941 -0.0896  0.0677
   97SAPS  H13X 9724   0.782   1.007   8.154  0.7875  1.3024  0.2447
   97SAPS  H13Y 9725   0.612   0.963   8.207  2.1880 -2.2033 -0.9245
   97SAPS  C314 9726   0.694   1.128   8.308 -0.3538  0.1947 -0.3242
   97SAPS  H14X 9727   0.729   1.230   8.281  1.9743 -0.2021  0.9846
   97SAPS  H14Y 9728   0.781   1.084   8.360 -0.6194 -2.0148 -1.5864
   97SAPS  C315 9729   0.570   1.132   8.391 -0.4823  0.2302 -0.1912
   97SAPS  H15X 9730   0.531   1.030   8.408 -0.0849  0.1896  0.5016
   97SAPS  H15Y 9731   0.492   1.192   8.339 -2.0002 -2.0143 -0.6632
   97SAPS  C316 9732   0.591   1.200   8.533  0.8274 -0.4883 -0.4633
   97SAPS  H16X 9733   0.609   1.309   8.518  0.1012 -0.1956  0.6605
   97SAPS  H16Y 9734   0.677   1.146   8.577  1.7955 -0.5788 -2.3677
   97SAPS  C317 9735   0.464   1.177   8.619  0.3367  0.6402 -1.1663
   97SAPS  H17X 9736   0.449   1.067   8.615 -0.9852  0.8295 -1.7215
   97SAPS  H17Y 9737   0.369   1.211   8.574 -1.1989 -0.3272  1.1251
   97SAPS  C318 9738   0.469   1.241   8.761  0.3754  1.1390  0.5586
   97SAPS  H18X 9739   0.372   1.220   8.809 -0.5529  1.3154 -1.1711
   97SAPS  H18Y 9740   0.492   1.350   8.754  0.7432  0.9802 -1.2054
   97SAPS  H18Z 9741   0.554   1.200   8.820  1.2326  0.6242 -0.9751
   98SAPS     N 9742   5.116   3.627   5.962  0.5515  0.9302 -0.3989
   98SAPS   HN1 9743   5.191   3.584   6.019  0.4941  1.1428 -0.1623
   98SAPS   HN2 9744   5.169   3.654   5.876 -0.5823 -1.0720 -1.8088
   98SAPS   HN3 9745   5.076   3.714   6.004  1.3326  0.5569  1.2021
   98SAPS   C12 9746   5.014   3.531   5.922 -0.4768  0.4637 -1.0676
   98SAPS  H12A 9747   4.924   3.571   5.965  1.3031  1.6182  1.8266
   98SAPS   C13 9748   4.993   3.531   5.767 -0.0022 -0.1070 -0.6267
   98SAPS  O13A 9749   5.081   3.590   5.695  0.5418 -0.0035  0.2544
   98SAPS  O13B 9750   4.887   3.484   5.717 -0.1962  0.8632  0.7418
   98SAPS   C11 9751   5.047   3.386   5.982  0.2726  0.3450  0.1282
   98SAPS  H11A 9752   5.149   3.360   5.946  0.1587 -0.7829  0.5773
   98SAPS  H11B 9753   4.980   3.313   5.931  0.9983 -1.1705  1.2551
   98SAPS     P 9754   4.950   3.274   6.204  0.3676  0.5169  0.3852
   98SAPS   O13 9755   4.817   3.285   6.138  0.0722  0.0045 -0.5215
   98SAPS   O14 9756   5.005   3.140   6.229 -0.0094 -0.0480 -0.0920
   98SAPS   O12 9757   5.048   3.369   6.120 -0.8006  0.5102 -0.2869
   98SAPS   O11 9758   4.940   3.365   6.337  0.3587  0.2693 -0.4050
   98SAPS    C1 9759   5.068   3.386   6.405  0.5341  0.0312  0.0723
   98SAPS    HA 9760   5.134   3.297   6.407  1.7341  0.7819 -2.4540
   98SAPS    HB 9761   5.117   3.474   6.359 -2.1229  2.9134  2.3021
   98SAPS    C2 9762   5.042   3.434   6.548 -0.0692 -0.4686  0.2030
   98SAPS    HS 9763   5.015   3.340   6.600  0.6380 -0.8018 -0.0141
   98SAPS   O21 9764   4.929   3.526   6.551  0.9580  0.2052  0.5893
   98SAPS   C21 9765   4.856   3.521   6.665 -0.2279 -0.1211 -0.3108
   98SAPS   O22 9766   4.867   3.441   6.758  0.6980 -0.0045  0.7251
   98SAPS   C22 9767   4.751   3.628   6.667  0.4887  0.9281  0.4717
   98SAPS   H2R 9768   4.787   3.712   6.605 -0.7279  1.4809  0.4754
   98SAPS   H2S 9769   4.655   3.585   6.632  0.8713 -2.1251  2.7361
   98SAPS    C3 9770   5.164   3.506   6.623  0.0052 -0.9471  0.1914
   98SAPS    HX 9771   5.182   3.596   6.561 -0.4429  0.0621  1.4792
   98SAPS    HY 9772   5.256   3.443   6.619  0.7802  0.1371  0.6135
   98SAPS   O31 9773   5.133   3.546   6.758 -0.2529 -0.3057 -0.6996
   98SAPS   C31 9774   5.154   3.451   6.855 -0.2329  0.9546  0.1514
   98SAPS   O32 9775   5.220   3.353   6.837 -0.3974 -0.0756  0.5053
   98SAPS   C32 9776   5.091   3.495   6.989  1.0979 -0.5038  0.4289
   98SAPS   H2X 9777   4.988   3.533   6.967  1.5255  1.7654  2.0507
   98SAPS   H2Y 9778   5.159   3.570   7.034  0.9426 -0.3338  0.3824
   98SAPS   C23 9779   4.723   3.668   6.815 -0.3667 -0.5381  0.0784
   98SAPS   H3R 9780   4.821   3.707   6.850 -1.2801  0.7078  1.3401
   98SAPS   H3S 9781   4.695   3.584   6.882 -0.7199 -0.2105  0.3454
   98SAPS   C24 9782   4.626   3.788   6.824  0.4361 -0.2022  0.5581
   98SAPS   H4R 9783   4.658   3.884   6.778 -1.8434  1.2494  1.8102
   98SAPS   H4S 9784   4.633   3.824   6.929  0.4079 -1.5390  1.0336
   98SAPS   C25 9785   4.483   3.756   6.780 -0.6509 -0.0488 -0.6043
   98SAPS   H5R 9786   4.483   3.734   6.672  0.3158 -3.0480 -0.0869
   98SAPS   C26 9787   4.366   3.773   6.842 -0.4776  0.4391  0.4021
   98SAPS   H6R 9788   4.276   3.730   6.796  0.8250  1.3634 -3.3913
   98SAPS   C27 9789   4.336   3.834   6.978 -0.6157  0.1363 -0.1100
   98SAPS   H7R 9790   4.426   3.815   7.041 -1.3002  0.4072  0.9729
   98SAPS   H7S 9791   4.256   3.773   7.025 -0.4762  0.3999  0.4831
   98SAPS   C28 9792   4.301   3.975   6.973  0.5357 -0.8114  0.1212
   98SAPS   H8R 9793   4.346   4.028   6.887  0.2800  0.8805  0.9878
   98SAPS   C29 9794   4.231   4.049   7.059 -0.4834  0.2345  0.6788
   98SAPS   H9R 9795   4.219   4.155   7.031  0.0863  0.7840  2.3630
   98SAPS  C210 9796   4.183   3.991   7.193 -0.0321 -0.2230  0.6706
   98SAPS  H10R 9797   4.205   4.063   7.275  1.3232  0.2668 -0.0962
   98SAPS  H10S 9798   4.231   3.893   7.212  0.4756 -0.2181 -0.5359
   98SAPS  C211 9799   4.034   3.973   7.160 -0.0235  0.2234 -0.0113
   98SAPS  H11R 9800   4.000   3.959   7.057 -0.8370  2.2744 -0.0794
   98SAPS  C212 9801   3.933   3.991   7.243  0.0550 -0.3674  0.1038
   98SAPS  H12R 9802   3.828   3.970   7.220  0.1434 -2.9482  1.5910
   98SAPS  C213 9803   3.953   4.025   7.384 -0.2507 -0.6156 -0.5725
   98SAPS  H13R 9804   3.970   4.134   7.395 -2.3668  0.0166 -2.6525
   98SAPS  H13S 9805   4.051   3.995   7.427  0.2813 -1.0168 -2.0039
   98SAPS  C214 9806   3.859   3.955   7.479  0.2705 -0.3870 -0.5606
   98SAPS  H14R 9807   3.814   3.862   7.441 -0.7966 -1.5463  3.1835
   98SAPS  C215 9808   3.841   3.986   7.610 -0.4095 -1.0791 -0.7550
   98SAPS  H15R 9809   3.778   3.922   7.673  0.4688 -0.5497  0.7195
   98SAPS  C216 9810   3.902   4.106   7.687 -0.1601 -0.2794 -0.0665
   98SAPS  H16R 9811   3.821   4.162   7.740  0.3688 -0.7383  1.2725
   98SAPS  H16S 9812   3.926   4.192   7.621 -0.4712  0.0338  0.2211
   98SAPS  C217 9813   4.023   4.075   7.777  0.0257 -0.3991  0.0131
   98SAPS  H17R 9814   4.058   4.174   7.815  0.9574 -0.7116 -0.0004
   98SAPS  H17S 9815   4.102   4.031   7.712  0.1585 -1.2054  0.7010
   98SAPS  C218 9816   3.981   3.999   7.895 -0.3584  0.4753 -0.4449
   98SAPS  H18R 9817   3.929   3.904   7.871  0.3348 -1.0416  3.2992
   98SAPS  H18S 9818   3.903   4.055   7.951 -0.2038 -1.4242  1.8199
   98SAPS  C219 9819   4.095   3.957   7.993  0.3071  0.0595 -0.2672
   98SAPS  H19R 9820   4.155   4.046   8.022  0.4375 -0.4724  1.1767
   98SAPS  H19S 9821   4.168   3.889   7.943 -0.3168  0.0737 -1.2342
   98SAPS  C220 9822   4.053   3.901   8.128 -0.5070  0.2255 -0.0935
   98SAPS  H20R 9823   3.989   3.811   8.116  0.3095 -0.3644 -0.0536
   98SAPS  H20S 9824   3.984   3.971   8.181 -0.2479  3.1575 -3.3201
   98SAPS  H20T 9825   4.133   3.882   8.203 -1.1011  2.1080  1.1015
   98SAPS   C33 9826   5.071   3.379   7.087 -0.6809  0.4818  0.5246
   98SAPS   H3X 9827   5.169   3.335   7.118 -0.7394 -0.0470 -0.0315
   98SAPS   H3Y 9828   5.019   3.289   7.049  0.7400 -1.0558  2.0521
   98SAPS   C34 9829   5.003   3.423   7.218 -0.8620  0.2323  0.0978
   98SAPS   H4X 9830   4.903   3.439   7.173 -1.2667 -3.4653 -0.6479
   98SAPS   H4Y 9831   5.058   3.514   7.250  0.6750  0.3150 -2.4727
   98SAPS   C35 9832   4.979   3.323   7.332  0.1003 -0.7085 -0.0479
   98SAPS   H5X 9833   5.059   3.324   7.408  1.2648 -0.1491 -1.2405
   98SAPS   H5Y 9834   4.969   3.222   7.286 -0.2261 -0.0681 -1.4661
   98SAPS   C36 9835   4.847   3.351   7.412  0.2524  1.0649  0.0230
   98SAPS   H6X 9836   4.756   3.319   7.355 -0.0455  1.2992  0.3629
   98SAPS   H6Y 9837   4.818   3.457   7.430 -1.4318  0.3652  1.8481
   98SAPS   C37 9838   4.853   3.285   7.555  0.0745 -0.1355  1.1821
   98SAPS   H7X 9839   4.890   3.372   7.613  2.1511 -0.3785  0.3095
   98SAPS   H7Y 9840   4.935   3.212   7.567  0.9769  0.9071  1.5070
   98SAPS   C38 9841   4.723   3.230   7.620 -0.5058 -0.1020  0.0481
   98SAPS   H8X 9842   4.737   3.207   7.728 -0.2630  0.0870  0.0591
   98SAPS   H8Y 9843   4.692   3.135   7.572 -0.6601  1.3388 -2.9508
   98SAPS   C39 9844   4.611   3.336   7.633  0.3088 -0.0017 -0.2043
   98SAPS   H9X 9845   4.529   3.295   7.696  0.2128 -1.4328 -1.2005
   98SAPS   H9Y 9846   4.573   3.353   7.530 -0.6073 -1.6374 -0.1746
   98SAPS  C310 9847   4.646   3.472   7.695  0.2570  0.1562  0.3131
   98SAPS  H10X 9848   4.555   3.536   7.688  1.7283  2.4307  0.9390
   98SAPS  H10Y 9849   4.723   3.529   7.639  0.2789  0.8826  1.0619
   98SAPS  C311 9850   4.697   3.471   7.845 -0.5608  0.9323 -0.6664
   98SAPS  H11X 9851   4.795   3.419   7.848 -0.4390  1.1096 -1.4231
   98SAPS  H11Y 9852   4.619   3.410   7.896  0.5851 -0.5308 -0.5851
   98SAPS  C312 9853   4.716   3.608   7.915 -0.1000  1.0225  0.2013
   98SAPS  H12X 9854   4.622   3.666   7.912 -0.8866 -0.1909  0.4449
   98SAPS  H12Y 9855   4.799   3.666   7.870  0.8423  1.4493  2.3387
   98SAPS  C313 9856   4.752   3.584   8.065 -0.4713 -0.0444  0.4470
   98SAPS  H13X 9857   4.852   3.537   8.076  0.4436  1.6627 -0.2363
   98SAPS  H13Y 9858   4.663   3.529   8.104 -0.9496  1.3348  1.3818
   98SAPS  C314 9859   4.759   3.716   8.145  0.3919  0.3677 -0.1662
   98SAPS  H14X 9860   4.668   3.777   8.133 -0.3255 -0.3926  1.0884
   98SAPS  H14Y 9861   4.847   3.779   8.120 -0.3342  1.8502  0.8888
   98SAPS  C315 9862   4.769   3.689   8.292  0.0407 -0.2460 -0.0188
   98SAPS  H15X 9863   4.865   3.639   8.319 -0.0134  0.1494  0.9551
   98SAPS  H15Y 9864   4.690   3.617   8.324 -0.4957  0.5635  0.5195
   98SAPS  C316 9865   4.760   3.826   8.363  0.4439  0.9478 -0.1437
   98SAPS  H16X 9866   4.737   3.809   8.470 -2.6066  2.3275 -0.4604
   98SAPS  H16Y 9867   4.670   3.884   8.332 -1.1636 -1.1685  0.2966
   98SAPS  C317 9868   4.896   3.902   8.362 -0.1437 -0.6425 -0.2247
   98SAPS  H17X 9869   4.920   3.937   8.260 -0.7406 -1.0253 -0.5065
   98SAPS  H17Y 9870   4.963   3.831   8.415  0.1104  0.1190  0.4886
   98SAPS  C318 9871   4.889   4.028   8.440  0.0947  0.2005 -0.6607
   98SAPS  H18X 9872   4.918   4.014   8.547  1.4483  0.5464 -0.9595
   98SAPS  H18Y 9873   4.793   4.079   8.423  0.1296  0.0700 -1.2462
   98SAPS  H18Z 9874   4.974   4.092   8.408  1.6753 -0.6740  1.5016
   99SAPS     N 9875   5.905   5.096   6.304  0.2434  0.3682  0.2388
   99SAPS   HN1 9876   5.917   5.199   6.292  0.1988  0.5044  1.2989
   99SAPS   HN2 9877   5.933   5.088   6.404  1.1321  0.0032 -0.0270
   99SAPS   HN3 9878   5.972   5.045   6.243  0.2887  0.8814 -0.1486
   99SAPS   C12 9879   5.761   5.069   6.272 -0.0898 -0.9331 -0.3534
   99SAPS  H12A 9880   5.734   5.120   6.181 -0.6207  1.1690  0.9294
   99SAPS   C13 9881   5.722   4.926   6.244  0.2905 -0.4151  0.2960
   99SAPS  O13A 9882   5.805   4.834   6.234  0.0215 -0.1077  0.1164
   99SAPS  O13B 9883   5.611   4.907   6.184 -0.2076 -0.4200 -0.0524
   99SAPS   C11 9884   5.676   5.126   6.387  0.4200 -1.0447 -0.1935
   99SAPS  H11A 9885   5.715   5.096   6.486 -1.5084  1.8904  1.5956
   99SAPS  H11B 9886   5.572   5.088   6.377  0.3711 -0.3056 -3.9161
   99SAPS     P 9887   5.580   5.373   6.338 -0.2463  0.0424  0.2137
   99SAPS   O13 9888   5.649   5.500   6.336 -0.2769 -0.5028  0.6269
   99SAPS   O14 9889   5.531   5.329   6.206  0.2730 -0.4557  0.0477
   99SAPS   O12 9890   5.685   5.269   6.384 -0.5085  0.2037  0.3306
   99SAPS   O11 9891   5.462   5.380   6.437 -0.0596  0.4517 -0.3217
   99SAPS    C1 9892   5.482   5.420   6.575  0.3920  0.0698 -0.2036
   99SAPS    HA 9893   5.572   5.373   6.621 -0.4855 -0.3577  1.1309
   99SAPS    HB 9894   5.485   5.530   6.586 -0.4620  0.4392 -2.9386
   99SAPS    C2 9895   5.359   5.362   6.660  0.5156  0.0336 -0.5693
   99SAPS    HS 9896   5.261   5.391   6.617 -0.7842 -1.4213  1.2632
   99SAPS   O21 9897   5.368   5.399   6.798  0.0198 -0.4239 -0.7113
   99SAPS   C21 9898   5.306   5.514   6.832  0.1469 -0.0832 -0.1959
   99SAPS   O22 9899   5.260   5.592   6.751  0.7395 -0.4489  0.1131
   99SAPS   C22 9900   5.315   5.534   6.981  0.7146  0.8565 -0.1342
   99SAPS   H2R 9901   5.333   5.435   7.028  1.2916  0.9173 -0.2174
   99SAPS   H2S 9902   5.399   5.603   7.001  1.0312  0.2631  0.6094
   99SAPS    C3 9903   5.366   5.204   6.651  0.1917 -0.4042  0.1870
   99SAPS    HX 9904   5.468   5.163   6.662  0.2987 -0.0484  0.5066
   99SAPS    HY 9905   5.345   5.170   6.547  0.2665 -2.5573  0.8381
   99SAPS   O31 9906   5.277   5.140   6.750 -0.2208  0.0872  0.0084
   99SAPS   C31 9907   5.150   5.140   6.713  0.0936  0.6208 -0.1599
   99SAPS   O32 9908   5.105   5.180   6.604 -0.2815  0.1556 -0.2239
   99SAPS   C32 9909   5.063   5.079   6.825  0.0462  0.0704  0.7405
   99SAPS   H2X 9910   5.068   4.968   6.816 -1.6869  0.0149  0.0799
   99SAPS   H2Y 9911   4.957   5.091   6.793  0.5158  0.3343 -0.8071
   99SAPS   C23 9912   5.180   5.586   7.041 -0.1263 -0.4691  0.4818
   99SAPS   H3R 9913   5.097   5.556   6.974  0.2419  1.7680 -1.1183
   99SAPS   H3S 9914   5.159   5.695   7.038 -0.9061 -0.6319 -0.5723
   99SAPS   C24 9915   5.178   5.534   7.182  0.0273 -0.6315  0.0918
   99SAPS   H4R 9916   5.204   5.426   7.187  1.8947 -0.1690  1.4179
   99SAPS   H4S 9917   5.075   5.555   7.220  0.1347  1.5109 -0.6886
   99SAPS   C25 9918   5.281   5.609   7.261 -0.1444 -0.7317  0.1424
   99SAPS   H5R 9919   5.344   5.689   7.219 -1.9882  0.4622 -0.4241
   99SAPS   C26 9920   5.293   5.589   7.393 -0.0946  0.9371  0.1321
   99SAPS   H6R 9921   5.377   5.637   7.446 -0.0319  0.0389  0.8769
   99SAPS   C27 9922   5.217   5.494   7.479  0.3821  0.0306 -0.0921
   99SAPS   H7R 9923   5.139   5.447   7.416  0.4976  0.8389 -0.8521
   99SAPS   H7S 9924   5.166   5.556   7.555  1.8778 -2.0072  2.7725
   99SAPS   C28 9925   5.298   5.387   7.550  0.2096  0.8142  0.5680
   99SAPS   H8R 9926   5.389   5.357   7.497  0.3493  2.1482  0.0106
   99SAPS   C29 9927   5.265   5.320   7.662 -0.4593 -0.0958  0.2212
   99SAPS   H9R 9928   5.336   5.249   7.708  0.4434  2.0310  2.3214
   99SAPS  C210 9929   5.141   5.360   7.743  0.1126  0.4005 -0.1539
   99SAPS  H10R 9930   5.053   5.300   7.710  1.3706 -2.5618  1.5429
   99SAPS  H10S 9931   5.098   5.463   7.744 -0.3514  0.2068  0.1374
   99SAPS  C211 9932   5.173   5.311   7.881  0.4172  0.8454 -0.4916
   99SAPS  H11R 9933   5.269   5.354   7.915  2.1798 -1.4853 -2.1495
   99SAPS  C212 9934   5.097   5.235   7.966 -0.2000  0.3269 -0.2698
   99SAPS  H12R 9935   5.141   5.202   8.061  0.3837 -0.5192 -0.8079
   99SAPS  C213 9936   4.965   5.164   7.943 -0.0122 -0.1198 -0.3124
   99SAPS  H13R 9937   4.909   5.224   7.868  2.2405  2.0200 -0.4381
   99SAPS  H13S 9938   4.909   5.171   8.039  1.3371  2.6873  0.4062
   99SAPS  C214 9939   4.995   5.025   7.897  0.4552 -0.2338  0.2570
   99SAPS  H14R 9940   5.024   5.016   7.792 -0.4113 -0.9106  0.0678
   99SAPS  C215 9941   4.981   4.918   7.979  0.0174 -0.0035  0.1440
   99SAPS  H15R 9942   5.003   4.817   7.944  0.3432 -0.2722  1.0847
   99SAPS  C216 9943   4.923   4.916   8.116 -0.4462  0.4214 -0.1358
   99SAPS  H16R 9944   4.873   4.819   8.138 -0.8942  1.0067  1.5700
   99SAPS  H16S 9945   4.844   4.993   8.129 -1.5019 -0.8081  0.9673
   99SAPS  C217 9946   5.042   4.941   8.216 -0.2862 -0.0074  0.3045
   99SAPS  H17R 9947   5.000   4.943   8.319 -1.8270 -0.1578 -0.2908
   99SAPS  H17S 9948   5.086   5.041   8.193  0.3534 -1.0618 -3.8867
   99SAPS  C218 9949   5.152   4.836   8.214  0.1463  0.0163  0.7044
   99SAPS  H18R 9950   5.231   4.865   8.286  1.1381  1.8539 -1.0231
   99SAPS  H18S 9951   5.188   4.848   8.110  0.4309  1.0240  0.9092
   99SAPS  C219 9952   5.108   4.698   8.245 -0.7284  0.2020 -0.3949
   99SAPS  H19R 9953   5.026   4.671   8.175 -1.6555  2.6023 -0.2963
   99SAPS  H19S 9954   5.055   4.686   8.342 -0.5280  2.8446  0.1081
   99SAPS  C220 9955   5.220   4.597   8.228 -0.6024  0.0630  0.5621
   99SAPS  H20R 9956   5.314   4.633   8.276 -0.4646 -1.0296  1.1512
   99SAPS  H20S 9957   5.232   4.575   8.120 -0.6079 -0.5153  0.6743
   99SAPS  H20T 9958   5.210   4.495   8.271  2.7422 -0.0170  1.4427
   99SAPS   C33 9959   5.090   5.133   6.960  0.0950  0.0696 -0.3599
   99SAPS   H3X 9960   5.118   5.240   6.952  0.6357 -0.1683 -1.8815
   99SAPS   H3Y 9961   5.165   5.074   7.016  0.7755  1.0818 -0.1656
   99SAPS   C34 9962   4.957   5.148   7.044 -0.0860 -0.1946  0.1664
   99SAPS   H4X 9963   4.928   5.041   7.045 -0.9860  0.0430  0.4393
   99SAPS   H4Y 9964   4.873   5.202   6.996 -1.2636 -0.5202  1.7950
   99SAPS   C35 9965   4.973   5.181   7.191 -0.7630 -0.1969 -0.2789
   99SAPS   H5X 9966   5.041   5.269   7.205 -1.0175 -0.2028  1.0669
   99SAPS   H5Y 9967   5.027   5.093   7.232  0.9890  1.1045  0.3675
   99SAPS   C36 9968   4.840   5.216   7.257 -0.4529 -0.4815  0.3708
   99SAPS   H6X 9969   4.776   5.125   7.252  1.4538 -1.9044  0.4537
   99SAPS   H6Y 9970   4.787   5.305   7.217 -0.0076 -0.9727 -1.3991
   99SAPS   C37 9971   4.856   5.246   7.408  0.2532  0.0923 -0.2486
   99SAPS   H7X 9972   4.916   5.334   7.438 -0.4704  0.0224  1.5388
   99SAPS   H7Y 9973   4.927   5.168   7.444  1.3946 -0.0150 -2.5582
   99SAPS   C38 9974   4.723   5.241   7.482  0.6588 -0.1923 -0.4920
   99SAPS   H8X 9975   4.668   5.149   7.454 -1.0818 -0.0068  2.0078
   99SAPS   H8Y 9976   4.664   5.328   7.445  0.0497 -0.4700 -0.1843
   99SAPS   C39 9977   4.736   5.245   7.635  0.0402  0.6437 -0.6713
   99SAPS   H9X 9978   4.787   5.323   7.695 -1.5255 -0.7363  2.7204
   99SAPS   H9Y 9979   4.807   5.161   7.650  0.9968  1.1431 -2.2010
   99SAPS  C310 9980   4.593   5.223   7.695 -0.2948  0.2582  0.2043
   99SAPS  H10X 9981   4.559   5.118   7.683  3.6785 -1.1261 -0.5440
   99SAPS  H10Y 9982   4.519   5.292   7.650 -2.1837 -1.6602  0.2134
   99SAPS  C311 9983   4.597   5.245   7.850  0.1480  0.9753 -0.6230
   99SAPS  H11X 9984   4.664   5.329   7.876 -0.3880  0.6652  1.9838
   99SAPS  H11Y 9985   4.645   5.160   7.904 -2.4160  0.1201  0.4819
   99SAPS  C312 9986   4.456   5.261   7.902  0.2007  0.1643 -0.3622
   99SAPS  H12X 9987   4.384   5.192   7.853 -1.2131  1.4763 -0.1812
   99SAPS  H12Y 9988   4.420   5.361   7.870 -2.6523 -0.2048  1.3161
   99SAPS  C313 9989   4.444   5.256   8.054  0.0247  0.2338 -0.8132
   99SAPS  H13X 9990   4.362   5.329   8.073 -0.2770 -0.2746 -0.1546
   99SAPS  H13Y 9991   4.537   5.295   8.099 -0.1244 -0.6087  0.2682
   99SAPS  C314 9992   4.394   5.122   8.109 -0.4018 -0.9442 -0.4394
   99SAPS  H14X 9993   4.451   5.034   8.072 -1.9819 -1.2549 -2.2895
   99SAPS  H14Y 9994   4.285   5.113   8.087 -0.7094  1.2322  0.0111
   99SAPS  C315 9995   4.406   5.118   8.260 -0.3338  0.4513 -0.4410
   99SAPS  H15X 9996   4.335   5.180   8.318 -1.9935 -0.9137 -0.9354
   99SAPS  H15Y 9997   4.509   5.158   8.277  0.5058 -1.6514 -0.2855
   99SAPS  C316 9998   4.413   4.976   8.325 -0.5331 -0.2352  0.0109
   99SAPS  H16X 9999   4.510   4.939   8.286  0.2423 -0.2685  1.8922
   99SAPS  H16Y10000   4.328   4.915   8.287  0.8434 -1.5947 -0.9896
   99SAPS  C31710001   4.411   4.982   8.479 -0.2562  0.1188 -0.4760
   99SAPS  H17X10002   4.332   5.053   8.511  0.5207  0.9288 -0.3293
   99SAPS  H17Y10003   4.506   5.029   8.512 -0.7500  1.9956 -1.6358
   99SAPS  C31810004   4.398   4.849   8.553 -0.2128 -0.2672  0.1122
   99SAPS  H18X10005   4.419   4.863   8.661  2.0644 -1.6232 -0.0837
   99SAPS  H18Y10006   4.467   4.767   8.525 -1.3451 -1.0744 -0.4167
   99SAPS  H18Z10007   4.294   4.815   8.535  0.0516 -0.2837 -1.5782
  100SAPS     N10008   2.628   6.795   6.423 -0.1987 -0.6563 -0.2537
  100SAPS   HN110009   2.554   6.722   6.425 -0.9597  0.0570 -1.4320
  100SAPS   HN210010   2.687   6.791   6.509 -0.0112  0.3612 -0.3232
  100SAPS   HN310011   2.563   6.875   6.437 -0.4075 -0.6694 -1.1046
  100SAPS   C1210012   2.702   6.805   6.295  0.5254  1.0182  0.2646
  100SAPS  H12A10013   2.754   6.710   6.294 -0.3225  0.4738 -2.9587
  100SAPS   C1310014   2.630   6.815   6.160 -0.7484 -0.0545  0.4216
  100SAPS  O13A10015   2.501   6.817   6.162  0.2420 -0.2422  0.0546
  100SAPS  O13B10016   2.689   6.794   6.052  0.0739  0.1299  0.1271
  100SAPS   C1110017   2.807   6.923   6.306  0.5955  1.2301 -0.5113
  100SAPS  H11A10018   2.747   7.017   6.316  0.1414  0.8161  0.8816
  100SAPS  H11B10019   2.872   6.920   6.216  1.7382 -0.1523  0.3433
  100SAPS     P10020   3.008   6.813   6.425  0.2046  0.5294  0.2523
  100SAPS   O1310021   2.966   6.674   6.449  0.8705  0.6019 -0.0217
  100SAPS   O1410022   3.083   6.839   6.303 -0.5515  0.3340  0.0224
  100SAPS   O1210023   2.884   6.915   6.427 -1.0285  0.2589 -0.5081
  100SAPS   O1110024   3.109   6.861   6.542  0.2143  0.1305 -0.0396
  100SAPS    C110025   3.088   6.995   6.597 -0.0969  0.2661  1.2946
  100SAPS    HA10026   3.187   7.044   6.612  0.1952  0.5363 -1.0422
  100SAPS    HB10027   3.027   7.067   6.538  1.3462  1.1882  0.8722
  100SAPS    C210028   3.026   6.989   6.743 -0.1775 -0.5174 -0.0143
  100SAPS    HS10029   3.001   7.091   6.780 -1.6952 -1.4082  1.6089
  100SAPS   O2110030   3.112   6.921   6.830  0.4876 -0.2001  0.0075
  100SAPS   C2110031   3.215   6.988   6.887  0.3042 -0.3522  0.1559
  100SAPS   O2210032   3.233   7.105   6.858  0.2217 -0.8220 -0.2551
  100SAPS   C2210033   3.295   6.902   6.983  0.9224  0.5454  0.3418
  100SAPS   H2R10034   3.376   6.858   6.921 -1.0903 -0.6026 -1.6308
  100SAPS   H2S10035   3.343   6.970   7.057 -0.9282  1.8521  0.4027
  100SAPS    C310036   2.888   6.924   6.744 -0.4929  0.3607  0.0098
  100SAPS    HX10037   2.893   6.824   6.697  0.4948 -0.7415  2.3374
  100SAPS    HY10038   2.818   6.986   6.683  0.1692  2.7310  1.4919
  100SAPS   O3110039   2.835   6.945   6.877  0.0039 -0.0462 -0.3436
  100SAPS   C3110040   2.816   6.843   6.954  0.2657 -0.1116 -0.4637
  100SAPS   O3210041   2.834   6.732   6.917  0.2308  0.4939  0.3388
  100SAPS   C3210042   2.774   6.889   7.096  0.0576 -0.0244  0.0909
  100SAPS   H2X10043   2.666   6.918   7.094  0.6028  2.1190 -0.4159
  100SAPS   H2Y10044   2.837   6.974   7.128 -0.0984 -0.8402  2.8760
  100SAPS   C2310045   3.203   6.798   7.056  0.0416  0.2480 -0.2624
  100SAPS   H3R10046   3.131   6.754   6.984 -0.1699 -0.3484  0.2969
  100SAPS   H3S10047   3.151   6.845   7.143 -0.6803 -2.0812  0.6488
  100SAPS   C2410048   3.283   6.681   7.112  0.3632 -0.3043  0.1703
  100SAPS   H4R10049   3.380   6.723   7.149  0.9057 -1.0470 -0.3745
  100SAPS   H4S10050   3.310   6.607   7.034  0.0946 -1.1786  0.8877
  100SAPS   C2510051   3.187   6.605   7.199  0.4221 -0.5132  0.2350
  100SAPS   H5R10052   3.105   6.558   7.143 -0.1398 -0.6340  1.1426
  100SAPS   C2610053   3.192   6.588   7.332  0.3812  0.3178 -0.7420
  100SAPS   H6R10054   3.115   6.522   7.374  0.7573  1.0807  1.2244
  100SAPS   C2710055   3.292   6.626   7.429  0.4510  0.1045  0.3385
  100SAPS   H7R10056   3.374   6.674   7.372  0.0160 -0.3864 -0.7290
  100SAPS   H7S10057   3.331   6.540   7.489  0.6453  1.2092  1.8567
  100SAPS   C2810058   3.255   6.724   7.538  0.6394  0.1245  0.2894
  100SAPS   H8R10059   3.146   6.730   7.557  0.0737  0.1658 -2.5550
  100SAPS   C2910060   3.331   6.805   7.617 -1.0419  0.3819  0.1496
  100SAPS   H9R10061   3.291   6.857   7.706 -0.4984  1.7492 -0.3756
  100SAPS  C21010062   3.480   6.822   7.602  0.5212 -0.5465  0.3717
  100SAPS  H10R10063   3.521   6.794   7.503  1.0170  0.1689  0.3648
  100SAPS  H10S10064   3.528   6.754   7.676 -0.6025 -1.2822  0.4533
  100SAPS  C21110065   3.511   6.966   7.637 -0.1868 -0.3304  0.3116
  100SAPS  H11R10066   3.519   7.039   7.556 -2.2650 -0.9274 -0.4730
  100SAPS  C21210067   3.527   7.017   7.766 -0.5215  0.6560  0.3380
  100SAPS  H12R10068   3.561   7.121   7.784  0.1922  0.9583 -2.3261
  100SAPS  C21310069   3.518   6.935   7.894  0.5533 -0.3632  0.4795
  100SAPS  H13R10070   3.500   6.827   7.879  1.0138 -0.4701  0.6624
  100SAPS  H13S10071   3.430   6.970   7.952 -0.4855 -1.0876 -0.6086
  100SAPS  C21410072   3.651   6.960   7.975  0.2915  0.0572  0.9637
  100SAPS  H14R10073   3.740   6.943   7.913 -0.4394  1.7795 -0.6695
  100SAPS  C21510074   3.663   7.031   8.090  0.2717  0.1476 -0.2835
  100SAPS  H15R10075   3.763   7.046   8.134  0.2958  0.5568 -0.4715
  100SAPS  C21610076   3.548   7.085   8.176 -0.7987  0.5261 -0.5615
  100SAPS  H16R10077   3.457   7.036   8.135 -1.7705  1.7200  0.1038
  100SAPS  H16S10078   3.547   7.196   8.175  0.7415  0.6137  1.3238
  100SAPS  C21710079   3.568   7.042   8.323  0.2547 -0.2441  0.3398
  100SAPS  H17R10080   3.491   7.100   8.378 -2.1490 -2.2938 -0.6779
  100SAPS  H17S10081   3.665   7.074   8.366 -0.3606 -1.0325  2.4586
  100SAPS  C21810082   3.542   6.892   8.335  0.0453  0.1355  0.0363
  100SAPS  H18R10083   3.595   6.830   8.260  0.6931  0.5080  0.1729
  100SAPS  H18S10084   3.434   6.877   8.313 -0.3654  1.7285  0.8032
  100SAPS  C21910085   3.574   6.832   8.474  0.4238 -0.1796 -0.5429
  100SAPS  H19R10086   3.681   6.852   8.494  0.1914 -2.3692  4.0503
  100SAPS  H19S10087   3.556   6.722   8.479 -2.4650  0.2634  1.3777
  100SAPS  C22010088   3.483   6.876   8.596  0.1709  0.9399  0.2049
  100SAPS  H20R10089   3.488   6.984   8.621  0.4753  0.4893  2.2910
  100SAPS  H20S10090   3.521   6.812   8.679  0.1284 -1.9399 -1.8473
  100SAPS  H20T10091   3.378   6.849   8.574  1.0753 -2.0832 -0.8986
  100SAPS   C3310092   2.795   6.776   7.199 -0.3536 -0.0448  0.5093
  100SAPS   H3X10093   2.902   6.746   7.197  0.2495  1.7529  2.3848
  100SAPS   H3Y10094   2.734   6.687   7.171  0.1404 -0.1907 -0.1399
  100SAPS   C3410095   2.770   6.819   7.348  0.1684  0.5001 -0.0971
  100SAPS   H4X10096   2.671   6.864   7.372  0.0426 -0.6555  1.7313
  100SAPS   H4Y10097   2.842   6.901   7.368 -0.3750  1.0719 -0.4305
  100SAPS   C3510098   2.804   6.694   7.438 -0.5039 -0.3435 -0.2217
  100SAPS   H5X10099   2.912   6.670   7.438 -0.3899  0.1750 -0.0353
  100SAPS   H5Y10100   2.734   6.610   7.417 -3.0373  1.2179  1.3980
  100SAPS   C3610101   2.772   6.727   7.585 -0.6453  0.4243 -0.0684
  100SAPS   H6X10102   2.761   6.637   7.650 -1.9603  0.5266 -0.1254
  100SAPS   H6Y10103   2.675   6.781   7.589  0.3050  2.1998  0.1187
  100SAPS   C3710104   2.882   6.810   7.657 -0.4719 -0.2618  0.4582
  100SAPS   H7X10105   2.927   6.882   7.585 -1.8625  1.7400  1.4867
  100SAPS   H7Y10106   2.961   6.741   7.692  0.1854  0.6420  0.7774
  100SAPS   C3810107   2.826   6.888   7.783 -0.0391 -0.4042  0.6040
  100SAPS   H8X10108   2.737   6.946   7.749  0.4315 -1.4130 -2.6939
  100SAPS   H8Y10109   2.906   6.958   7.816 -1.8076  2.2816 -0.3944
  100SAPS   C3910110   2.783   6.794   7.888 -0.0320  0.5201 -0.1188
  100SAPS   H9X10111   2.863   6.719   7.910  0.1636  0.7717  0.0298
  100SAPS   H9Y10112   2.696   6.728   7.870  0.9345 -1.3823  1.6801
  100SAPS  C31010113   2.757   6.849   8.025  0.1263 -0.6706 -0.6767
  100SAPS  H10X10114   2.669   6.917   8.018 -0.2157 -0.3334  3.8239
  100SAPS  H10Y10115   2.839   6.913   8.064 -0.0819 -0.2206 -0.9588
  100SAPS  C31110116   2.721   6.745   8.128 -0.1730 -0.0422 -0.1682
  100SAPS  H11X10117   2.787   6.656   8.119 -0.1240 -0.1611  1.2072
  100SAPS  H11Y10118   2.616   6.718   8.103  0.5586 -0.8737 -2.6070
  100SAPS  C31210119   2.742   6.801   8.266  0.1469 -1.0045 -0.5964
  100SAPS  H12X10120   2.686   6.895   8.288  1.0224 -0.6639  0.2197
  100SAPS  H12Y10121   2.848   6.834   8.272 -0.2717  0.4192 -0.6140
  100SAPS  C31310122   2.698   6.696   8.366 -0.0852  0.1742 -0.7237
  100SAPS  H13X10123   2.727   6.595   8.331 -0.7792 -1.1341  2.2147
  100SAPS  H13Y10124   2.587   6.701   8.369 -0.1085  0.8116  3.5033
  100SAPS  C31410125   2.729   6.728   8.512  0.0889  0.2282  0.3898
  100SAPS  H14X10126   2.708   6.833   8.541 -1.3388  0.6585 -1.9192
  100SAPS  H14Y10127   2.838   6.713   8.527 -0.0148  1.1530  2.3205
  100SAPS  C31510128   2.660   6.634   8.618  0.4968 -0.0724  0.8851
  100SAPS  H15X10129   2.638   6.535   8.572 -0.3101  0.2405  0.5745
  100SAPS  H15Y10130   2.558   6.675   8.634  0.7357  0.3083  1.4852
  100SAPS  C31610131   2.727   6.634   8.750 -0.0971 -0.1187  0.0469
  100SAPS  H16X10132   2.751   6.738   8.783  2.7592 -0.5924 -0.3029
  100SAPS  H16Y10133   2.823   6.580   8.737 -1.0679 -1.9137  0.0029
  100SAPS  C31710134   2.652   6.567   8.857 -0.3630  0.4830 -0.2854
  100SAPS  H17X10135   2.642   6.458   8.837 -0.7442  0.1139  1.7208
  100SAPS  H17Y10136   2.546   6.600   8.853 -0.9041 -1.0315  0.6641
  100SAPS  C31810137   2.734   6.587   8.982 -0.0054  0.3247 -0.6780
  100SAPS  H18X10138   2.690   6.529   9.066 -0.1346 -0.4497 -1.2643
  100SAPS  H18Y10139   2.727   6.694   9.011  0.3820 -0.5364  3.1297
  100SAPS  H18Z10140   2.836   6.554   8.953 -1.0798 -1.9191 -2.2468
  101OSM      N10141   0.609   2.688  11.003  0.2224  0.1182 -0.9615
  101OSM    C1510142   0.514   2.575  11.014  0.4996  0.1602  0.3312
  101OSM   H15A10143   0.417   2.606  11.050  1.4770  1.7878  1.6631
  101OSM   H15B10144   0.550   2.510  11.093 -0.0847 -0.4117  0.1452
  101OSM   H15C10145   0.502   2.518  10.923 -1.0792  0.9479  0.0140
  101OSM    C1410146   0.599   2.770  11.133  0.3033 -0.4530 -0.3390
  101OSM   H14A10147   0.656   2.728  11.215 -0.1011  1.5259  1.0515
  101OSM   H14B10148   0.496   2.786  11.163  0.7828  0.6309  0.8272
  101OSM   H14C10149   0.648   2.866  11.131 -1.0732  0.4046  1.9349
  101OSM    C1310150   0.748   2.642  10.989  0.1617 -0.0246 -0.0506
  101OSM   H13A10151   0.766   2.570  11.067 -0.1315 -1.0162 -0.8817
  101OSM   H13B10152   0.820   2.722  11.001 -1.1528  1.2664 -0.4982
  101OSM   H13C10153   0.767   2.598  10.893 -1.5000 -2.5105  0.6625
  101OSM    C1210154   0.559   2.770  10.879 -0.2941 -1.0187 -0.1444
  101OSM   H12A10155   0.635   2.846  10.883  2.0881 -3.2811  2.0330
  101OSM   H12B10156   0.456   2.798  10.896 -0.5312 -0.6201 -2.0299
  101OSM    C1110157   0.564   2.706  10.744  0.0030 -0.4707  0.2757
  101OSM   H11A10158   0.668   2.677  10.720  0.8094  1.9174  0.5902
  101OSM   H11B10159   0.550   2.779  10.661 -1.2505  0.1920  1.0368
  101OSM      P10160   0.308   2.657  10.720  0.2171  0.0160 -0.1970
  101OSM    O1310161   0.219   2.537  10.692  0.4909  0.4474 -0.7383
  101OSM    O1410162   0.284   2.737  10.842  1.0023  0.2025  0.0778
  101OSM    O1110163   0.311   2.750  10.596 -0.5346 -0.3070 -0.7175
  101OSM    O1210164   0.460   2.611  10.728 -0.2574  0.4573 -0.2555
  101OSM    C1S10165   0.346   2.708  10.467 -0.3327  0.1423  0.1206
  101OSM    H1S10166   0.417   2.623  10.465 -0.8538 -0.3091  0.5147
  101OSM    H1T10167   0.403   2.788  10.415 -1.2498  0.1374 -0.9331
  101OSM     NF10168   0.298   2.634  10.235  0.1090  0.5255 -0.3455
  101OSM    HNF10169   0.343   2.714  10.197  0.7084  1.1287  1.5149
  101OSM    C2S10170   0.239   2.672  10.367  0.5358 -0.0649  0.0429
  101OSM    H2S10171   0.183   2.585  10.408  2.2988 -0.3806  1.9184
  101OSM    C3S10172   0.142   2.789  10.349 -0.7319 -0.0813 -0.5235
  101OSM    H3S10173   0.201   2.872  10.304 -0.6942  2.5817  3.8543
  101OSM     O310174   0.098   2.847  10.470  1.0360 -0.3627  0.3835
  101OSM    HO310175   0.163   2.820  10.536  0.9574  1.3404  1.2021
  101OSM    C4S10176   0.030   2.760  10.256 -0.7744  0.1602 -0.5360
  101OSM    H4S10177  -0.027   2.666  10.260  1.6649 -1.4678 -1.7135
  101OSM    C5S10178  -0.000   2.846  10.151 -0.3440  0.3467  0.1003
  101OSM    H5S10179   0.058   2.938  10.137  0.2594  0.2258  1.6666
  101OSM    C6S10180  -0.113   2.825  10.051  0.0816  0.0004  0.2566
  101OSM    H6S10181  -0.197   2.893  10.078 -1.1864 -1.2238 -0.4626
  101OSM    H6T10182  -0.153   2.722  10.061 -0.0700 -0.0469 -0.6943
  101OSM    C7S10183  -0.052   2.851   9.911  0.0637  0.0271 -0.0168
  101OSM    H7S10184   0.000   2.754   9.901 -1.1808 -0.9803  2.4343
  101OSM    H7T10185   0.011   2.942   9.909  0.1775 -0.0545 -0.1611
  101OSM    C8S10186  -0.159   2.871   9.797  0.7860  0.4389 -0.7836
  101OSM    H8S10187  -0.234   2.946   9.828  0.5709  0.0889 -0.4417
  101OSM    H8T10188  -0.215   2.775   9.791  0.5424  0.3598  1.6088
  101OSM    C9S10189  -0.091   2.927   9.672 -0.3125 -0.4101 -0.2202
  101OSM    H9S10190  -0.022   2.856   9.621  0.6518  0.7095 -0.5223
  101OSM    H9T10191  -0.041   3.015   9.716  2.1037 -2.3504  1.1445
  101OSM   C10S10192  -0.173   2.973   9.555  0.8366  0.8040 -0.0020
  101OSM   H10S10193  -0.240   3.059   9.577 -3.7068 -2.6754  1.2410
  101OSM   H10T10194  -0.242   2.894   9.520  3.0849 -1.2425 -0.0541
  101OSM   C11S10195  -0.089   3.004   9.428 -0.0230  0.6283 -0.5709
  101OSM   H11S10196  -0.033   2.914   9.396 -0.7617 -0.3573  0.8151
  101OSM   H11T10197  -0.016   3.084   9.455  0.1683  0.1952  0.2247
  101OSM   C12S10198  -0.169   3.058   9.312 -0.7667  0.5192  0.0682
  101OSM   H12S10199  -0.202   3.163   9.331  1.6818  1.4679 -0.5230
  101OSM   H12T10200  -0.265   3.003   9.304  0.7200 -3.0061  3.4665
  101OSM   C13S10201  -0.084   3.066   9.185  0.1414 -0.2493  0.5001
  101OSM   H13S10202  -0.081   2.958   9.158 -0.1913 -0.0137 -0.5330
  101OSM   H13T10203   0.019   3.099   9.207  0.4779 -0.7735 -0.2523
  101OSM   C14S10204  -0.149   3.132   9.056 -0.4720  0.1148  0.1150
  101OSM   H14S10205  -0.202   3.227   9.081  0.4089  0.2074  1.7847
  101OSM   H14T10206  -0.224   3.058   9.020 -1.0643 -0.5764  2.5908
  101OSM   C15S10207  -0.046   3.157   8.939 -0.1341  0.3516 -0.6911
  101OSM   H15S10208   0.041   3.211   8.981 -1.0323  0.2749  1.3370
  101OSM   H15T10209  -0.097   3.219   8.861 -0.8599  0.7862  0.1141
  101OSM   C16S10210   0.013   3.029   8.886 -0.1440  0.0099 -0.0917
  101OSM   H16S10211  -0.076   2.972   8.853 -0.5163  1.2229 -1.2799
  101OSM   H16T10212   0.066   2.982   8.971 -0.4631  0.7174  0.5060
  101OSM   C17S10213   0.091   3.051   8.757 -0.2970 -0.4564 -0.2764
  101OSM   H17S10214   0.174   3.123   8.774 -0.5180  0.2746 -2.1078
  101OSM   H17T10215   0.036   3.111   8.682  2.2803  1.5203 -0.7470
  101OSM   C18S10216   0.151   2.927   8.697  0.7692 -0.2844 -0.2998
  101OSM   H18S10217   0.187   2.946   8.593 -0.6935  0.5971 -0.6763
  101OSM   H18T10218   0.079   2.843   8.695  0.1272  0.2499  0.0727
  101OSM   H18U10219   0.238   2.893   8.757  1.7207 -0.0849 -1.5083
  101OSM    C1F10220   0.357   2.516  10.216 -0.7228  0.1285 -0.7333
  101OSM     OF10221   0.342   2.434  10.307  0.0942  0.5078  0.5822
  101OSM    C2F10222   0.445   2.497  10.091  0.5026 -0.4388 -0.7599
  101OSM    H2F10223   0.543   2.545  10.109 -0.0116  0.0448  0.8976
  101OSM    H2G10224   0.406   2.550  10.001  2.2726 -1.7116 -2.3747
  101OSM    C3F10225   0.467   2.347  10.042 -0.6419 -0.1001 -0.1240
  101OSM    H3F10226   0.374   2.298  10.007 -0.1726 -1.0666 -0.0514
  101OSM    H3G10227   0.500   2.293  10.133 -1.3848  0.1630  0.3043
  101OSM    C4F10228   0.567   2.337   9.925 -0.3891 -0.2087  0.6485
  101OSM    H4F10229   0.614   2.236   9.932 -0.9433 -0.6499 -1.3472
  101OSM    H4G10230   0.649   2.410   9.939  0.1507 -0.6513 -0.0931
  101OSM    C5F10231   0.507   2.371   9.789  0.5111 -0.0440 -0.2839
  101OSM    H5F10232   0.501   2.479   9.765 -1.3648 -0.6192 -2.7806
  101OSM    H5G10233   0.403   2.333   9.800  1.1907 -1.5474  1.3945
  101OSM    C6F10234   0.580   2.316   9.663  0.5859  0.7595 -0.1778
  101OSM    H6F10235   0.562   2.206   9.656  1.0388  0.7771 -2.2500
  101OSM    H6G10236   0.689   2.338   9.658  0.8035 -0.5194 -2.0676
  101OSM    C7F10237   0.521   2.384   9.534  0.1833 -0.4937  0.2286
  101OSM    H7F10238   0.537   2.494   9.534  0.0124 -0.4360 -1.9952
  101OSM    H7G10239   0.414   2.356   9.540  0.3549 -1.2280  0.0564
  101OSM    C8F10240   0.573   2.320   9.399 -0.1532  0.7398  0.0384
  101OSM    H8F10241   0.495   2.346   9.324 -0.4156  1.4815  0.5552
  101OSM    H8G10242   0.566   2.210   9.409 -1.1955  0.3939 -3.2053
  101OSM    C9F10243   0.709   2.367   9.349  0.2474  0.4170  0.5260
  101OSM    H9F10244   0.784   2.387   9.428 -0.1869 -0.2259  1.1168
  101OSM   C10F10245   0.728   2.423   9.223  0.6176  1.2934 -0.6384
  101OSM   H10F10246   0.831   2.452   9.197  0.9310  0.8486  0.0730
  101OSM   C11F10247   0.622   2.443   9.114 -0.3014  0.2845 -0.1789
  101OSM   H11F10248   0.519   2.464   9.151 -0.2911  1.6897 -0.8738
  101OSM   H11G10249   0.610   2.358   9.043  0.1026  0.0483  0.0346
  101OSM   C12F10250   0.658   2.568   9.031  0.6177  0.2058 -0.2829
  101OSM   H12F10251   0.760   2.544   8.993  0.3861 -1.1632 -0.0958
  101OSM   H12G10252   0.666   2.655   9.100  0.8435 -0.1744  0.1746
  101OSM   C13F10253   0.576   2.603   8.906  0.7990  0.6086  0.0243
  101OSM   H13F10254   0.582   2.714   8.904 -2.1468  0.8425 -1.2338
  101OSM   H13G10255   0.469   2.577   8.922  1.0103  1.0035  2.3450
  101OSM   C14F10256   0.629   2.546   8.778  0.2459  0.1054 -0.3962
  101OSM   H14F10257   0.644   2.436   8.769 -0.6687 -0.3870  2.8565
  101OSM   H14G10258   0.732   2.586   8.768  1.2209 -1.3711  2.6099
  101OSM   C15F10259   0.559   2.605   8.649 -0.1629 -0.2235 -0.7599
  101OSM   H15F10260   0.628   2.656   8.579  0.0710  3.6642  1.9419
  101OSM   H15G10261   0.485   2.680   8.685  0.3625 -0.0664  0.0258
  101OSM   C16F10262   0.480   2.506   8.571 -0.6455 -0.0224  0.7814
  101OSM   H16F10263   0.373   2.535   8.579 -0.2877  1.5950 -0.0196
  101OSM   H16G10264   0.487   2.404   8.615  0.5358  0.4107  1.6588
  101OSM   C17F10265   0.523   2.505   8.420 -0.3203  1.0470 -0.5550
  101OSM   H17F10266   0.514   2.606   8.375 -0.7333  1.5012  0.5162
  101OSM   H17G10267   0.456   2.428   8.374  0.5889  0.0997 -0.3253
  101OSM   C18F10268   0.664   2.450   8.403  0.2230  0.2542 -0.5858
  101OSM   H18F10269   0.661   2.363   8.334  1.7489  0.4804 -0.9792
  101OSM   H18G10270   0.702   2.417   8.502  1.7913  0.0841 -1.2210
  101OSM   H18H10271   0.739   2.514   8.351  0.4506 -0.7283 -1.5174
  102OSM      N10272   5.320   2.123  10.704  0.0748 -0.1040 -0.0177
  102OSM    C1510273   5.191   2.055  10.722 -0.2104 -0.5216  0.1900
  102OSM   H15A10274   5.156   2.067  10.823 -0.4752  1.1831 -0.0829
  102OSM   H15B10275   5.201   1.950  10.698  0.0142 -0.4639  0.0230
  102OSM   H15C10276   5.109   2.098  10.665 -0.3903 -1.2822 -0.1378
  102OSM    C1410277   5.342   2.173  10.568  0.3421  0.0271  0.2898
  102OSM   H14A10278   5.341   2.100  10.489 -0.2911  0.0607  0.2559
  102OSM   H14B10279   5.436   2.226  10.560 -0.2005  0.7391 -2.9299
  102OSM   H14C10280   5.271   2.252  10.546  1.0507  0.3750 -0.8118
  102OSM    C1310281   5.315   2.241  10.788 -0.3166 -0.6685  0.2403
  102OSM   H13A10282   5.275   2.209  10.884  1.7296  0.4097  1.5409
  102OSM   H13B10283   5.238   2.306  10.750 -0.6185  0.0169  1.9429
  102OSM   H13C10284   5.415   2.282  10.781 -0.5199  0.0618  1.2349
  102OSM    C1210285   5.430   2.023  10.742 -0.2810 -0.0731 -0.3411
  102OSM   H12A10286   5.432   1.993  10.846  2.5452 -1.9606 -0.8367
  102OSM   H12B10287   5.526   2.069  10.724  1.1704 -2.7947 -0.0475
  102OSM    C1110288   5.447   1.886  10.665  0.3797 -0.3281 -0.4050
  102OSM   H11A10289   5.541   1.831  10.689 -0.0945  0.3633  3.7672
  102OSM   H11B10290   5.441   1.916  10.558 -2.0672 -2.9735 -1.1422
  102OSM      P10291   5.313   1.661  10.603 -0.3501  0.0297 -0.0383
  102OSM    O1310292   5.424   1.565  10.646  0.1905  0.0083 -0.2019
  102OSM    O1410293   5.179   1.607  10.591  0.3694 -0.6922  0.0604
  102OSM    O1110294   5.354   1.703  10.457 -0.3923  0.2676  0.1317
  102OSM    O1210295   5.332   1.799  10.688 -0.1199 -0.2703  0.1421
  102OSM    C1S10296   5.265   1.788  10.382  0.6070  0.2682  0.6872
  102OSM    H1S10297   5.257   1.891  10.423  2.9276  0.4422  0.8613
  102OSM    H1T10298   5.165   1.741  10.375  0.0303  1.5883 -0.5854
  102OSM     NF10299   5.248   1.933  10.180 -0.1757 -0.3920  0.3936
  102OSM    HNF10300   5.184   1.918  10.105  0.2963  2.0772 -0.6232
  102OSM    C2S10301   5.309   1.809  10.234 -0.4553 -0.6624  0.1959
  102OSM    H2S10302   5.419   1.825  10.236 -0.6994  1.3661  2.3626
  102OSM    C3S10303   5.282   1.687  10.160 -0.1972  0.4695  0.2123
  102OSM    H3S10304   5.173   1.667  10.165  0.0069 -0.5066  1.0623
  102OSM     O310305   5.341   1.571  10.216 -0.2311  0.2379 -0.9738
  102OSM    HO310306   5.390   1.613  10.287 -0.4037  0.5616 -1.0431
  102OSM    C4S10307   5.331   1.696  10.016 -0.5927  0.0315 -0.0522
  102OSM    H4S10308   5.421   1.759  10.013  0.1505 -0.9459  0.9281
  102OSM    C5S10309   5.275   1.644   9.902 -0.4913  0.2476 -0.0026
  102OSM    H5S10310   5.181   1.587   9.894  0.3556 -0.8867 -3.3306
  102OSM    C6S10311   5.339   1.671   9.767 -0.5092 -0.1490 -0.4087
  102OSM    H6S10312   5.347   1.581   9.703  0.0852  0.3209 -1.0188
  102OSM    H6T10313   5.444   1.704   9.785 -0.2120 -0.2348 -1.8212
  102OSM    C7S10314   5.256   1.781   9.690  0.0830  0.1361 -0.1060
  102OSM    H7S10315   5.244   1.878   9.743  0.5069  0.8780 -1.3479
  102OSM    H7T10316   5.153   1.749   9.661 -0.4041  3.0316 -1.9506
  102OSM    C8S10317   5.338   1.833   9.567  0.0639 -0.3812 -0.6219
  102OSM    H8S10318   5.337   1.753   9.490 -0.6857 -1.4205  0.4340
  102OSM    H8T10319   5.446   1.839   9.594  0.2787  0.1777 -1.5766
  102OSM    C9S10320   5.280   1.956   9.497 -0.9222  0.0536 -0.2644
  102OSM    H9S10321   5.295   2.049   9.556 -1.6989  0.5184 -0.7797
  102OSM    H9T10322   5.170   1.941   9.490 -0.9613 -0.3580  0.9170
  102OSM   C10S10323   5.328   1.973   9.353 -0.3159  0.5088  0.6531
  102OSM   H10S10324   5.299   1.891   9.285  1.5508  2.4470 -2.7544
  102OSM   H10T10325   5.439   1.986   9.351 -0.4099  1.3372  0.2280
  102OSM   C11S10326   5.274   2.097   9.278  0.3039  0.1986  0.3377
  102OSM   H11S10327   5.316   2.193   9.316 -1.5379  1.0065  0.4286
  102OSM   H11T10328   5.163   2.095   9.272  0.3468  0.5360 -1.0702
  102OSM   C12S10329   5.326   2.098   9.132  0.2504 -0.4808  0.2400
  102OSM   H12S10330   5.304   1.997   9.090  1.0615 -0.4552 -0.2631
  102OSM   H12T10331   5.435   2.119   9.138 -0.0944  2.1046 -1.0510
  102OSM   C13S10332   5.272   2.215   9.047 -0.3140  0.1761  0.2803
  102OSM   H13S10333   5.282   2.313   9.099  0.2770  0.6763 -0.7346
  102OSM   H13T10334   5.166   2.187   9.026 -0.2846  0.4131 -0.2201
  102OSM   C14S10335   5.334   2.230   8.905 -0.2557  0.7772  0.5404
  102OSM   H14S10336   5.290   2.324   8.865 -0.1733  1.1602  1.3470
  102OSM   H14T10337   5.322   2.136   8.846  2.8343 -0.3534  1.4994
  102OSM   C15S10338   5.492   2.246   8.902 -0.3299  0.0358  0.6429
  102OSM   H15S10339   5.533   2.229   8.800 -0.5284  1.6999  0.2638
  102OSM   H15T10340   5.528   2.164   8.967 -1.2688 -0.5096  0.5042
  102OSM   C16S10341   5.543   2.376   8.973  0.3515 -0.4176  0.3676
  102OSM   H16S10342   5.501   2.371   9.075 -0.8338 -0.4042 -0.1052
  102OSM   H16T10343   5.488   2.463   8.931  2.5391  0.9672  0.1548
  102OSM   C17S10344   5.693   2.394   8.968 -1.1880 -0.2348  0.0847
  102OSM   H17S10345   5.732   2.299   9.011  0.9046  0.6168  0.1672
  102OSM   H17T10346   5.730   2.474   9.035 -1.0945  0.2435 -0.5232
  102OSM   C18S10347   5.760   2.408   8.831 -0.0057  0.2812 -0.0063
  102OSM   H18S10348   5.867   2.380   8.827 -0.8149 -3.2601 -0.4609
  102OSM   H18T10349   5.753   2.517   8.810  1.8505  0.2977 -0.7254
  102OSM   H18U10350   5.705   2.353   8.752  0.7428 -1.1279  0.4031
  102OSM    C1F10351   5.288   2.061  10.220 -0.2440  0.1876  0.0362
  102OSM     OF10352   5.374   2.075  10.300  0.5739 -0.1429  0.5082
  102OSM    C2F10353   5.230   2.180  10.150  0.8785 -0.3219 -0.6309
  102OSM    H2F10354   5.124   2.172  10.118 -0.4770  2.9646  2.2927
  102OSM    H2G10355   5.295   2.200  10.062  1.0143  1.0663 -0.2370
  102OSM    C3F10356   5.235   2.306  10.249 -0.1120 -0.0101  0.3954
  102OSM    H3F10357   5.341   2.342  10.255 -0.2888  1.1925 -2.4129
  102OSM    H3G10358   5.190   2.291  10.350 -1.3442  0.4746 -0.0644
  102OSM    C4F10359   5.141   2.409  10.190 -0.7459  0.0963 -0.9813
  102OSM    H4F10360   5.135   2.496  10.259  0.8342 -0.9188  0.5041
  102OSM    H4G10361   5.043   2.358  10.175  0.3836 -1.6224 -3.0437
  102OSM    C5F10362   5.171   2.466  10.058 -0.3766 -0.4863 -0.3360
  102OSM    H5F10363   5.150   2.389   9.980 -1.7436 -0.0934 -0.3704
  102OSM    H5G10364   5.279   2.493  10.054 -0.4524  0.5086  2.3694
  102OSM    C6F10365   5.073   2.587  10.035 -0.8157  0.2015 -0.3432
  102OSM    H6F10366   5.116   2.644   9.951 -0.2013 -0.0933 -0.2369
  102OSM    H6G10367   5.096   2.637  10.131 -0.0134  2.4547 -1.6441
  102OSM    C7F10368   4.929   2.545  10.019  1.2085 -0.7138  0.3656
  102OSM    H7F10369   4.885   2.520  10.117 -1.0473  2.0170  0.1696
  102OSM    H7G10370   4.908   2.468   9.942 -0.7284 -0.7092  0.8377
  102OSM    C8F10371   4.841   2.668   9.974 -0.3860  0.0744  0.2673
  102OSM    H8F10372   4.866   2.757  10.035 -0.8509  0.2664  0.1865
  102OSM    H8G10373   4.733   2.643   9.989 -0.5116 -0.0491 -0.8171
  102OSM    C9F10374   4.864   2.712   9.832 -0.3314 -0.5165  0.5492
  102OSM    H9F10375   4.955   2.772   9.818 -0.6475 -0.2046 -0.2097
  102OSM   C10F10376   4.801   2.670   9.722 -0.1101 -0.1965  0.4091
  102OSM   H10F10377   4.828   2.710   9.623 -3.3467  0.3737 -0.3611
  102OSM   C11F10378   4.690   2.574   9.726  0.1957 -0.1074 -0.1166
  102OSM   H11F10379   4.644   2.572   9.826  1.5626 -0.2801  0.5378
  102OSM   H11G10380   4.727   2.470   9.708 -0.5321 -0.5381  0.8063
  102OSM   C12F10381   4.587   2.596   9.602 -0.2274 -0.0340 -0.8084
  102OSM   H12F10382   4.529   2.691   9.610 -0.6016 -0.2434 -1.0010
  102OSM   H12G10383   4.504   2.525   9.618 -1.3303  1.3166 -0.2552
  102OSM   C13F10384   4.647   2.582   9.465 -0.6147  1.3152 -0.6111
  102OSM   H13F10385   4.741   2.523   9.470 -0.2187  1.9900  0.5495
  102OSM   H13G10386   4.674   2.683   9.428  1.1058  0.3591 -2.1119
  102OSM   C14F10387   4.555   2.519   9.359  0.2980  0.6865 -0.2250
  102OSM   H14F10388   4.489   2.586   9.301  1.3772  1.1173 -0.9832
  102OSM   H14G10389   4.497   2.437   9.406  1.0189  0.7450  0.7893
  102OSM   C15F10390   4.635   2.447   9.250 -0.0924 -0.3007  0.3012
  102OSM   H15F10391   4.703   2.520   9.202  1.9820 -1.2237  1.6779
  102OSM   H15G10392   4.564   2.420   9.169 -1.0486 -0.8530  1.2886
  102OSM   C16F10393   4.722   2.330   9.289 -1.0841 -0.2784  0.3496
  102OSM   H16F10394   4.660   2.260   9.350 -2.0342 -1.2655 -1.6522
  102OSM   H16G10395   4.812   2.362   9.346  0.1749 -2.1403 -0.4974
  102OSM   C17F10396   4.776   2.257   9.167  0.1169  0.9584  0.9341
  102OSM   H17F10397   4.839   2.327   9.108 -1.3700  0.2680 -1.6559
  102OSM   H17G10398   4.692   2.227   9.100  0.6556 -0.9705  1.0831
  102OSM   C18F10399   4.856   2.140   9.208  0.2610  1.0397  0.1692
  102OSM   H18F10400   4.891   2.083   9.119 -2.8497 -1.9191  0.6211
  102OSM   H18G10401   4.792   2.068   9.263  1.7261 -0.1918  0.3235
  102OSM   H18H10402   4.942   2.162   9.273 -0.1010  2.5130  0.1726
  103OSM      N10403   0.142   4.636  11.202 -0.4834  0.3033  0.8203
  103OSM    C1510404   0.145   4.654  11.349 -0.1412 -0.1849 -0.6770
  103OSM   H15A10405   0.045   4.655  11.391  2.0088  0.4750  5.4687
  103OSM   H15B10406   0.190   4.745  11.384 -2.9064  1.0953 -0.1662
  103OSM   H15C10407   0.185   4.566  11.398 -1.9426 -0.1214  1.0323
  103OSM    C1410408   0.072   4.512  11.168  0.2884  0.1637  0.5777
  103OSM   H14A10409   0.068   4.508  11.060  0.1334  1.3380  0.5256
  103OSM   H14B10410  -0.031   4.514  11.201  0.4709  1.2980  1.1243
  103OSM   H14C10411   0.114   4.418  11.200  0.5624 -0.5865 -1.7491
  103OSM    C1310412   0.069   4.745  11.143  0.3856 -0.5186  0.4937
  103OSM   H13A10413   0.113   4.838  11.176 -0.9251  0.2173  0.2466
  103OSM   H13B10414  -0.033   4.750  11.179  0.4424 -1.2828  0.7627
  103OSM   H13C10415   0.062   4.748  11.035  1.3453  1.1177  0.4294
  103OSM    C1210416   0.280   4.634  11.141 -0.2565  0.4653  0.3710
  103OSM   H12A10417   0.334   4.725  11.162 -0.3421  0.4587  0.6254
  103OSM   H12B10418   0.267   4.622  11.034 -0.3129 -0.4569  0.4687
  103OSM    C1110419   0.382   4.517  11.180 -0.3049  0.3084  0.9022
  103OSM   H11A10420   0.401   4.521  11.289  0.7673 -1.6297  0.8295
  103OSM   H11B10421   0.477   4.546  11.129 -0.6659  0.7485  0.4641
  103OSM      P10422   0.347   4.325  11.001  0.0964  0.2991  0.0401
  103OSM    O1310423   0.492   4.298  10.980  0.3594  0.1672  0.0868
  103OSM    O1410424   0.256   4.208  10.994 -0.0969 -0.9569 -0.0426
  103OSM    O1110425   0.282   4.435  10.905  0.6624 -0.1999 -0.6579
  103OSM    O1210426   0.337   4.383  11.141  0.7331  0.0047  0.1776
  103OSM    C1S10427   0.319   4.415  10.767 -0.3235 -0.4352 -0.8803
  103OSM    H1S10428   0.316   4.308  10.738  0.2249 -1.3523  2.0452
  103OSM    H1T10429   0.412   4.473  10.749 -1.0038  1.4779  1.3497
  103OSM     NF10430   0.242   4.437  10.542  0.2629  0.0797 -0.7712
  103OSM    HNF10431   0.296   4.491  10.478  0.8214  1.7422  0.9944
  103OSM    C2S10432   0.222   4.490  10.671 -0.5569 -0.0126 -0.7473
  103OSM    H2S10433   0.121   4.466  10.711  0.5457 -0.5212  1.9316
  103OSM    C3S10434   0.237   4.643  10.680  0.0355  0.6961  0.1280
  103OSM    H3S10435   0.341   4.663  10.649 -1.0949  2.9397 -2.6384
  103OSM     O310436   0.237   4.694  10.809  0.6485  0.3713 -0.4626
  103OSM    HO310437   0.262   4.617  10.862 -1.0149 -0.3185 -0.6273
  103OSM    C4S10438   0.140   4.731  10.599  0.2550 -0.2797 -0.3051
  103OSM    H4S10439   0.044   4.677  10.598 -0.6182  1.2359 -0.4801
  103OSM    C5S10440   0.159   4.849  10.529  0.0258  0.8667 -0.4069
  103OSM    H5S10441   0.261   4.891  10.529  0.5464 -0.2657 -2.3361
  103OSM    C6S10442   0.056   4.922  10.446 -0.1599 -0.8442 -0.2273
  103OSM    H6S10443   0.063   5.032  10.460  0.9579 -0.3216 -3.8147
  103OSM    H6T10444  -0.047   4.888  10.469 -0.6438  0.1481 -0.8848
  103OSM    C7S10445   0.078   4.909  10.297  0.3766  0.3089 -0.3608
  103OSM    H7S10446   0.005   4.972  10.242 -0.5768 -0.2396  0.2544
  103OSM    H7T10447   0.059   4.801  10.280  2.6131 -0.2196  0.1286
  103OSM    C8S10448   0.217   4.942  10.251  0.0301 -0.7146  0.2142
  103OSM    H8S10449   0.285   4.897  10.326  3.4518  0.0778 -2.1743
  103OSM    H8T10450   0.235   5.051  10.263  1.2996 -0.9974  1.1569
  103OSM    C9S10451   0.260   4.892  10.113 -0.3370  0.1376 -0.6188
  103OSM    H9S10452   0.255   4.781  10.118 -2.6783  0.1794 -0.8690
  103OSM    H9T10453   0.368   4.916  10.104 -0.3400 -0.1084 -1.3820
  103OSM   C10S10454   0.184   4.941   9.986 -0.3064 -0.0914 -0.7227
  103OSM   H10S10455   0.182   5.052   9.994 -0.1438 -0.1506  0.2139
  103OSM   H10T10456   0.084   4.893   9.977 -0.6771  0.8729 -2.1181
  103OSM   C11S10457   0.244   4.903   9.848 -0.1968 -0.1133  0.2862
  103OSM   H11S10458   0.251   4.792   9.849 -0.4740 -0.1299  0.3901
  103OSM   H11T10459   0.344   4.948   9.828 -0.0924 -0.8872 -1.0277
  103OSM   C12S10460   0.166   4.943   9.726 -0.0756 -0.0706  0.1323
  103OSM   H12S10461   0.178   5.053   9.712  1.2967 -0.0764  1.0099
  103OSM   H12T10462   0.060   4.913   9.740 -0.1506  0.3760  0.5318
  103OSM   C13S10463   0.204   4.875   9.588  0.4258 -0.4665  0.4620
  103OSM   H13S10464   0.213   4.766   9.608 -2.5261 -1.4546 -2.6597
  103OSM   H13T10465   0.297   4.931   9.563  0.7390 -1.2481 -0.1663
  103OSM   C14S10466   0.095   4.891   9.481 -0.5949 -0.3643  0.0462
  103OSM   H14S10467   0.058   4.995   9.480 -2.9616 -1.1571 -0.9584
  103OSM   H14T10468   0.007   4.831   9.514 -0.4826 -0.7950 -0.4147
  103OSM   C15S10469   0.140   4.841   9.342 -0.6587  0.6878  0.0938
  103OSM   H15S10470   0.168   4.733   9.348 -1.4669  0.5136  1.0917
  103OSM   H15T10471   0.237   4.890   9.318  0.1106 -1.8185 -2.3816
  103OSM   C16S10472   0.032   4.877   9.231  0.2711 -0.2043 -0.3045
  103OSM   H16S10473   0.035   4.986   9.253 -1.3804 -0.4554  1.4235
  103OSM   H16T10474  -0.068   4.839   9.262 -0.4392 -0.8154 -3.0902
  103OSM   C17S10475   0.074   4.837   9.087 -0.4170 -0.2741  0.4374
  103OSM   H17S10476   0.021   4.906   9.018 -0.3060 -0.3846  0.2430
  103OSM   H17T10477   0.039   4.732   9.079 -1.6600  0.1605 -0.0462
  103OSM   C18S10478   0.221   4.848   9.064 -0.2217  0.0626  0.5120
  103OSM   H18S10479   0.232   4.852   8.954  0.5791 -1.0460  0.5381
  103OSM   H18T10480   0.283   4.769   9.110  0.6780 -0.2796 -1.2270
  103OSM   H18U10481   0.267   4.940   9.107  0.0213 -0.1291  0.6620
  103OSM    C1F10482   0.201   4.311  10.511 -0.3069 -0.3694  0.5674
  103OSM     OF10483   0.112   4.252  10.576 -0.3271  0.0889 -0.6983
  103OSM    C2F10484   0.267   4.241  10.391  0.4234  0.5586 -1.0234
  103OSM    H2F10485   0.301   4.141  10.425  1.6602  1.4011  0.3110
  103OSM    H2G10486   0.353   4.293  10.342  0.1391 -0.0397 -2.2106
  103OSM    C3F10487   0.168   4.207  10.269  0.4525 -0.1208 -0.5387
  103OSM    H3F10488   0.122   4.299  10.230  2.1211 -0.0759 -2.5545
  103OSM    H3G10489   0.095   4.138  10.318 -0.2211  0.1309 -1.1854
  103OSM    C4F10490   0.231   4.136  10.152  0.5424 -0.3140 -0.1660
  103OSM    H4F10491   0.247   4.027  10.168 -0.2745 -0.6526 -1.4880
  103OSM    H4G10492   0.333   4.179  10.141 -0.2588  1.8233  0.2960
  103OSM    C5F10493   0.149   4.151  10.024 -0.4011  0.6051 -0.0573
  103OSM    H5F10494   0.138   4.254   9.983 -0.7940  0.5600 -0.0631
  103OSM    H5G10495   0.042   4.126  10.038 -0.2756  0.9481  1.7567
  103OSM    C6F10496   0.222   4.063   9.912  0.4412 -0.1806 -0.1475
  103OSM    H6F10497   0.215   3.956   9.942 -0.6559 -0.1468 -0.2175
  103OSM    H6G10498   0.328   4.093   9.901  0.2693 -0.2421 -2.2266
  103OSM    C7F10499   0.149   4.066   9.777 -0.3868  0.1007 -0.5347
  103OSM    H7F10500   0.182   4.156   9.721  1.3903 -1.4401 -2.1041
  103OSM    H7G10501   0.042   4.088   9.794 -0.9616 -2.0088 -1.1249
  103OSM    C8F10502   0.166   3.944   9.687  0.1064 -0.8779 -0.0707
  103OSM    H8F10503   0.268   3.903   9.703  1.0529  0.4216 -2.2961
  103OSM    H8G10504   0.164   3.993   9.587  0.1191  0.0937  0.3962
  103OSM    C9F10505   0.059   3.840   9.708  0.3919 -0.4758  0.2923
  103OSM    H9F10506   0.047   3.797   9.809  1.8577 -1.9103 -0.1093
  103OSM   C10F10507  -0.030   3.795   9.621 -0.5753  0.6552 -0.1672
  103OSM   H10F10508  -0.092   3.709   9.651 -1.6538  0.5324 -2.5560
  103OSM   C11F10509  -0.053   3.842   9.480 -0.8835  0.2886  0.8375
  103OSM   H11F10510  -0.012   3.945   9.467  1.3050 -0.3677  2.1239
  103OSM   H11G10511  -0.162   3.842   9.459 -0.9863 -0.8763  1.2999
  103OSM   C12F10512   0.011   3.746   9.375  0.3482  0.2452 -0.1430
  103OSM   H12F10513  -0.001   3.640   9.405  1.1034  0.9058  2.7906
  103OSM   H12G10514   0.118   3.766   9.397  0.1214 -0.2537  1.5664
  103OSM   C13F10515  -0.040   3.755   9.231 -0.0251 -0.7274 -0.3735
  103OSM   H13F10516  -0.049   3.860   9.193 -1.6299 -0.4851  0.6071
  103OSM   H13G10517   0.025   3.707   9.154  0.5574 -0.4107 -0.0899
  103OSM   C14F10518  -0.175   3.690   9.214 -0.0792  0.1007 -0.4737
  103OSM   H14F10519  -0.246   3.740   9.284 -0.3936 -2.8105  1.4781
  103OSM   H14G10520  -0.170   3.583   9.242 -0.1997  0.2235  0.0243
  103OSM   C15F10521  -0.223   3.690   9.066 -0.0803 -0.2788 -0.6044
  103OSM   H15F10522  -0.140   3.645   9.009 -0.1027  0.2164 -1.0359
  103OSM   H15G10523  -0.232   3.795   9.031 -1.1631 -0.5421 -1.1586
  103OSM   C16F10524  -0.357   3.617   9.049  0.9606 -0.7546  0.5057
  103OSM   H16F10525  -0.409   3.671   8.968  2.4418  0.9193  0.6098
  103OSM   H16G10526  -0.424   3.631   9.137  0.4770  1.0563 -0.1187
  103OSM   C17F10527  -0.331   3.468   9.011  0.8380 -0.3465 -0.2267
  103OSM   H17F10528  -0.297   3.414   9.102  1.1863  0.2593  0.0073
  103OSM   H17G10529  -0.250   3.454   8.936  1.5543  0.3818  0.4022
  103OSM   C18F10530  -0.457   3.391   8.957 -0.7250  0.0368  0.0790
  103OSM   H18F10531  -0.546   3.422   9.016 -2.2113 -2.1333 -0.9132
  103OSM   H18G10532  -0.438   3.282   8.947 -1.7236 -0.0255 -1.4233
  103OSM   H18H10533  -0.465   3.429   8.853  2.4361 -1.2127 -0.7215
  104OSM      N10534   4.287   4.885  10.948  0.3640  0.9028  0.2213
  104OSM    C1510535   4.347   4.859  10.812 -0.1003  0.5289 -0.1589
  104OSM   H15A10536   4.402   4.766  10.823 -0.0388  0.6184  0.3389
  104OSM   H15B10537   4.411   4.936  10.773 -0.0047  0.9980  0.8855
  104OSM   H15C10538   4.268   4.840  10.741 -1.3637 -1.8818  1.7138
  104OSM    C1410539   4.408   4.890  11.048  0.3269  0.4903 -0.1706
  104OSM   H14A10540   4.442   4.788  11.060  0.6951  0.7666  1.3106
  104OSM   H14B10541   4.373   4.926  11.144 -3.2351  0.6407 -1.3709
  104OSM   H14C10542   4.480   4.956  11.002  0.3729  1.7481  1.6111
  104OSM    C1310543   4.217   5.014  10.947 -0.1967 -0.3494  0.0115
  104OSM   H13A10544   4.122   4.996  10.899 -0.1362  1.4615 -0.8564
  104OSM   H13B10545   4.272   5.082  10.884  0.3193 -2.1534 -1.6072
  104OSM   H13C10546   4.199   5.054  11.045 -0.1733 -2.7866  1.0870
  104OSM    C1210547   4.183   4.776  10.986 -0.4376 -0.4024  0.0630
  104OSM   H12A10548   4.163   4.783  11.092  1.4569 -1.1388  0.5054
  104OSM   H12B10549   4.232   4.684  10.958  0.8887  0.3475 -0.1630
  104OSM    C1110550   4.056   4.789  10.903  0.4907 -0.2532 -0.5308
  104OSM   H11A10551   3.996   4.876  10.937  0.9582 -0.8806  2.1082
  104OSM   H11B10552   3.994   4.702  10.932 -0.7097  0.1934 -1.6574
  104OSM      P10553   4.105   4.651  10.688  0.1259  0.2618  0.0986
  104OSM    O1310554   4.229   4.670  10.611 -0.7991 -0.8983  0.2696
  104OSM    O1410555   4.094   4.534  10.773 -0.3343  0.0963  0.6615
  104OSM    O1110556   3.977   4.645  10.599  0.7904 -0.1237 -0.2829
  104OSM    O1210557   4.083   4.785  10.762  0.4009 -0.4449  0.0690
  104OSM    C1S10558   3.963   4.740  10.492 -0.3369  0.1696  0.4547
  104OSM    H1S10559   4.030   4.718  10.406 -1.5803  0.9790 -0.7530
  104OSM    H1T10560   3.985   4.846  10.518 -0.0597  0.4189 -0.7434
  104OSM     NF10561   3.821   4.812  10.299 -0.0675  0.1653  0.5266
  104OSM    HNF10562   3.800   4.909  10.306  0.9062  0.4198  0.2205
  104OSM    C2S10563   3.821   4.742  10.423  0.1983 -0.3657  0.3286
  104OSM    H2S10564   3.812   4.636  10.391  0.3057 -1.2143  2.8975
  104OSM    C3S10565   3.725   4.777  10.530  0.2300  0.6097  0.0187
  104OSM    H3S10566   3.744   4.879  10.570 -0.0480  0.0648  1.6164
  104OSM     O310567   3.719   4.686  10.640  0.8424  0.6141 -0.5358
  104OSM    HO310568   3.798   4.633  10.623  0.1751 -0.0423 -1.7119
  104OSM    C4S10569   3.586   4.761  10.482 -0.8983 -0.2180  1.0206
  104OSM    H4S10570   3.535   4.664  10.478 -1.2053 -0.0302 -2.4432
  104OSM    C5S10571   3.526   4.877  10.437 -0.2186 -0.1184  0.1699
  104OSM    H5S10572   3.578   4.973  10.426  1.6156 -1.0377  0.2677
  104OSM    C6S10573   3.387   4.877  10.378  0.0999  0.4631  0.2429
  104OSM    H6S10574   3.342   4.978  10.374  0.9774  0.8322 -1.7702
  104OSM    H6T10575   3.326   4.805  10.436  1.5814 -1.0140  0.0545
  104OSM    C7S10576   3.392   4.824  10.235 -0.6437  0.4708  0.0106
  104OSM    H7S10577   3.297   4.775  10.206  0.1709 -0.2961 -1.4503
  104OSM    H7T10578   3.475   4.750  10.229  1.0869  2.2937  0.1080
  104OSM    C8S10579   3.411   4.934  10.129  0.0888  0.1734 -0.1033
  104OSM    H8S10580   3.508   4.986  10.141  1.8305 -1.3684 -4.9729
  104OSM    H8T10581   3.330   5.009  10.140  0.3821  0.4808 -0.0133
  104OSM    C9S10582   3.411   4.873   9.990 -0.4227 -0.3393  0.4585
  104OSM    H9S10583   3.331   4.796   9.978  1.2878 -2.1567  0.1068
  104OSM    H9T10584   3.503   4.815   9.968 -1.1786 -1.2897 -0.2943
  104OSM   C10S10585   3.399   4.975   9.869  0.1546  0.3803 -0.3556
  104OSM   H10S10586   3.493   5.035   9.876  0.5824 -0.3337  0.1699
  104OSM   H10T10587   3.308   5.033   9.894 -1.4752 -2.5049  0.9513
  104OSM   C11S10588   3.404   4.899   9.741  0.5070  0.1310  1.1091
  104OSM   H11S10589   3.328   4.818   9.741  2.0409 -1.5761 -2.8856
  104OSM   H11T10590   3.501   4.849   9.719 -0.9613 -2.0663 -0.7161
  104OSM   C12S10591   3.351   4.982   9.618 -0.1028 -0.0251  0.9019
  104OSM   H12S10592   3.421   5.062   9.586  0.5933 -0.4664  1.3073
  104OSM   H12T10593   3.261   5.033   9.658 -0.1990 -1.5828  2.7816
  104OSM   C13S10594   3.322   4.901   9.492 -0.1060  0.2289 -0.8152
  104OSM   H13S10595   3.250   4.819   9.511  0.7312 -0.5824 -1.0834
  104OSM   H13T10596   3.416   4.848   9.469  0.9779  0.7039  2.0609
  104OSM   C14S10597   3.265   4.973   9.376  0.0129  0.4715  0.0799
  104OSM   H14S10598   3.324   5.065   9.359 -1.9251  1.5615 -1.1467
  104OSM   H14T10599   3.166   5.021   9.391  0.5617  1.1456  1.6871
  104OSM   C15S10600   3.265   4.883   9.247 -0.3872 -0.4434  0.4957
  104OSM   H15S10601   3.170   4.895   9.192  1.4121  0.2695 -2.7623
  104OSM   H15T10602   3.272   4.776   9.275  1.8476 -0.7711 -1.0237
  104OSM   C16S10603   3.377   4.912   9.151  0.6184 -0.3768  0.1285
  104OSM   H16S10604   3.470   4.945   9.203  0.1589  2.1381 -0.5024
  104OSM   H16T10605   3.364   5.007   9.095  0.9166 -0.6008 -0.3198
  104OSM   C17S10606   3.411   4.790   9.067 -0.4980 -0.0012 -0.0529
  104OSM   H17S10607   3.319   4.783   9.005 -0.7958  0.5846  0.3119
  104OSM   H17T10608   3.424   4.705   9.137  0.3596 -0.2712 -0.5290
  104OSM   C18S10609   3.544   4.789   8.992  0.2253  0.3647 -0.0226
  104OSM   H18S10610   3.560   4.878   8.928 -1.1025  2.2333  2.0810
  104OSM   H18T10611   3.559   4.691   8.941 -2.0904 -0.1781  0.2280
  104OSM   H18U10612   3.628   4.803   9.063 -0.1660  2.6318  0.0525
  104OSM    C1F10613   3.875   4.773  10.181 -0.5316  0.0207 -0.5040
  104OSM     OF10614   3.968   4.688  10.181 -0.2693  0.1706 -0.1127
  104OSM    C2F10615   3.830   4.834  10.051  0.4511 -0.1661  0.0571
  104OSM    H2F10616   3.888   4.924  10.022  1.6898 -1.4843 -1.7243
  104OSM    H2G10617   3.728   4.877  10.059 -0.2675 -1.7576 -0.1216
  104OSM    C3F10618   3.829   4.733   9.931 -0.0963  0.1108 -0.4493
  104OSM    H3F10619   3.749   4.659   9.952 -2.4570  2.4368 -0.8308
  104OSM    H3G10620   3.929   4.684   9.930 -1.0461 -1.9228  0.1945
  104OSM    C4F10621   3.787   4.810   9.806  0.5062  0.1692  0.8770
  104OSM    H4F10622   3.826   4.914   9.799  0.0645  0.2717 -0.2982
  104OSM    H4G10623   3.677   4.816   9.817  0.1685 -0.0039 -1.8003
  104OSM    C5F10624   3.821   4.738   9.671  0.0336  0.1198  0.1019
  104OSM    H5F10625   3.774   4.638   9.671 -1.0092  0.5770 -0.8863
  104OSM    H5G10626   3.932   4.729   9.673  0.1561  1.4678  1.6529
  104OSM    C6F10627   3.775   4.814   9.538 -0.1897  0.4193 -0.4340
  104OSM    H6F10628   3.796   4.923   9.548  2.0149 -0.0769  1.0019
  104OSM    H6G10629   3.667   4.797   9.516 -0.2597  0.9845 -0.5440
  104OSM    C7F10630   3.842   4.758   9.415  0.1085  0.2397  0.2520
  104OSM    H7F10631   3.787   4.793   9.325  0.6744 -3.0994 -1.5642
  104OSM    H7G10632   3.828   4.648   9.414 -0.4706  0.3113 -0.1922
  104OSM    C8F10633   3.990   4.773   9.383 -0.2246  0.4613 -0.6479
  104OSM    H8F10634   3.995   4.753   9.274  1.7100  2.7993 -1.0796
  104OSM    H8G10635   4.048   4.701   9.444 -0.7134  0.5253 -0.0910
  104OSM    C9F10636   4.038   4.916   9.394  0.5446  0.0658  0.4121
  104OSM    H9F10637   4.003   4.966   9.303  0.7846 -0.2912  0.1192
  104OSM   C10F10638   4.121   4.977   9.479 -0.6226  0.1148 -0.1356
  104OSM   H10F10639   4.145   5.080   9.449 -1.9909 -0.0584 -1.9970
  104OSM   C11F10640   4.186   4.914   9.601  0.3491  0.0209 -0.0140
  104OSM   H11F10641   4.296   4.920   9.588  0.2930 -0.6089 -0.8530
  104OSM   H11G10642   4.162   4.806   9.611 -0.2449  0.2929  1.9973
  104OSM   C12F10643   4.172   4.992   9.735 -0.0283 -0.3191  0.3863
  104OSM   H12F10644   4.063   4.979   9.753 -1.0612  1.8847 -3.2634
  104OSM   H12G10645   4.206   5.095   9.715  0.6956 -1.1252 -3.2631
  104OSM   C13F10646   4.268   4.939   9.850 -0.2644 -0.7252 -0.4695
  104OSM   H13F10647   4.373   4.971   9.829 -0.8099  0.2621 -1.8270
  104OSM   H13G10648   4.277   4.829   9.865  0.7575 -0.4705  1.0455
  104OSM   C14F10649   4.206   4.987   9.980 -0.7651  0.4127 -0.6510
  104OSM   H14F10650   4.109   4.936   9.997  0.8279 -2.1313  1.7342
  104OSM   H14G10651   4.201   5.097   9.990  1.5163  0.4105  1.7043
  104OSM   C15F10652   4.290   4.954  10.103 -0.5449  0.5367  0.6983
  104OSM   H15F10653   4.395   4.980  10.077 -0.7904 -0.1634 -1.1271
  104OSM   H15G10654   4.294   4.844  10.116 -0.3824  0.5272  0.5732
  104OSM   C16F10655   4.238   5.013  10.235  0.0966 -0.4170  0.4230
  104OSM   H16F10656   4.127   5.006  10.232  0.0159  0.7186 -1.7447
  104OSM   H16G10657   4.261   5.122  10.237  0.5248 -0.5028  3.1211
  104OSM   C17F10658   4.298   4.944  10.352 -0.5771  0.5018  0.3965
  104OSM   H17F10659   4.408   4.928  10.346 -0.7267 -0.6591  0.6079
  104OSM   H17G10660   4.262   4.840  10.361 -0.9076  0.4817 -0.8872
  104OSM   C18F10661   4.257   5.015  10.488  0.0399  0.9370  0.3544
  104OSM   H18F10662   4.282   4.951  10.575  0.4432 -0.5750 -0.8126
  104OSM   H18G10663   4.146   5.023  10.485 -0.0409 -0.1934 -0.7809
  104OSM   H18H10664   4.297   5.118  10.498 -3.6179  2.7543 -1.6762
  105OSM      N10665   3.576   4.147  10.964 -0.3117  0.2573  1.2007
  105OSM    C1510666   3.717   4.181  11.008  0.4133  0.1766 -1.0513
  105OSM   H15A10667   3.771   4.253  10.947  0.7669  0.2167 -0.6981
  105OSM   H15B10668   3.783   4.096  11.001  0.2221  0.0011 -0.6988
  105OSM   H15C10669   3.722   4.215  11.110  2.3433  1.6755 -1.5630
  105OSM    C1410670   3.534   4.030  11.039 -0.0509 -0.4188 -0.1439
  105OSM   H14A10671   3.602   3.950  11.013  0.6285 -0.0986  0.5975
  105OSM   H14B10672   3.435   3.992  11.020  0.7020 -1.7108 -1.7458
  105OSM   H14C10673   3.548   4.051  11.144  1.9966  0.8802 -0.5992
  105OSM    C1310674   3.481   4.256  10.994  0.7901 -0.2062  0.2315
  105OSM   H13A10675   3.501   4.340  10.929  0.9069  0.3338  0.9644
  105OSM   H13B10676   3.486   4.279  11.099  1.8829  0.5184  0.0402
  105OSM   H13C10677   3.378   4.231  10.975  0.8111  1.2875 -2.3142
  105OSM    C1210678   3.576   4.107  10.819  0.3162  0.0731 -1.0188
  105OSM   H12A10679   3.473   4.096  10.787 -1.0900  1.5706  2.5084
  105OSM   H12B10680   3.623   4.011  10.806  1.2398  0.3324  0.2530
  105OSM    C1110681   3.645   4.201  10.723 -0.0224 -1.1983 -0.1595
  105OSM   H11A10682   3.604   4.304  10.728  1.7738 -0.3942 -1.2934
  105OSM   H11B10683   3.627   4.174  10.616 -1.8469 -0.7146 -0.0125
  105OSM      P10684   3.895   4.128  10.674 -0.2522 -0.0686  0.0130
  105OSM    O1310685   4.022   4.150  10.743 -0.1259 -0.0315  0.4044
  105OSM    O1410686   3.851   3.983  10.672  0.2689 -0.6867 -0.2397
  105OSM    O1110687   3.902   4.184  10.524  0.0777  0.5613  0.6208
  105OSM    O1210688   3.789   4.214  10.745  0.0964 -0.0248  0.2931
  105OSM    C1S10689   3.975   4.307  10.496 -0.3186 -0.1077  0.9279
  105OSM    H1S10690   4.065   4.315  10.560  1.1775 -0.3617 -1.0634
  105OSM    H1T10691   3.913   4.399  10.509 -1.9331 -1.3051  2.0887
  105OSM     NF10692   4.096   4.429  10.321 -0.0689  0.1602 -0.8000
  105OSM    HNF10693   4.040   4.497  10.272 -0.0486 -1.1169 -2.7112
  105OSM    C2S10694   4.027   4.307  10.348 -0.4430 -0.4996 -0.0537
  105OSM    H2S10695   4.093   4.220  10.327  1.0197  0.7423 -0.7548
  105OSM    C3S10696   3.895   4.296  10.258 -0.0954 -1.0442 -0.6879
  105OSM    H3S10697   3.837   4.387  10.285  1.9917  0.4834 -1.0726
  105OSM     O310698   3.812   4.184  10.279  0.3334  0.0913 -0.0050
  105OSM    HO310699   3.823   4.168  10.373  1.3091  0.7216  0.0029
  105OSM    C4S10700   3.932   4.295  10.113 -0.1865  0.0726  0.3650
  105OSM    H4S10701   3.995   4.210  10.081  1.2542  1.4779 -0.7368
  105OSM    C5S10702   3.911   4.395  10.030  0.1516 -0.4254  0.0354
  105OSM    H5S10703   3.886   4.494  10.071  2.0265  0.6254 -1.1708
  105OSM    C6S10704   3.958   4.396   9.894  0.6544  0.0361  0.6101
  105OSM    H6S10705   4.025   4.478   9.860 -1.5718  0.6016 -2.8868
  105OSM    H6T10706   3.870   4.413   9.829  0.3560 -2.0726  0.3808
  105OSM    C7S10707   4.015   4.264   9.840 -0.0148 -0.2782 -0.1497
  105OSM    H7S10708   3.948   4.176   9.842  0.2137 -0.4581 -0.3488
  105OSM    H7T10709   4.107   4.244   9.899 -0.6547  0.2558  1.0662
  105OSM    C8S10710   4.054   4.281   9.685 -0.7866  0.0535 -0.8156
  105OSM    H8S10711   4.120   4.202   9.644 -0.6574 -1.3367  1.8502
  105OSM    H8T10712   4.112   4.375   9.671 -1.3284  0.0905 -3.2934
  105OSM    C9S10713   3.935   4.280   9.589  0.0684 -0.9049 -0.0632
  105OSM    H9S10714   3.859   4.353   9.623  0.2485 -1.5957  1.9941
  105OSM    H9T10715   3.900   4.174   9.591 -0.0542 -0.8815 -0.7644
  105OSM   C10S10716   3.976   4.333   9.450  0.0060  0.5868 -0.9825
  105OSM   H10S10717   4.067   4.279   9.415  0.7182  0.6905  0.6564
  105OSM   H10T10718   4.011   4.436   9.472  0.7189 -0.1897  1.7810
  105OSM   C11S10719   3.858   4.324   9.356  0.1905  0.0171 -1.4751
  105OSM   H11S10720   3.782   4.386   9.409 -0.0963 -1.4474 -0.0703
  105OSM   H11T10721   3.804   4.227   9.351  1.8845 -1.1877  1.4112
  105OSM   C12S10722   3.882   4.383   9.215  0.0912  0.0086 -0.0603
  105OSM   H12S10723   3.966   4.319   9.180  0.1210 -2.0506  3.3023
  105OSM   H12T10724   3.915   4.488   9.233 -1.8607  1.0827 -2.3103
  105OSM   C13S10725   3.760   4.395   9.118  0.1894 -0.5406  0.0454
  105OSM   H13S10726   3.670   4.446   9.158 -0.6977 -2.5085  0.7128
  105OSM   H13T10727   3.725   4.293   9.090 -2.8799  0.3764  0.1491
  105OSM   C14S10728   3.781   4.468   8.987  0.3086  0.6558  0.4990
  105OSM   H14S10729   3.885   4.445   8.956 -0.2010 -0.3141 -0.5222
  105OSM   H14T10730   3.756   4.574   9.009 -0.7085  0.8115 -1.2718
  105OSM   C15S10731   3.684   4.422   8.880 -0.4231  0.3852 -0.4575
  105OSM   H15S10732   3.584   4.447   8.924 -0.2935 -1.9392  1.3017
  105OSM   H15T10733   3.688   4.312   8.875  2.7048  0.4216 -0.2798
  105OSM   C16S10734   3.712   4.477   8.742  0.2733  0.0931  0.2680
  105OSM   H16S10735   3.718   4.588   8.747  2.6976 -0.0385  1.6259
  105OSM   H16T10736   3.638   4.437   8.670  0.1971 -0.2544  0.5341
  105OSM   C17S10737   3.850   4.434   8.688 -0.7171 -0.4666 -0.2654
  105OSM   H17S10738   3.861   4.325   8.666  1.9778 -0.3104 -0.0303
  105OSM   H17T10739   3.928   4.462   8.762 -1.4585 -3.9514  2.1150
  105OSM   C18S10740   3.881   4.515   8.567  0.9803  0.1962 -0.0443
  105OSM   H18S10741   3.790   4.504   8.504 -0.2072  2.0431  1.2564
  105OSM   H18T10742   3.976   4.479   8.522  0.9311 -0.1138  0.0943
  105OSM   H18U10743   3.882   4.621   8.600  2.3110 -0.3263  1.8055
  105OSM    C1F10744   4.225   4.442  10.342  0.2074  0.4057  0.3969
  105OSM     OF10745   4.296   4.353  10.390 -0.4302 -0.0074 -0.0390
  105OSM    C2F10746   4.294   4.573  10.288 -0.3003 -0.0148  0.6747
  105OSM    H2F10747   4.346   4.622  10.373 -0.7085 -0.0949  0.9712
  105OSM    H2G10748   4.217   4.641  10.248 -1.9448 -2.3259 -0.3480
  105OSM    C3F10749   4.397   4.556  10.169  0.6265  0.2387  0.1381
  105OSM    H3F10750   4.475   4.483  10.197 -3.3143 -3.5260  2.4093
  105OSM    H3G10751   4.440   4.658  10.151  0.9802  0.0791  0.0661
  105OSM    C4F10752   4.337   4.501  10.041 -0.0057  0.3716 -0.3306
  105OSM    H4F10753   4.244   4.559  10.021 -1.2314  0.0637  3.6568
  105OSM    H4G10754   4.296   4.398  10.048 -2.0051  0.8541 -3.2753
  105OSM    C5F10755   4.429   4.514   9.927 -0.1989 -0.6778  0.0086
  105OSM    H5F10756   4.529   4.468   9.942  1.0391  1.8800  0.1852
  105OSM    H5G10757   4.449   4.623   9.919 -0.0220 -0.8223 -2.4813
  105OSM    C6F10758   4.372   4.471   9.796  0.3192  0.6037 -0.2516
  105OSM    H6F10759   4.279   4.527   9.770  0.5666  0.9682 -0.3578
  105OSM    H6G10760   4.356   4.361   9.797  2.0616 -0.0737 -6.2806
  105OSM    C7F10761   4.476   4.482   9.679  0.4911 -0.2645  0.1551
  105OSM    H7F10762   4.551   4.401   9.684 -0.7803 -1.4887  0.1136
  105OSM    H7G10763   4.516   4.585   9.693 -2.4682  0.7985  1.7600
  105OSM    C8F10764   4.411   4.479   9.540 -0.1028  0.3855 -0.0762
  105OSM    H8F10765   4.330   4.404   9.547  0.0072  0.4321  2.5253
  105OSM    H8G10766   4.490   4.439   9.472 -0.7742 -1.1881  0.0463
  105OSM    C9F10767   4.366   4.611   9.492  0.1792  0.3615  0.3817
  105OSM    H9F10768   4.360   4.679   9.578 -0.4059 -0.1225  0.7332
  105OSM   C10F10769   4.337   4.649   9.364  0.3703 -0.3766 -0.5744
  105OSM   H10F10770   4.308   4.754   9.354 -2.3411 -0.8928  0.9815
  105OSM   C11F10771   4.340   4.565   9.238 -0.0608  0.1856  0.1589
  105OSM   H11F10772   4.389   4.470   9.267 -0.4685  1.1277  4.5797
  105OSM   H11G10773   4.397   4.619   9.159  1.1349  1.2278  1.6885
  105OSM   C12F10774   4.212   4.523   9.176 -0.2919  0.1940 -0.0383
  105OSM   H12F10775   4.165   4.614   9.133  2.9231  2.4288  0.7739
  105OSM   H12G10776   4.150   4.494   9.263  0.2157  0.8602  0.5632
  105OSM   C13F10777   4.213   4.421   9.065  0.1719 -0.7546 -0.7965
  105OSM   H13F10778   4.118   4.377   9.029 -0.7523 -1.0431  1.7941
  105OSM   H13G10779   4.274   4.338   9.107  1.4586  1.3860  1.9725
  105OSM   C14F10780   4.283   4.467   8.937  0.2118  0.0556  0.1039
  105OSM   H14F10781   4.301   4.376   8.875  0.1946  0.7056 -0.8689
  105OSM   H14G10782   4.378   4.520   8.959 -0.2826  1.4822 -1.0792
  105OSM   C15F10783   4.200   4.560   8.845  0.5460  0.1956 -0.4663
  105OSM   H15F10784   4.090   4.543   8.854 -0.0021  2.1114 -2.5803
  105OSM   H15G10785   4.235   4.532   8.743  3.1556  1.6387 -0.0503
  105OSM   C16F10786   4.237   4.707   8.861  0.4291 -0.1893 -0.1566
  105OSM   H16F10787   4.341   4.715   8.821  0.2200  0.0353 -0.6751
  105OSM   H16G10788   4.250   4.740   8.966  0.7631  0.9166 -0.5341
  105OSM   C17F10789   4.146   4.797   8.783  0.4945  0.5887 -0.0679
  105OSM   H17F10790   4.117   4.749   8.687 -0.3577 -2.3530  1.5500
  105OSM   H17G10791   4.189   4.893   8.747  0.0572  1.1016  0.7525
  105OSM   C18F10792   4.022   4.840   8.874 -0.3575  0.1062  0.7395
  105OSM   H18F10793   3.976   4.744   8.906 -0.1005 -0.0172  0.7387
  105OSM   H18G10794   3.952   4.896   8.808  1.8892  1.2671 -0.7615
  105OSM   H18H10795   4.046   4.906   8.960 -1.4646 -1.3539  2.2369
  106OSM      N10796   4.436   1.721  10.806  0.4023 -0.3328 -0.6177
  106OSM    C1510797   4.427   1.578  10.763 -0.8723  0.6621  0.5213
  106OSM   H15A10798   4.394   1.516  10.845 -3.9870  1.5668  0.0955
  106OSM   H15B10799   4.526   1.553  10.729 -0.1718 -1.2373  3.5806
  106OSM   H15C10800   4.358   1.565  10.681 -1.1282  1.4554  0.6004
  106OSM    C1410801   4.301   1.775  10.835  0.3410  0.0441 -0.1540
  106OSM   H14A10802   4.247   1.798  10.745 -0.4293 -0.4511  0.1658
  106OSM   H14B10803   4.305   1.861  10.900 -1.8515 -1.0525  1.5753
  106OSM   H14C10804   4.246   1.706  10.898  0.3555  0.2903  0.1284
  106OSM    C1310805   4.522   1.725  10.927 -0.6179 -0.2143  0.0338
  106OSM   H13A10806   4.474   1.663  11.001 -1.2865 -0.3497 -0.4959
  106OSM   H13B10807   4.523   1.824  10.970  3.0052  0.5360 -1.4556
  106OSM   H13C10808   4.620   1.687  10.905 -0.6608  1.2720 -3.3580
  106OSM    C1210809   4.497   1.799  10.697 -0.3855 -0.5464 -0.2249
  106OSM   H12A10810   4.594   1.758  10.672  0.2632  1.8561 -1.9937
  106OSM   H12B10811   4.525   1.895  10.738  0.1888 -0.3603 -1.0301
  106OSM    C1110812   4.427   1.820  10.558  0.0689  0.3047 -0.4249
  106OSM   H11A10813   4.412   1.721  10.509  0.3747  0.3481 -0.6052
  106OSM   H11B10814   4.490   1.886  10.496 -0.8728  2.7921  1.0792
  106OSM      P10815   4.292   2.037  10.588 -0.2679  0.0765 -0.8121
  106OSM    O1310816   4.154   2.064  10.633 -0.3085  0.0391 -1.2877
  106OSM    O1410817   4.398   2.089  10.678  0.4137  0.4179  0.3401
  106OSM    O1110818   4.316   2.081  10.444 -0.4007 -0.5449 -0.2091
  106OSM    O1210819   4.302   1.881  10.584  0.6619 -0.4652  0.1194
  106OSM    C1S10820   4.252   2.016  10.331 -0.3492 -0.2619  0.4383
  106OSM    H1S10821   4.142   2.020  10.342 -0.6426 -0.8835 -1.7902
  106OSM    H1T10822   4.286   1.913  10.305  2.2148  0.7369 -0.5314
  106OSM     NF10823   4.210   2.047  10.084  0.1514 -0.3081 -0.8892
  106OSM    HNF10824   4.256   1.981  10.025 -0.8009 -0.4382 -1.5085
  106OSM    C2S10825   4.286   2.101  10.198  0.0299  0.2577 -1.1003
  106OSM    H2S10826   4.249   2.204  10.213 -0.4825 -0.1765  0.9328
  106OSM    C3S10827   4.444   2.101  10.186 -0.1640 -0.1454  0.1358
  106OSM    H3S10828   4.485   2.005  10.224  0.4297  0.6232  1.5129
  106OSM     O310829   4.502   2.202  10.268 -0.2134 -0.4265  0.3513
  106OSM    HO310830   4.446   2.207  10.345 -0.9009  0.3707 -0.1809
  106OSM    C4S10831   4.494   2.127  10.040 -0.3938 -0.0691 -0.1184
  106OSM    H4S10832   4.472   2.038   9.979 -1.0951  0.9792 -1.4561
  106OSM    C5S10833   4.551   2.233   9.987  0.5502  0.2891  0.9980
  106OSM    H5S10834   4.581   2.323  10.043  0.4145 -1.2102  3.6335
  106OSM    C6S10835   4.579   2.246   9.833  0.0116 -0.2200 -0.2752
  106OSM    H6S10836   4.686   2.268   9.812 -0.5271  0.4493 -2.5557
  106OSM    H6T10837   4.546   2.347   9.801  3.0989  0.9500 -0.0583
  106OSM    C7S10838   4.537   2.125   9.740 -0.2855 -0.7555 -0.4827
  106OSM    H7S10839   4.427   2.112   9.741 -0.1244 -2.8748 -2.9939
  106OSM    H7T10840   4.592   2.033   9.770  1.2318  0.2186 -0.1345
  106OSM    C8S10841   4.582   2.147   9.594  0.2446  0.4328  0.4549
  106OSM    H8S10842   4.683   2.192   9.578  0.5577 -0.4498 -0.0694
  106OSM    H8T10843   4.505   2.214   9.549  2.4958  2.7143 -0.2879
  106OSM    C9S10844   4.588   2.029   9.503 -0.0633 -0.4076 -0.0582
  106OSM    H9S10845   4.641   1.943   9.550 -0.2138  0.7227  2.3254
  106OSM    H9T10846   4.634   2.061   9.407  0.3975  0.0980  0.3266
  106OSM   C10S10847   4.446   1.977   9.475  0.0467  0.4163  0.0734
  106OSM   H10S10848   4.376   2.061   9.454 -0.1888  0.2478  0.1876
  106OSM   H10T10849   4.405   1.913   9.556  0.6033  1.8192  1.5142
  106OSM   C11S10850   4.455   1.889   9.349 -0.2718 -0.5021 -0.0749
  106OSM   H11S10851   4.543   1.821   9.349  0.5469  0.5010 -1.5156
  106OSM   H11T10852   4.454   1.946   9.254 -2.5567 -2.0665 -1.0493
  106OSM   C12S10853   4.326   1.806   9.329  0.1478 -0.1135  0.3190
  106OSM   H12S10854   4.250   1.887   9.330 -0.2999 -0.3406  4.6195
  106OSM   H12T10855   4.308   1.745   9.420  0.3382  0.2596  0.6132
  106OSM   C13S10856   4.312   1.719   9.202  0.5582  0.3713 -0.5227
  106OSM   H13S10857   4.208   1.682   9.208 -0.3939  3.1361  2.1871
  106OSM   H13T10858   4.379   1.630   9.212 -2.5273 -2.1582 -0.8356
  106OSM   C14S10859   4.325   1.793   9.068  0.5193  0.5423  0.6493
  106OSM   H14S10860   4.424   1.843   9.075  0.7709  0.5130 -1.7858
  106OSM   H14T10861   4.249   1.873   9.065  2.2983  2.3554  1.5257
  106OSM   C15S10862   4.303   1.713   8.934 -0.2688 -0.9535 -0.4123
  106OSM   H15S10863   4.403   1.668   8.917  0.8742  0.8538  1.1022
  106OSM   H15T10864   4.275   1.794   8.862 -2.1230  2.3945  3.6563
  106OSM   C16S10865   4.186   1.609   8.930  0.5701 -0.5960 -0.7386
  106OSM   H16S10866   4.093   1.659   8.965 -1.4848 -0.0253 -6.0986
  106OSM   H16T10867   4.224   1.525   8.993  0.4720  0.7612  1.2248
  106OSM   C17S10868   4.139   1.567   8.788  0.4326  0.1503  0.2955
  106OSM   H17S10869   4.086   1.648   8.733  0.8461 -0.1284 -0.5166
  106OSM   H17T10870   4.061   1.490   8.803  0.2342  0.3264  0.1627
  106OSM   C18S10871   4.248   1.517   8.683  0.7776  0.4395 -0.4512
  106OSM   H18S10872   4.192   1.472   8.599 -0.2790  0.6423  0.1215
  106OSM   H18T10873   4.305   1.432   8.725  2.2432  2.3903  1.8042
  106OSM   H18U10874   4.319   1.600   8.661 -1.2525  1.8410 -2.0897
  106OSM    C1F10875   4.075   2.065  10.068  0.0598 -0.1348 -0.7994
  106OSM     OF10876   4.006   2.138  10.143  0.4255  0.6521 -0.3911
  106OSM    C2F10877   4.004   1.987   9.964 -0.2468 -0.5792 -0.3623
  106OSM    H2F10878   3.910   1.946  10.007 -0.8326  0.3618 -0.7154
  106OSM    H2G10879   4.062   1.898   9.934 -0.4560 -1.5041  1.7578
  106OSM    C3F10880   3.952   2.080   9.852 -0.0849  0.3467  0.3667
  106OSM    H3F10881   3.908   2.177   9.883 -1.0378  0.2120 -0.5044
  106OSM    H3G10882   3.878   2.027   9.789  1.9708 -0.5607 -1.4145
  106OSM    C4F10883   4.054   2.106   9.746 -1.2359 -0.4242 -0.5094
  106OSM    H4F10884   4.157   2.118   9.787 -1.2082  2.2622 -1.1955
  106OSM    H4G10885   4.033   2.211   9.715 -0.3115  0.2124  0.9342
  106OSM    C5F10886   4.067   1.998   9.633  0.6184  0.2930  0.2631
  106OSM    H5F10887   4.068   1.894   9.673  2.5426  1.1385  2.6985
  106OSM    H5G10888   4.166   2.017   9.587 -0.5360  1.6684 -1.7787
  106OSM    C6F10889   3.961   2.018   9.522  0.0889 -0.0976 -0.0201
  106OSM    H6F10890   3.983   2.117   9.478 -0.0037  0.2128  0.6115
  106OSM    H6G10891   3.864   2.028   9.576  1.1573  1.8441  1.6589
  106OSM    C7F10892   3.956   1.901   9.417  0.6477 -0.7556 -0.3573
  106OSM    H7F10893   3.941   1.812   9.481  0.6747 -0.7786 -0.3828
  106OSM    H7G10894   4.059   1.898   9.375  1.0489 -2.3665  0.6768
  106OSM    C8F10895   3.834   1.921   9.324  0.6232  0.4471 -0.0110
  106OSM    H8F10896   3.744   1.957   9.378  0.6879  1.3206 -0.4604
  106OSM    H8G10897   3.830   1.818   9.282  2.8008  0.2586  0.1246
  106OSM    C9F10898   3.867   2.028   9.223 -0.2037 -0.4296 -0.3854
  106OSM    H9F10899   3.856   2.126   9.270  2.2217 -0.0532 -0.4610
  106OSM   C10F10900   3.912   2.031   9.102 -0.6182  0.3979 -0.9934
  106OSM   H10F10901   3.946   2.128   9.063  1.4344 -0.4540 -1.4239
  106OSM   C11F10902   3.938   1.916   9.010 -0.0495  0.5030 -0.0097
  106OSM   H11F10903   3.876   1.829   9.040 -1.0062  1.8547  2.1578
  106OSM   H11G10904   4.047   1.899   9.025 -0.3223 -1.9673 -0.3745
  106OSM   C12F10905   3.908   1.957   8.862  0.0743  0.6449 -0.2639
  106OSM   H12F10906   3.936   1.875   8.793 -0.9564 -2.1178  2.3792
  106OSM   H12G10907   3.963   2.051   8.840 -2.5586  1.8479 -2.2702
  106OSM   C13F10908   3.758   1.983   8.835 -0.6290  0.4984  0.1520
  106OSM   H13F10909   3.736   2.072   8.898  0.9465  0.6975  0.4792
  106OSM   H13G10910   3.691   1.900   8.866  0.9833 -1.1556 -0.5630
  106OSM   C14F10911   3.746   2.028   8.686 -0.3478 -0.8153 -0.9331
  106OSM   H14F10912   3.823   2.101   8.656 -1.1671 -0.0465 -1.2103
  106OSM   H14G10913   3.647   2.075   8.668  0.8068  2.9965  1.7182
  106OSM   C15F10914   3.737   1.902   8.598 -0.2054  0.0750  0.1161
  106OSM   H15F10915   3.655   1.835   8.630  1.9504 -2.7515  0.1590
  106OSM   H15G10916   3.830   1.840   8.593 -0.4070 -0.4654  2.2116
  106OSM   C16F10917   3.693   1.941   8.457  0.2103  0.3787  0.2461
  106OSM   H16F10918   3.746   2.026   8.409  0.6538  1.5305  2.6187
  106OSM   H16G10919   3.587   1.972   8.470  0.0841 -0.9956  3.6038
  106OSM   C17F10920   3.669   1.825   8.357  0.0647 -0.3975  0.7059
  106OSM   H17F10921   3.592   1.750   8.386  0.1454 -0.5966  0.4086
  106OSM   H17G10922   3.753   1.753   8.352  0.4503 -0.0555  1.8098
  106OSM   C18F10923   3.636   1.864   8.211  0.8516 -0.0341 -0.2614
  106OSM   H18F10924   3.616   1.770   8.155  0.0933 -0.9804  1.5140
  106OSM   H18G10925   3.712   1.927   8.159  0.3651 -0.2466 -1.2508
  106OSM   H18H10926   3.541   1.921   8.208  1.2659  0.6630 -2.6571
  107OSM      N10927   0.581   5.779  11.097  0.1552  0.3662  0.2491
  107OSM    C1510928   0.587   5.851  10.963 -0.0294  0.1265 -0.5830
  107OSM   H15A10929   0.529   5.941  10.979  0.9456  0.6519  0.0813
  107OSM   H15B10930   0.534   5.791  10.891 -0.6125  0.6418 -0.5930
  107OSM   H15C10931   0.690   5.865  10.935 -0.5142 -0.2688 -2.6997
  107OSM    C1410932   0.665   5.660  11.094 -0.2298 -0.3767  0.2219
  107OSM   H14A10933   0.699   5.630  11.192 -0.7089 -0.3257  0.4070
  107OSM   H14B10934   0.763   5.694  11.064  0.6883 -2.0051  1.2530
  107OSM   H14C10935   0.618   5.580  11.039 -1.1816  1.5973 -2.0274
  107OSM    C1310936   0.639   5.868  11.196  0.2201  0.1380 -0.5266
  107OSM   H13A10937   0.621   5.973  11.177 -0.1083  0.0212 -0.8667
  107OSM   H13B10938   0.746   5.853  11.199  0.3867  1.3189  0.0871
  107OSM   H13C10939   0.612   5.843  11.297  3.3482 -2.3475 -0.1446
  107OSM    C1210940   0.436   5.755  11.127  0.5488  0.3615 -0.2875
  107OSM   H12A10941   0.383   5.848  11.110 -1.6672 -0.1093  3.0252
  107OSM   H12B10942   0.409   5.727  11.228 -1.3909 -0.4861 -0.9847
  107OSM    C1110943   0.365   5.653  11.035 -0.0320 -0.7233 -0.1834
  107OSM   H11A10944   0.383   5.691  10.933 -2.4226 -0.1729 -0.4494
  107OSM   H11B10945   0.256   5.661  11.054 -0.5478  0.1301 -3.0903
  107OSM      P10946   0.360   5.414  10.947 -0.2487 -0.4564 -0.3367
  107OSM    O1310947   0.405   5.278  10.982  0.2311 -0.4872  0.0624
  107OSM    O1410948   0.222   5.441  10.895 -0.1024 -0.5876 -0.1987
  107OSM    O1110949   0.458   5.457  10.831  0.3603  0.5053 -0.1808
  107OSM    O1210950   0.418   5.521  11.055  0.4160  0.2097 -0.0942
  107OSM    C1S10951   0.431   5.421  10.696  0.3572 -0.3104  0.1363
  107OSM    H1S10952   0.328   5.387  10.671  0.2578 -0.4177  0.6822
  107OSM    H1T10953   0.488   5.328  10.673  0.8628  0.0213  0.0477
  107OSM     NF10954   0.457   5.455  10.447 -0.0423  0.5806  0.0554
  107OSM    HNF10955   0.535   5.399  10.420  1.1614  0.7271  2.8853
  107OSM    C2S10956   0.463   5.521  10.581 -0.9583  0.8719  0.7579
  107OSM    H2S10957   0.381   5.596  10.585 -0.1719  1.8253 -0.3749
  107OSM    C3S10958   0.600   5.595  10.594 -0.8504  1.0880  0.6058
  107OSM    H3S10959   0.669   5.531  10.534 -1.1097 -0.4521  1.8822
  107OSM     O310960   0.657   5.605  10.724  0.4095 -0.7709  1.0134
  107OSM    HO310961   0.595   5.562  10.783 -1.7828  2.5879  1.4147
  107OSM    C4S10962   0.592   5.723  10.528  0.3851  0.7349 -0.3482
  107OSM    H4S10963   0.537   5.802  10.582  4.0998  3.1680  0.2412
  107OSM    C5S10964   0.663   5.748  10.415  0.0498 -0.2708 -0.4497
  107OSM    H5S10965   0.735   5.676  10.372  1.9221  2.3633 -2.0451
  107OSM    C6S10966   0.666   5.879  10.340 -0.3584  0.7173  0.2164
  107OSM    H6S10967   0.745   5.950  10.370 -0.9041  1.5404 -0.2309
  107OSM    H6T10968   0.570   5.932  10.360 -0.8709  0.2971 -1.0164
  107OSM    C7S10969   0.685   5.881  10.189  0.2980 -0.4759 -0.0313
  107OSM    H7S10970   0.783   5.832  10.175  0.9385  0.9578 -0.8044
  107OSM    H7T10971   0.692   5.990  10.167  1.4045 -0.5944 -0.3372
  107OSM    C8S10972   0.579   5.815  10.105  0.1620 -0.6463  0.1085
  107OSM    H8S10973   0.475   5.837  10.135  0.1672 -0.6967  0.1632
  107OSM    H8T10974   0.583   5.704  10.110  2.0790 -0.5925  0.7375
  107OSM    C9S10975   0.606   5.851   9.955 -0.0684 -0.1758 -0.2975
  107OSM    H9S10976   0.588   5.958   9.931 -0.6650 -0.7192 -2.4674
  107OSM    H9T10977   0.530   5.784   9.909  2.4381 -4.5954  1.3445
  107OSM   C10S10978   0.749   5.808   9.907  0.4104 -0.3235  0.3153
  107OSM   H10S10979   0.768   5.709   9.953  0.7096 -0.9992 -1.2031
  107OSM   H10T10980   0.815   5.882   9.958 -3.2357  2.3524  1.5820
  107OSM   C11S10981   0.768   5.799   9.755  0.4339  0.2575 -0.2682
  107OSM   H11S10982   0.873   5.782   9.724  0.3867  1.1762 -0.9572
  107OSM   H11T10983   0.730   5.896   9.715 -0.0763  0.5705  0.9323
  107OSM   C12S10984   0.677   5.691   9.692 -0.0485 -0.4884  0.5043
  107OSM   H12S10985   0.578   5.696   9.742 -0.1156 -0.5087  0.3738
  107OSM   H12T10986   0.718   5.590   9.711 -0.1432 -0.3901  1.2586
  107OSM   C13S10987   0.672   5.715   9.536  0.1277  0.6004  0.3496
  107OSM   H13S10988   0.664   5.617   9.482  0.1391 -0.2457  1.8273
  107OSM   H13T10989   0.773   5.756   9.512  1.8439 -3.4208 -0.3195
  107OSM   C14S10990   0.558   5.811   9.498 -0.4213  0.5158  0.0402
  107OSM   H14S10991   0.571   5.906   9.554 -0.5268  0.3534  0.3430
  107OSM   H14T10992   0.456   5.771   9.514  0.2498 -1.2521  0.0398
  107OSM   C15S10993   0.566   5.863   9.352  0.8926 -0.0818  0.5695
  107OSM   H15S10994   0.667   5.903   9.333  0.9355 -0.8264 -0.9105
  107OSM   H15T10995   0.497   5.948   9.332  1.3920  0.0173 -0.8523
  107OSM   C16S10996   0.530   5.758   9.249 -0.3364 -0.2596  0.0841
  107OSM   H16S10997   0.435   5.711   9.283  0.5010 -1.0507  1.3951
  107OSM   H16T10998   0.607   5.677   9.251 -1.1609 -1.1604 -1.8154
  107OSM   C17S10999   0.522   5.820   9.109  0.3263  0.2379  0.1099
  107OSM   H17S11000   0.602   5.893   9.082 -0.7733  1.1921 -0.6454
  107OSM   H17T11001   0.433   5.885   9.106  1.3929  1.7400 -0.1081
  107OSM   C18S11002   0.508   5.721   8.987  0.2620 -0.3721 -0.0409
  107OSM   H18S11003   0.491   5.789   8.901 -2.6153 -3.4044 -2.1283
  107OSM   H18T11004   0.414   5.664   9.001 -0.2149  0.4678  0.2067
  107OSM   H18U11005   0.598   5.655   8.979  0.4046 -0.5900  2.4918
  107OSM    C1F11006   0.335   5.429  10.391 -0.5086  0.8013 -0.1327
  107OSM     OF11007   0.227   5.440  10.450  0.2835 -0.3303  0.5407
  107OSM    C2F11008   0.343   5.383  10.245 -0.3116 -0.0549 -0.3286
  107OSM    H2F11009   0.245   5.333  10.233 -0.2161 -0.3612  0.1130
  107OSM    H2G11010   0.425   5.308  10.243 -1.4064 -1.2900 -0.3300
  107OSM    C3F11011   0.386   5.493  10.148 -0.8307  0.2509 -0.5375
  107OSM    H3F11012   0.492   5.518  10.173 -0.8016 -0.8784  0.5884
  107OSM    H3G11013   0.335   5.591  10.162 -0.7420  0.3589 -0.9521
  107OSM    C4F11014   0.384   5.442  10.005  0.2206 -0.2868  0.7442
  107OSM    H4F11015   0.374   5.526   9.933 -0.5300 -0.8902  0.1100
  107OSM    H4G11016   0.294   5.380   9.982  0.8960 -0.9257 -0.2872
  107OSM    C5F11017   0.512   5.379   9.963 -0.4592 -0.2328  0.1583
  107OSM    H5F11018   0.523   5.285  10.021 -0.4340  1.1527  2.5289
  107OSM    H5G11019   0.606   5.437   9.979 -1.1569  1.8001 -2.4193
  107OSM    C6F11020   0.527   5.349   9.810  0.2056 -0.5007 -0.1929
  107OSM    H6F11021   0.613   5.280   9.796  2.3453  1.8598  0.3826
  107OSM    H6G11022   0.558   5.445   9.761 -1.9968  0.4736  0.1938
  107OSM    C7F11023   0.398   5.300   9.744  0.0569 -0.2560  0.0871
  107OSM    H7F11024   0.315   5.371   9.761 -0.6343 -0.4470 -2.1752
  107OSM    H7G11025   0.373   5.204   9.795 -0.2645  0.3009  0.9927
  107OSM    C8F11026   0.412   5.269   9.594 -0.3771 -0.3390  0.2707
  107OSM    H8F11027   0.311   5.228   9.573 -0.5871 -0.7799  1.9731
  107OSM    H8G11028   0.482   5.183   9.587 -0.6875 -0.5946  0.3077
  107OSM    C9F11029   0.459   5.387   9.504 -0.4038  0.3721  0.4136
  107OSM    H9F11030   0.539   5.446   9.551  1.5998 -2.6723  1.0980
  107OSM   C10F11031   0.413   5.428   9.388  0.4657 -0.6531  0.0285
  107OSM   H10F11032   0.461   5.509   9.330 -0.9383 -0.2024 -0.5747
  107OSM   C11F11033   0.283   5.377   9.325 -0.9029 -0.5047  0.1503
  107OSM   H11F11034   0.198   5.409   9.389 -0.1616 -2.5621  2.3242
  107OSM   H11G11035   0.271   5.267   9.324 -2.9005 -0.3271 -0.1787
  107OSM   C12F11036   0.290   5.418   9.174 -0.6448 -0.7663  0.0520
  107OSM   H12F11037   0.317   5.525   9.163  1.8112 -1.2891  0.5253
  107OSM   H12G11038   0.198   5.384   9.121 -0.1426 -0.2398 -1.1973
  107OSM   C13F11039   0.400   5.343   9.101 -0.0008  0.3588  0.3167
  107OSM   H13F11040   0.474   5.288   9.163  1.7045  2.2004  0.0406
  107OSM   H13G11041   0.462   5.426   9.060  0.4892 -0.3958 -0.5168
  107OSM   C14F11042   0.347   5.257   8.991  0.0004 -0.0426 -0.2573
  107OSM   H14F11043   0.302   5.324   8.916  0.4085 -2.1408 -2.5240
  107OSM   H14G11044   0.269   5.195   9.040  0.6809 -2.5696 -2.1365
  107OSM   C15F11045   0.441   5.153   8.935 -0.2875 -0.8213  0.3251
  107OSM   H15F11046   0.388   5.074   8.879  2.4073 -0.3563 -3.1733
  107OSM   H15G11047   0.524   5.119   9.000  1.9628  3.1166 -0.1624
  107OSM   C16F11048   0.505   5.210   8.811  0.2947 -0.5727 -0.5342
  107OSM   H16F11049   0.526   5.318   8.828 -0.0461 -0.6590  0.4852
  107OSM   H16G11050   0.437   5.207   8.722  2.0019 -0.8211 -1.8823
  107OSM   C17F11051   0.630   5.129   8.774  0.9777  0.6767 -0.0048
  107OSM   H17F11052   0.601   5.023   8.765 -1.4484  1.0486  2.2105
  107OSM   H17G11053   0.702   5.143   8.858 -1.4031  0.6606  2.1748
  107OSM   C18F11054   0.689   5.163   8.636 -0.2643  0.0057  0.0588
  107OSM   H18F11055   0.692   5.274   8.633 -1.1663  0.1233  2.1174
  107OSM   H18G11056   0.616   5.132   8.558 -0.4443  0.9391 -0.1586
  107OSM   H18H11057   0.791   5.126   8.611  1.1184  2.2724  1.9710
  108OSM      N11058   4.017   2.391  10.634 -0.1374  0.1930  0.1267
  108OSM    C1511059   4.001   2.283  10.535 -0.0184 -0.4235  0.9800
  108OSM   H15A11060   4.032   2.308  10.435 -1.6593  0.4484  0.6637
  108OSM   H15B11061   3.898   2.249  10.532 -0.1418 -0.2212  2.2671
  108OSM   H15C11062   4.060   2.198  10.565 -1.2347 -2.0753 -1.0350
  108OSM    C1411063   3.970   2.350  10.775 -0.4690  0.0653  0.0318
  108OSM   H14A11064   4.049   2.294  10.823  2.2872  1.9147 -2.0339
  108OSM   H14B11065   3.877   2.295  10.775  0.2932 -1.2905  0.6534
  108OSM   H14C11066   3.968   2.441  10.833 -0.6139 -0.3543  0.6954
  108OSM    C1311067   4.165   2.431  10.648 -0.7848  0.3046  0.2288
  108OSM   H13A11068   4.223   2.343  10.672  0.9073  1.8557  2.2098
  108OSM   H13B11069   4.175   2.509  10.721 -0.8407 -0.0660  0.6381
  108OSM   H13C11070   4.206   2.460  10.553  0.1746  0.1179  0.5816
  108OSM    C1211071   3.926   2.508  10.595 -0.0942 -0.0652 -0.3818
  108OSM   H12A11072   3.829   2.465  10.571  0.3679 -1.4722  0.1726
  108OSM   H12B11073   3.966   2.545  10.502  1.5437 -0.9663 -0.0658
  108OSM    C1111074   3.903   2.624  10.692  0.5814  0.1322  0.0759
  108OSM   H11A11075   3.852   2.587  10.783  1.1324 -2.8467 -0.7343
  108OSM   H11B11076   3.823   2.684  10.643 -0.2871 -3.1087 -2.8767
  108OSM      P11077   4.041   2.852  10.741  0.1456  0.0928  0.7428
  108OSM    O1311078   3.917   2.904  10.806 -0.4016 -0.1620  0.1203
  108OSM    O1411079   4.167   2.872  10.810  0.4640  0.5103  0.1926
  108OSM    O1111080   4.055   2.896  10.594 -0.1576  0.3303  0.3306
  108OSM    O1211081   4.025   2.695  10.730  0.1569  0.1100  0.0592
  108OSM    C1S11082   4.142   2.819  10.512 -0.7543  0.4406 -0.1151
  108OSM    H1S11083   4.117   2.714  10.484  1.9192 -0.6427  1.1286
  108OSM    H1T11084   4.248   2.822  10.547 -0.4610  1.0080 -1.0093
  108OSM     NF11085   4.236   2.818  10.292 -0.1920 -0.9460 -0.4294
  108OSM    HNF11086   4.315   2.872  10.263 -0.2854 -0.5572  0.0338
  108OSM    C2S11087   4.147   2.891  10.377  0.3563 -0.2733  0.3007
  108OSM    H2S11088   4.047   2.887  10.329  0.0991 -3.0785  0.8721
  108OSM    C3S11089   4.189   3.035  10.398 -0.3824 -0.3262 -0.0194
  108OSM    H3S11090   4.291   3.029  10.441  0.4108  2.0251 -1.3822
  108OSM     O311091   4.131   3.119  10.495  0.0602 -0.1666 -0.7679
  108OSM    HO311092   4.089   3.051  10.549 -0.1614 -0.3210 -1.1316
  108OSM    C4S11093   4.203   3.116  10.259  0.3959  0.2307 -0.3877
  108OSM    H4S11094   4.302   3.115  10.211  0.9852  2.0534  0.7139
  108OSM    C5S11095   4.106   3.192  10.201  0.3962 -0.2559 -0.5216
  108OSM    H5S11096   4.015   3.218  10.257  2.7253  1.6771  2.7555
  108OSM    C6S11097   4.133   3.274  10.080 -0.2354  0.0514  0.1374
  108OSM    H6S11098   4.241   3.288  10.059  0.1431 -0.3647  1.6412
  108OSM    H6T11099   4.103   3.379  10.098  1.1332  0.5670 -0.4934
  108OSM    C7S11100   4.057   3.225   9.949 -0.1694 -0.6548 -0.5868
  108OSM    H7S11101   3.949   3.227   9.973  0.4649  1.3401  2.8184
  108OSM    H7T11102   4.101   3.123   9.939  1.7231 -0.2520  2.1774
  108OSM    C8S11103   4.089   3.322   9.827  0.1085  0.0796 -1.1934
  108OSM    H8S11104   4.194   3.356   9.839 -0.4764  1.4481  0.3575
  108OSM    H8T11105   4.027   3.414   9.828  0.0973  0.1131  1.2454
  108OSM    C9S11106   4.084   3.250   9.690 -0.2218  0.0254 -0.0393
  108OSM    H9S11107   3.985   3.200   9.698 -0.0784 -0.2864 -0.2027
  108OSM    H9T11108   4.167   3.179   9.673  1.0774  1.5220 -0.2185
  108OSM   C10S11109   4.084   3.353   9.579 -0.0552  0.1292  0.3577
  108OSM   H10S11110   4.158   3.432   9.602  0.9896 -0.8793  0.5223
  108OSM   H10T11111   3.983   3.400   9.582  1.2014  3.0016  2.1315
  108OSM   C11S11112   4.109   3.298   9.443  0.7000 -0.1899  0.0709
  108OSM   H11S11113   4.033   3.217   9.433  1.1484 -1.1926  3.5458
  108OSM   H11T11114   4.210   3.254   9.444 -0.0479 -2.0862  2.9941
  108OSM   C12S11115   4.084   3.394   9.323 -0.1362 -0.1554 -0.1698
  108OSM   H12S11116   4.138   3.490   9.339  0.6753 -0.3996 -1.2765
  108OSM   H12T11117   3.976   3.416   9.320 -0.2162 -0.4840  0.1939
  108OSM   C13S11118   4.126   3.329   9.189  0.1702 -0.0408 -0.0022
  108OSM   H13S11119   4.074   3.231   9.199  0.5044 -0.0116  2.6633
  108OSM   H13T11120   4.235   3.308   9.179  0.4437  2.0236 -2.0781
  108OSM   C14S11121   4.067   3.392   9.069  0.5805 -0.4328  0.5777
  108OSM   H14S11122   4.102   3.497   9.059  1.4788 -0.8180 -0.6216
  108OSM   H14T11123   3.957   3.377   9.064  0.7837 -1.6541 -1.7856
  108OSM   C15S11124   4.118   3.308   8.947 -0.4129 -0.1133  0.0087
  108OSM   H15S11125   4.067   3.211   8.962 -0.8481  0.3397  1.7069
  108OSM   H15T11126   4.228   3.291   8.943 -0.4936 -0.3328 -2.2010
  108OSM   C16S11127   4.074   3.371   8.809 -0.9318  0.5696 -0.2503
  108OSM   H16S11128   4.125   3.468   8.789 -2.0591  1.1218 -0.5200
  108OSM   H16T11129   3.965   3.390   8.809 -1.0622 -0.1119 -0.9361
  108OSM   C17S11130   4.095   3.281   8.685  0.1610  0.2771 -0.0624
  108OSM   H17S11131   4.157   3.194   8.716  0.5435  0.6402  0.1929
  108OSM   H17T11132   4.140   3.339   8.601 -1.5665  1.6046 -0.1271
  108OSM   C18S11133   3.963   3.221   8.638  0.1599 -0.0885  0.2952
  108OSM   H18S11134   3.904   3.168   8.716 -0.2201 -0.5299 -0.2878
  108OSM   H18T11135   3.986   3.150   8.556 -0.0151 -1.1886  1.1731
  108OSM   H18U11136   3.906   3.299   8.584  0.6560 -0.8424 -1.3720
  108OSM    C1F11137   4.215   2.688  10.260 -0.2504  0.2582  0.5503
  108OSM     OF11138   4.103   2.637  10.262  1.2053  0.5479 -0.5856
  108OSM    C2F11139   4.338   2.605  10.226 -0.1419 -0.5038 -0.6510
  108OSM    H2F11140   4.380   2.557  10.317 -0.2480  0.2060 -0.2239
  108OSM    H2G11141   4.411   2.677  10.183 -0.5573 -1.5512 -3.3379
  108OSM    C3F11142   4.300   2.500  10.118  0.3424 -0.1046  0.4315
  108OSM    H3F11143   4.235   2.422  10.163  1.6403 -1.9657 -0.7908
  108OSM    H3G11144   4.393   2.448  10.086 -0.4683 -1.6863  0.5395
  108OSM    C4F11145   4.223   2.558   9.999  0.0595  0.5502  1.1146
  108OSM    H4F11146   4.277   2.640   9.948  1.5080 -1.2770 -0.4215
  108OSM    H4G11147   4.124   2.598  10.029 -0.0845  0.5501  0.6355
  108OSM    C5F11148   4.198   2.453   9.897 -0.0801  0.6477  0.2661
  108OSM    H5F11149   4.134   2.368   9.928  0.6666 -0.7966 -1.9138
  108OSM    H5G11150   4.298   2.407   9.879 -0.0918  0.9008 -0.4604
  108OSM    C6F11151   4.129   2.512   9.779  0.1610  0.2663  0.3598
  108OSM    H6F11152   4.035   2.559   9.815 -0.0046  0.3340 -0.1390
  108OSM    H6G11153   4.100   2.440   9.699  1.2471  0.6170 -0.3728
  108OSM    C7F11154   4.218   2.609   9.702  0.5677  0.5224  0.7362
  108OSM    H7F11155   4.325   2.586   9.723  0.3886 -0.7407  0.3398
  108OSM    H7G11156   4.198   2.716   9.724 -1.8887  0.0209  1.1707
  108OSM    C8F11157   4.204   2.593   9.551 -0.4427  0.0025 -0.1863
  108OSM    H8F11158   4.272   2.662   9.496  1.7066  1.1556  3.5629
  108OSM    H8G11159   4.104   2.625   9.515 -0.3724  1.6125  0.9811
  108OSM    C9F11160   4.240   2.451   9.501  0.3294  0.7409  0.9208
  108OSM    H9F11161   4.328   2.406   9.550  2.0919  0.4434 -2.2581
  108OSM   C10F11162   4.184   2.389   9.400  0.1421  1.4210  0.1509
  108OSM   H10F11163   4.209   2.283   9.382  0.7132  0.8614  3.6233
  108OSM   C11F11164   4.077   2.442   9.317  0.1456  0.2683  0.2356
  108OSM   H11F11165   4.027   2.529   9.366  1.6414  0.2291  1.9298
  108OSM   H11G11166   4.001   2.361   9.322  1.2339 -0.7394  1.2446
  108OSM   C12F11167   4.116   2.464   9.168  0.1282 -0.2367  0.1511
  108OSM   H12F11168   4.193   2.543   9.152  2.6422 -2.0565  2.2671
  108OSM   H12G11169   4.016   2.478   9.123 -0.3414 -0.0928  1.2068
  108OSM   C13F11170   4.184   2.350   9.093  0.5927  0.5436 -0.4328
  108OSM   H13F11171   4.109   2.271   9.072 -0.3888  0.5358  2.5995
  108OSM   H13G11172   4.260   2.302   9.158 -0.0881 -0.6709 -0.5041
  108OSM   C14F11173   4.245   2.393   8.957  0.2518  0.0319  0.4534
  108OSM   H14F11174   4.305   2.483   8.985 -2.8561  2.5785 -0.5350
  108OSM   H14G11175   4.155   2.416   8.897 -0.5449 -1.3854  1.0831
  108OSM   C15F11176   4.309   2.279   8.876  0.3673 -0.7447  0.0913
  108OSM   H15F11177   4.353   2.339   8.794 -0.9105  2.2535  1.4497
  108OSM   H15G11178   4.234   2.209   8.834  0.4837  0.3947 -2.1464
  108OSM   C16F11179   4.424   2.214   8.954 -0.1185  0.0541  0.5249
  108OSM   H16F11180   4.379   2.153   9.035  0.9019 -1.2094  0.1811
  108OSM   H16G11181   4.477   2.299   9.002  0.3498 -0.9309  1.8042
  108OSM   C17F11182   4.513   2.128   8.862 -0.7147 -0.0490 -0.5651
  108OSM   H17F11183   4.440   2.086   8.788 -0.3000 -1.3696 -0.2453
  108OSM   H17G11184   4.564   2.050   8.923  0.6921  0.6126 -0.8639
  108OSM   C18F11185   4.625   2.194   8.786  0.2336 -0.2030 -0.2367
  108OSM   H18F11186   4.688   2.117   8.737 -1.8143 -0.8815 -1.9703
  108OSM   H18G11187   4.700   2.243   8.851  1.2938 -1.2924 -0.6024
  108OSM   H18H11188   4.575   2.257   8.709 -0.5794  1.8542  1.8697
  109OSM      N11189   2.996   3.539  10.888 -0.7327 -0.4175 -0.0446
  109OSM    C1511190   3.032   3.502  10.751  0.6260 -0.2977  0.5549
  109OSM   H15A11191   3.096   3.576  10.706  0.1856 -1.3904 -2.0867
  109OSM   H15B11192   2.941   3.502  10.693  2.3092 -1.5054 -2.3311
  109OSM   H15C11193   3.084   3.408  10.738  2.1904  0.7288 -1.1093
  109OSM    C1411194   2.904   3.438  10.935  0.8421 -0.0166 -0.1930
  109OSM   H14A11195   2.941   3.341  10.964 -1.4179 -1.3276 -1.3416
  109OSM   H14B11196   2.827   3.427  10.859  1.0518  1.6772 -0.6946
  109OSM   H14C11197   2.861   3.475  11.027  1.0169 -0.0268 -0.1078
  109OSM    C1311198   3.125   3.546  10.968 -0.2674 -0.1951 -0.6786
  109OSM   H13A11199   3.197   3.612  10.922 -0.0570  0.6257  0.7653
  109OSM   H13B11200   3.172   3.449  10.962 -1.3022 -0.7298 -0.3875
  109OSM   H13C11201   3.102   3.573  11.070  1.5626  0.1359 -0.3091
  109OSM    C1211202   2.937   3.676  10.874  0.3663  0.1185 -0.2740
  109OSM   H12A11203   3.000   3.735  10.810 -1.0908  1.1237 -0.8385
  109OSM   H12B11204   2.936   3.725  10.970  0.1289 -0.8585  0.2384
  109OSM    C1111205   2.792   3.690  10.807 -0.2631  0.1859  0.5123
  109OSM   H11A11206   2.777   3.799  10.796 -2.6949 -0.1430  0.0003
  109OSM   H11B11207   2.717   3.653  10.879  1.0149 -2.4713  0.6020
  109OSM      P11208   2.755   3.684  10.553 -0.0706 -0.0189 -0.2582
  109OSM    O1311209   2.774   3.588  10.443  0.2515  0.3834  0.5920
  109OSM    O1411210   2.627   3.757  10.553 -0.2101  0.2198  0.2863
  109OSM    O1111211   2.873   3.784  10.552 -0.0126  0.0741 -0.1032
  109OSM    O1211212   2.768   3.612  10.690  0.1374  0.0117 -0.5439
  109OSM    C1S11213   2.952   3.812  10.435 -0.6637 -0.2988  0.5255
  109OSM    H1S11214   2.882   3.812  10.349 -2.7655 -1.6335  2.1430
  109OSM    H1T11215   3.032   3.736  10.419  1.2871  1.4700  1.3611
  109OSM     NF11216   3.113   3.975  10.336 -0.1367  0.5152  0.0160
  109OSM    HNF11217   3.211   3.961  10.346 -0.4021 -1.8735 -0.2963
  109OSM    C2S11218   3.032   3.948  10.455  0.7525 -0.5998 -0.5589
  109OSM    H2S11219   2.960   4.030  10.474  2.8559  1.7220 -1.9906
  109OSM    C3S11220   3.115   3.932  10.583  0.9723  0.3852  0.8403
  109OSM    H3S11221   3.175   3.839  10.574 -0.6030 -0.5534 -0.6017
  109OSM     O311222   3.045   3.911  10.709 -0.1149 -0.0776  0.1285
  109OSM    HO311223   2.952   3.922  10.690 -0.1364 -0.3515  0.0693
  109OSM    C4S11224   3.217   4.042  10.587  0.0401 -0.4447  0.1468
  109OSM    H4S11225   3.314   4.021  10.541 -0.1341 -1.0009  0.0194
  109OSM    C5S11226   3.198   4.171  10.631 -0.2164  0.1682  0.2006
  109OSM    H5S11227   3.109   4.185  10.694  1.1740  0.8288  2.1357
  109OSM    C6S11228   3.290   4.294  10.623 -0.0408  0.7683 -0.8997
  109OSM    H6S11229   3.359   4.278  10.709  0.6790 -0.2980 -1.6496
  109OSM    H6T11230   3.227   4.385  10.624 -0.6596  0.3445 -0.4164
  109OSM    C7S11231   3.356   4.299  10.488  0.6077 -0.6910  0.0950
  109OSM    H7S11232   3.268   4.305  10.420 -0.9128  1.8658  2.0903
  109OSM    H7T11233   3.415   4.207  10.469 -0.8184 -1.4877 -0.6461
  109OSM    C8S11234   3.447   4.420  10.457  0.3958  0.0303  0.2416
  109OSM    H8S11235   3.527   4.437  10.532 -1.0525  1.5715  1.4946
  109OSM    H8T11236   3.384   4.511  10.462 -1.6181 -1.3336  0.9769
  109OSM    C9S11237   3.520   4.422  10.320  0.4530  0.3850  0.6083
  109OSM    H9S11238   3.592   4.337  10.323 -0.3345 -0.2632  2.0703
  109OSM    H9T11239   3.587   4.511  10.318 -0.0662  0.7712 -0.1262
  109OSM   C10S11240   3.418   4.428  10.208  0.0217 -0.8755 -0.3720
  109OSM   H10S11241   3.338   4.504  10.223  0.7418 -0.2173  0.2571
  109OSM   H10T11242   3.366   4.330  10.205  0.3567 -1.0335 -2.4094
  109OSM   C11S11243   3.485   4.453  10.066 -0.4354  0.2462 -0.1762
  109OSM   H11S11244   3.553   4.368  10.043  0.3373  0.1738  2.0620
  109OSM   H11T11245   3.547   4.545  10.055 -0.3145  0.4517  1.7545
  109OSM   C12S11246   3.386   4.456   9.949  0.2123 -0.7922  1.1700
  109OSM   H12S11247   3.302   4.521   9.984  0.9472  0.0430  1.4085
  109OSM   H12T11248   3.330   4.364   9.921 -1.4033  0.8108 -1.2347
  109OSM   C13S11249   3.457   4.510   9.830 -0.4384  0.5985  0.1352
  109OSM   H13S11250   3.553   4.455   9.820 -0.0835  1.2006  0.1615
  109OSM   H13T11251   3.480   4.619   9.837  1.7753  0.2281 -0.7012
  109OSM   C14S11252   3.374   4.491   9.704  0.0579  0.1125 -0.3668
  109OSM   H14S11253   3.292   4.566   9.693  0.0006  0.3190  1.2947
  109OSM   H14T11254   3.324   4.392   9.698 -2.2629  1.2654 -2.0265
  109OSM   C15S11255   3.453   4.505   9.574  0.3537  0.6586  0.1378
  109OSM   H15S11256   3.545   4.442   9.582 -0.9449 -1.2829  0.5283
  109OSM   H15T11257   3.494   4.608   9.577 -4.1835  2.6535  2.6073
  109OSM   C16S11258   3.375   4.461   9.446  0.2093 -0.1224 -0.5822
  109OSM   H16S11259   3.277   4.514   9.444  0.5461  0.5891  0.6593
  109OSM   H16T11260   3.357   4.352   9.462  0.9398 -0.0815  0.7043
  109OSM   C17S11261   3.448   4.482   9.313 -0.3415 -0.5598 -1.3181
  109OSM   H17S11262   3.538   4.417   9.318 -0.2373 -0.3476 -0.1208
  109OSM   H17T11263   3.488   4.585   9.296  0.0424 -0.9346 -2.8696
  109OSM   C18S11264   3.355   4.455   9.187  0.4009 -0.1288 -0.5163
  109OSM   H18S11265   3.262   4.516   9.191 -2.2579 -3.8786  1.4022
  109OSM   H18T11266   3.318   4.351   9.176  1.0636 -0.4111 -0.1667
  109OSM   H18U11267   3.417   4.485   9.100 -1.4687 -0.4589 -2.0364
  109OSM    C1F11268   3.054   4.013  10.222 -0.0576 -0.9915  0.3601
  109OSM     OF11269   2.932   4.027  10.226  0.0532 -0.4510  0.0986
  109OSM    C2F11270   3.133   4.034  10.091  0.0660 -0.2475 -0.1556
  109OSM    H2F11271   3.181   3.935  10.070 -2.3153 -2.5231  3.8184
  109OSM    H2G11272   3.219   4.100  10.116 -0.0050 -0.8767  1.9933
  109OSM    C3F11273   3.045   4.099   9.981 -0.3622 -0.2509 -1.1156
  109OSM    H3F11274   3.004   4.190  10.028 -2.3212 -1.8165  0.4025
  109OSM    H3G11275   2.966   4.022   9.964 -0.4443 -0.3037 -0.5178
  109OSM    C4F11276   3.116   4.121   9.850  0.2795 -0.1420  0.9176
  109OSM    H4F11277   3.163   4.029   9.810  2.2003  0.9083  0.5938
  109OSM    H4G11278   3.186   4.206   9.866  0.0277  0.7354 -1.9995
  109OSM    C5F11279   3.027   4.184   9.736 -0.7723 -0.3226  0.6662
  109OSM    H5F11280   2.994   4.285   9.770  1.1628  0.4954  0.2301
  109OSM    H5G11281   2.929   4.131   9.732  0.7175 -3.1635 -2.2375
  109OSM    C6F11282   3.091   4.175   9.600  0.5040  0.2095 -0.4673
  109OSM    H6F11283   3.125   4.071   9.582  1.6858  0.6871 -1.1237
  109OSM    H6G11284   3.183   4.237   9.604  0.6189 -0.0010  0.3386
  109OSM    C7F11285   2.999   4.224   9.490  0.9488  0.2943 -0.0886
  109OSM    H7F11286   2.954   4.323   9.514 -0.8990 -0.4617 -0.2832
  109OSM    H7G11287   2.912   4.155   9.488  0.7739  0.3314  2.8589
  109OSM    C8F11288   3.064   4.238   9.348 -0.5376 -0.3541  0.5179
  109OSM    H8F11289   3.166   4.278   9.362 -0.7346  0.3895 -0.1165
  109OSM    H8G11290   3.008   4.326   9.310  0.8330  0.8140  1.1085
  109OSM    C9F11291   3.066   4.107   9.270  0.3986  0.0023 -0.2550
  109OSM    H9F11292   3.105   4.022   9.329  1.0105 -0.3716 -1.1667
  109OSM   C10F11293   3.016   4.085   9.145 -0.2747 -0.6043  0.0136
  109OSM   H10F11294   3.035   3.992   9.090  1.0100  0.1381 -0.8526
  109OSM   C11F11295   2.942   4.185   9.060 -0.3448 -0.3261  0.0519
  109OSM   H11F11296   2.921   4.272   9.125  1.7056 -1.2137  2.0323
  109OSM   H11G11297   2.847   4.145   9.020  0.2083 -2.3008  0.5956
  109OSM   C12F11298   3.035   4.251   8.951  0.5164 -0.4125 -0.1661
  109OSM   H12F11299   3.121   4.294   9.005 -0.3548  1.5715 -0.2710
  109OSM   H12G11300   2.975   4.336   8.913  1.6999  1.1540  1.3536
  109OSM   C13F11301   3.087   4.159   8.841  0.2541 -0.3384 -0.0276
  109OSM   H13F11302   3.153   4.084   8.889  0.4319 -0.8998 -1.1182
  109OSM   H13G11303   3.154   4.213   8.771 -0.4927  1.2416  0.4336
  109OSM   C14F11304   2.974   4.081   8.766  0.2986 -0.2091  0.2763
  109OSM   H14F11305   2.919   4.014   8.836  0.9349  0.2275  1.2164
  109OSM   H14G11306   3.032   4.024   8.689 -2.6708 -1.5336 -1.1576
  109OSM   C15F11307   2.875   4.171   8.683  0.3301  0.2946  0.1336
  109OSM   H15F11308   2.936   4.212   8.599 -0.1342 -0.3577 -0.5391
  109OSM   H15G11309   2.837   4.256   8.743 -0.1503  0.3118 -0.1904
  109OSM   C16F11310   2.758   4.100   8.631 -0.2146 -1.1715 -0.4263
  109OSM   H16F11311   2.692   4.179   8.591 -1.8135 -1.5635  1.2943
  109OSM   H16G11312   2.695   4.041   8.701  0.1782  2.0153  2.9352
  109OSM   C17F11313   2.795   4.012   8.507 -0.2999  0.6828 -0.0519
  109OSM   H17F11314   2.866   3.927   8.517  1.3171  1.9226 -0.5892
  109OSM   H17G11315   2.848   4.078   8.435  0.5021 -1.9450 -2.0291
  109OSM   C18F11316   2.676   3.964   8.430  0.0966 -0.2821  0.5827
  109OSM   H18F11317   2.613   3.886   8.477 -0.0029 -1.2892 -1.1503
  109OSM   H18G11318   2.691   3.942   8.322 -0.4446  3.1221 -0.3182
  109OSM   H18H11319   2.605   4.050   8.433  0.3421 -0.0021 -0.8913
  110OSM      N11320   3.741   3.460  10.920 -0.2227  0.4633  0.7667
  110OSM    C1511321   3.670   3.566  11.001 -0.7514  0.0435  0.0190
  110OSM   H15A11322   3.725   3.594  11.090 -0.4902 -0.8499  0.1537
  110OSM   H15B11323   3.567   3.547  11.029 -1.2987 -0.2977 -2.0433
  110OSM   H15C11324   3.641   3.644  10.933  0.2840  0.6331  0.2376
  110OSM    C1411325   3.880   3.496  10.889 -0.3072 -0.1941 -0.7918
  110OSM   H14A11326   3.925   3.422  10.824 -0.4217  1.3134 -2.6969
  110OSM   H14B11327   3.941   3.488  10.977  0.9464  0.2676 -1.5889
  110OSM   H14C11328   3.898   3.594  10.847  2.0224 -0.2628 -0.0787
  110OSM    C1311329   3.745   3.336  10.994  0.0678  0.1367 -0.1074
  110OSM   H13A11330   3.647   3.308  11.026  0.7433  0.3665  2.3148
  110OSM   H13B11331   3.804   3.351  11.083  0.9180 -0.0862 -0.6167
  110OSM   H13C11332   3.788   3.254  10.938 -1.0396 -1.3594  1.1965
  110OSM    C1211333   3.662   3.428  10.792  0.6885 -0.2204 -0.2087
  110OSM   H12A11334   3.564   3.396  10.823 -1.2314 -0.4166 -5.5419
  110OSM   H12B11335   3.707   3.341  10.745  2.2910  0.3649  0.1777
  110OSM    C1111336   3.654   3.536  10.687 -0.0446  0.0857 -0.2114
  110OSM   H11A11337   3.620   3.514  10.584 -2.0874  1.7853  0.0286
  110OSM   H11B11338   3.758   3.572  10.673 -0.4518  1.6197  0.5636
  110OSM      P11339   3.460   3.712  10.692  0.3509 -0.1242 -0.0834
  110OSM    O1311340   3.369   3.597  10.694  0.1851 -0.2978  0.9080
  110OSM    O1411341   3.425   3.829  10.774  0.8621  0.6520  0.2985
  110OSM    O1111342   3.483   3.743  10.541 -0.7557 -0.0314 -0.0336
  110OSM    O1211343   3.597   3.658  10.739  0.0135  0.1424 -0.1983
  110OSM    C1S11344   3.605   3.824  10.507 -0.0099 -0.4677  0.8859
  110OSM    H1S11345   3.696   3.775  10.549  0.3827 -1.7135 -1.2522
  110OSM    H1T11346   3.609   3.920  10.563 -1.5416  0.1310  0.0370
  110OSM     NF11347   3.752   3.892  10.318  0.3212 -0.6919 -0.0104
  110OSM    HNF11348   3.764   3.982  10.276  1.8391 -1.1130 -0.5617
  110OSM    C2S11349   3.617   3.844  10.354 -0.9515 -0.5243  0.0646
  110OSM    H2S11350   3.601   3.747  10.302  0.9813 -0.7225 -0.2381
  110OSM    C3S11351   3.508   3.932  10.308 -0.1337 -0.6147  0.9624
  110OSM    H3S11352   3.516   4.033  10.354 -0.2251  0.0646 -0.4612
  110OSM     O311353   3.383   3.881  10.343  0.2875 -0.3172 -0.8007
  110OSM    HO311354   3.402   3.808  10.403 -2.5272  0.5244  1.3644
  110OSM    C4S11355   3.502   3.952  10.161 -0.2143  0.7126 -0.2261
  110OSM    H4S11356   3.505   3.855  10.109  0.6376 -0.9043  2.6160
  110OSM    C5S11357   3.491   4.066  10.099  0.2023  0.0751  0.2984
  110OSM    H5S11358   3.487   4.154  10.165 -0.3764 -0.2271  0.6746
  110OSM    C6S11359   3.475   4.077   9.952 -0.1747 -0.4166  0.1262
  110OSM    H6S11360   3.435   4.178   9.928 -0.6278  0.2942  3.3681
  110OSM    H6T11361   3.403   4.003   9.910  0.7923  0.0122 -2.4297
  110OSM    C7S11362   3.612   4.057   9.886  0.2325 -0.5206  0.5225
  110OSM    H7S11363   3.641   3.950   9.897  2.6499  0.0938  0.5408
  110OSM    H7T11364   3.682   4.123   9.941  2.2860 -1.8680 -0.3683
  110OSM    C8S11365   3.618   4.108   9.739  0.1857  0.1032 -0.0551
  110OSM    H8S11366   3.726   4.121   9.716  0.2903  0.1704  0.4754
  110OSM    H8T11367   3.571   4.209   9.730 -1.6306 -0.7991 -1.4371
  110OSM    C9S11368   3.565   4.014   9.625 -1.1102  0.4029  0.0209
  110OSM    H9S11369   3.457   3.987   9.628 -1.0173 -0.2415 -1.5040
  110OSM    H9T11370   3.621   3.919   9.620 -1.7927 -0.0112 -4.7583
  110OSM   C10S11371   3.592   4.077   9.487 -0.1650  0.0403 -0.3810
  110OSM   H10S11372   3.698   4.094   9.459  0.1343 -1.3816 -0.1778
  110OSM   H10T11373   3.542   4.175   9.476  0.5877  0.7299  1.9309
  110OSM   C11S11374   3.539   3.986   9.374 -0.2132  0.3469 -0.1951
  110OSM   H11S11375   3.430   3.970   9.377 -0.1804  0.2028  0.5110
  110OSM   H11T11376   3.580   3.885   9.393 -0.1279  0.5090  0.5360
  110OSM   C12S11377   3.563   4.047   9.241 -0.2289  0.0774  0.9832
  110OSM   H12S11378   3.666   4.088   9.231 -0.4222  1.0843  2.7734
  110OSM   H12T11379   3.499   4.131   9.206 -1.6297 -0.5071  2.0693
  110OSM   C13S11380   3.553   3.942   9.131  0.0102  0.8201  0.2740
  110OSM   H13S11381   3.457   3.890   9.116  0.7878 -0.7756  0.5824
  110OSM   H13T11382   3.625   3.860   9.150  0.7346  1.4340  0.2479
  110OSM   C14S11383   3.593   3.999   8.993  0.8499  0.2368  1.2933
  110OSM   H14S11384   3.670   4.080   8.993  1.6380 -0.3365 -2.3505
  110OSM   H14T11385   3.498   4.032   8.944 -0.3645 -2.7612  1.4216
  110OSM   C15S11386   3.641   3.892   8.895 -0.3763  0.0495  0.8507
  110OSM   H15S11387   3.569   3.808   8.881  2.3736 -2.0233 -2.2688
  110OSM   H15T11388   3.740   3.847   8.917 -1.0632 -2.0175 -0.0459
  110OSM   C16S11389   3.649   3.957   8.750  0.0115 -0.0857  0.1006
  110OSM   H16S11390   3.722   4.040   8.736 -2.1622  1.7405 -0.9937
  110OSM   H16T11391   3.546   3.990   8.727 -0.6367 -0.0915  2.6767
  110OSM   C17S11392   3.693   3.846   8.652  0.3322  0.2915 -0.4745
  110OSM   H17S11393   3.638   3.749   8.660 -2.2978  1.6041 -1.3825
  110OSM   H17T11394   3.800   3.823   8.671  0.4739 -0.0087 -1.5669
  110OSM   C18S11395   3.680   3.892   8.501  0.0824  0.2590  0.7263
  110OSM   H18S11396   3.720   3.814   8.434  0.8180 -0.7415  2.2789
  110OSM   H18T11397   3.747   3.980   8.489  1.6934 -1.1563 -1.3934
  110OSM   H18U11398   3.575   3.910   8.468  0.6214 -0.6963 -1.7237
  110OSM    C1F11399   3.867   3.825  10.334  0.5582  0.7812 -0.4449
  110OSM     OF11400   3.870   3.707  10.376 -0.5489 -0.5804 -0.5910
  110OSM    C2F11401   3.995   3.901  10.306  0.2213 -1.1935 -0.0585
  110OSM    H2F11402   4.043   3.911  10.406  0.8384 -3.0165 -0.1375
  110OSM    H2G11403   3.972   4.003  10.271  0.2580 -0.8041  1.0110
  110OSM    C3F11404   4.095   3.829  10.221  0.0710  0.6249  0.2969
  110OSM    H3F11405   4.115   3.723  10.248  1.0065  0.6278 -0.3372
  110OSM    H3G11406   4.193   3.881  10.232  0.4442  0.0694 -0.3377
  110OSM    C4F11407   4.047   3.835  10.078  0.5174  0.4775  0.6229
  110OSM    H4F11408   4.049   3.943  10.051  0.0614  0.1063 -1.0070
  110OSM    H4G11409   3.943   3.798  10.081  0.2005  1.2679 -0.0658
  110OSM    C5F11410   4.130   3.745   9.982 -0.4816  0.3154 -0.3052
  110OSM    H5F11411   4.115   3.637  10.002  1.6002  0.3520  1.7858
  110OSM    H5G11412   4.237   3.774   9.980 -0.0815 -1.1022 -2.6917
  110OSM    C6F11413   4.083   3.774   9.834  0.1539 -0.6466  0.0956
  110OSM    H6F11414   4.101   3.879   9.804 -0.8448 -0.3835  0.3909
  110OSM    H6G11415   3.978   3.742   9.818  0.5090 -3.2707  2.1997
  110OSM    C7F11416   4.171   3.694   9.729  0.0679 -0.0717 -0.4214
  110OSM    H7F11417   4.123   3.595   9.720 -2.3968  1.1288 -1.3085
  110OSM    H7G11418   4.279   3.695   9.757 -0.3759  1.9002  1.5618
  110OSM    C8F11419   4.151   3.747   9.577 -0.3565  0.2727  0.3259
  110OSM    H8F11420   4.208   3.675   9.514 -3.0665 -0.2067 -1.7848
  110OSM    H8G11421   4.192   3.850   9.572 -3.5263  1.7346  1.5721
  110OSM    C9F11422   4.006   3.756   9.537 -0.4717 -0.1314 -0.4404
  110OSM    H9F11423   3.931   3.693   9.588  0.7898 -0.5714  0.9400
  110OSM   C10F11424   3.953   3.847   9.453  0.7603 -0.4815 -0.6506
  110OSM   H10F11425   3.843   3.843   9.439  0.7496  0.2450 -0.8100
  110OSM   C11F11426   4.018   3.957   9.370 -0.0016 -0.3653 -0.3020
  110OSM   H11F11427   4.128   3.947   9.369  0.0383 -0.8024  2.1479
  110OSM   H11G11428   4.003   4.061   9.407 -1.8036 -0.1727 -1.4443
  110OSM   C12F11429   3.964   3.942   9.221  0.5622  0.1348  0.5418
  110OSM   H12F11430   3.855   3.964   9.216  0.3184 -0.7664  1.5575
  110OSM   H12G11431   3.985   3.840   9.184  1.2869  0.4879 -0.0662
  110OSM   C13F11432   4.033   4.034   9.122 -0.5869  0.0316  0.0482
  110OSM   H13F11433   4.142   4.016   9.126 -0.2161  2.1519  0.4246
  110OSM   H13G11434   4.020   4.142   9.146 -0.7163  0.7360 -2.8569
  110OSM   C14F11435   3.984   4.007   8.979 -0.6728  0.4634 -0.3919
  110OSM   H14F11436   3.885   4.052   8.958  0.0354  1.9258 -0.6991
  110OSM   H14G11437   3.970   3.897   8.966 -0.1384  0.3034  0.3024
  110OSM   C15F11438   4.087   4.062   8.886 -0.1332  0.4804 -0.5933
  110OSM   H15F11439   4.179   4.003   8.908 -0.5455 -0.2023 -0.6424
  110OSM   H15G11440   4.083   4.170   8.908  0.6744  0.5339 -0.6767
  110OSM   C16F11441   4.047   4.033   8.745  0.1083  0.0158 -0.3791
  110OSM   H16F11442   3.938   4.048   8.728  0.2374 -0.1299 -1.4063
  110OSM   H16G11443   4.050   3.926   8.716 -1.2169 -1.0801  3.0282
  110OSM   C17F11444   4.121   4.118   8.644  0.2850 -0.1867 -0.2017
  110OSM   H17F11445   4.229   4.094   8.630 -0.3981 -2.1995 -2.9040
  110OSM   H17G11446   4.115   4.226   8.668 -0.2499 -0.8508  3.0235
  110OSM   C18F11447   4.049   4.103   8.506  0.1538  0.6051 -0.3737
  110OSM   H18F11448   4.071   4.005   8.458  0.6336  0.0267  0.9799
  110OSM   H18G11449   4.080   4.187   8.439 -0.6731  0.7559 -0.5863
  110OSM   H18H11450   3.941   4.107   8.532  0.7180  0.3467  2.2653
  111OSM      N11451   0.520   1.957  10.557  0.2174  0.3205  0.4332
  111OSM    C1511452   0.502   2.068  10.459  0.0900  0.2918 -0.5386
  111OSM   H15A11453   0.399   2.073  10.427 -0.9731 -0.1094  2.4637
  111OSM   H15B11454   0.553   2.054  10.366 -0.3035 -1.1918 -0.5555
  111OSM   H15C11455   0.534   2.167  10.488 -0.1425 -0.4040  2.4514
  111OSM    C1411456   0.481   1.833  10.485  0.6308  1.0732  0.6051
  111OSM   H14A11457   0.388   1.839  10.430  0.5276  1.5905  0.8274
  111OSM   H14B11458   0.441   1.762  10.556  0.0301 -0.1039 -0.8500
  111OSM   H14C11459   0.557   1.794  10.419  0.8986 -1.0535  2.0482
  111OSM    C1311460   0.660   1.946  10.602  0.4839 -0.5294  0.1062
  111OSM   H13A11461   0.672   1.873  10.681  0.8448  0.3739  0.9072
  111OSM   H13B11462   0.690   2.038  10.649 -0.4634 -1.0138  1.7241
  111OSM   H13C11463   0.735   1.931  10.526 -0.0520  2.5334 -1.1796
  111OSM    C1211464   0.431   1.987  10.676 -0.1308  0.1846 -0.6172
  111OSM   H12A11465   0.333   2.019  10.645 -0.9309 -0.5236  1.0315
  111OSM   H12B11466   0.468   2.077  10.724  0.6385  1.0423 -2.6933
  111OSM    C1111467   0.404   1.881  10.778 -0.1508 -0.3588 -0.8035
  111OSM   H11A11468   0.373   1.933  10.871 -0.9677 -1.2030 -0.5912
  111OSM   H11B11469   0.499   1.831  10.807  1.1632  0.1240 -3.8580
  111OSM      P11470   0.167   1.807  10.727  0.0658 -0.0587 -0.1957
  111OSM    O1311471   0.098   1.788  10.855  0.0339  0.9417  0.8783
  111OSM    O1411472   0.148   1.939  10.666  0.4642 -0.5949 -0.1251
  111OSM    O1111473   0.123   1.698  10.624 -0.2901  0.2190  0.5211
  111OSM    O1211474   0.315   1.773  10.748 -0.1333 -0.6140  0.0071
  111OSM    C1S11475   0.001   1.727  10.549  0.5279 -0.0903  0.1194
  111OSM    H1S11476  -0.014   1.836  10.533 -2.0154 -0.6360 -1.7510
  111OSM    H1T11477  -0.085   1.693  10.610 -0.9546  1.3041 -1.1138
  111OSM     NF11478  -0.118   1.703  10.332  0.1443  0.3162  0.2001
  111OSM    HNF11479  -0.179   1.624  10.334  0.2643  0.2421  1.2883
  111OSM    C2S11480   0.009   1.667  10.399  0.6420  0.4305 -0.2862
  111OSM    H2S11481   0.097   1.722  10.359  0.6309  0.9144  0.3305
  111OSM    C3S11482   0.026   1.514  10.406 -0.6042 -0.2429  0.5159
  111OSM    H3S11483  -0.068   1.466  10.442  0.9240 -1.8802  2.6364
  111OSM     O311484   0.122   1.469  10.499  0.3373 -0.9271 -0.1004
  111OSM    HO311485   0.134   1.552  10.546  1.8891 -1.1940  0.0310
  111OSM    C4S11486   0.043   1.463  10.274  0.0954  0.7369  0.5103
  111OSM    H4S11487  -0.044   1.409  10.234 -0.0931 -1.3883  3.4696
  111OSM    C5S11488   0.150   1.473  10.190  1.5093 -0.6774 -0.6017
  111OSM    H5S11489   0.238   1.528  10.226  1.0003 -0.9571  1.1712
  111OSM    C6S11490   0.152   1.420  10.053  0.0218  0.2214  0.5086
  111OSM    H6S11491   0.234   1.345  10.058 -0.9353 -0.8193  0.9021
  111OSM    H6T11492   0.178   1.506   9.988  0.8827  0.7258  1.4779
  111OSM    C7S11493   0.020   1.353  10.005  0.1468 -0.9428  0.0721
  111OSM    H7S11494  -0.054   1.432   9.982 -1.6224 -3.3719 -3.5346
  111OSM    H7T11495  -0.007   1.281  10.086  2.2462  0.2382  1.9542
  111OSM    C8S11496   0.031   1.272   9.873 -0.2722  0.1176 -0.5373
  111OSM    H8S11497  -0.072   1.248   9.839  0.4204  1.4760 -3.9610
  111OSM    H8T11498   0.079   1.172   9.882 -0.7708 -0.1209 -0.4626
  111OSM    C9S11499   0.124   1.339   9.763 -0.0634 -0.1221 -0.0510
  111OSM    H9S11500   0.229   1.346   9.798  0.1352 -1.7277 -0.2782
  111OSM    H9T11501   0.088   1.442   9.740  2.1240  0.7248  0.0044
  111OSM   C10S11502   0.123   1.267   9.626 -0.1494  0.2506 -0.3827
  111OSM   H10S11503   0.024   1.263   9.575 -0.4511 -3.3952  0.1934
  111OSM   H10T11504   0.166   1.165   9.639  2.0767  1.2024  0.1394
  111OSM   C11S11505   0.206   1.344   9.523  0.4462  0.5332  0.4124
  111OSM   H11S11506   0.305   1.379   9.559  0.7794  1.4377 -1.2580
  111OSM   H11T11507   0.155   1.440   9.502  0.5882  0.7916  1.2154
  111OSM   C12S11508   0.226   1.258   9.391 -0.2510 -0.1607 -0.0832
  111OSM   H12S11509   0.259   1.154   9.414  5.4372  1.6638  1.7220
  111OSM   H12T11510   0.303   1.311   9.331  0.1259 -0.5912  0.0121
  111OSM   C13S11511   0.102   1.247   9.304 -0.0748 -0.0762  0.0316
  111OSM   H13S11512   0.053   1.346   9.303 -1.9495 -0.9263 -1.8226
  111OSM   H13T11513   0.032   1.172   9.348  0.3577 -0.0514  0.7785
  111OSM   C14S11514   0.141   1.211   9.157 -0.3184 -0.0999  0.1037
  111OSM   H14S11515   0.065   1.168   9.088 -1.4698  0.8715  0.7256
  111OSM   H14T11516   0.215   1.128   9.163 -0.5956 -0.3062  0.8536
  111OSM   C15S11517   0.207   1.327   9.084 -0.4998  0.3835  0.3971
  111OSM   H15S11518   0.260   1.286   8.995  0.8995 -2.8505  2.5148
  111OSM   H15T11519   0.284   1.378   9.147  0.6396  0.8773 -1.3160
  111OSM   C16S11520   0.115   1.448   9.037 -0.0397 -0.5087 -0.0501
  111OSM   H16S11521   0.061   1.485   9.127  0.5864  2.2997 -0.7463
  111OSM   H16T11522   0.039   1.407   8.967  1.9756 -3.5873 -0.6410
  111OSM   C17S11523   0.196   1.567   8.973 -0.0419  0.0365  0.5780
  111OSM   H17S11524   0.114   1.638   8.947 -2.1136 -2.2908  0.3256
  111OSM   H17T11525   0.244   1.530   8.880 -0.0073 -1.7228  1.2537
  111OSM   C18S11526   0.299   1.633   9.064 -1.0541 -0.3229 -0.5258
  111OSM   H18S11527   0.379   1.557   9.078  1.7369  2.8602  2.5806
  111OSM   H18T11528   0.256   1.650   9.165 -0.4919  1.2771 -0.5213
  111OSM   H18U11529   0.355   1.719   9.021  1.9164 -1.3339  0.9718
  111OSM    C1F11530  -0.147   1.824  10.280  0.0361 -0.1976 -0.5852
  111OSM     OF11531  -0.059   1.912  10.295 -0.0758  0.4208  0.8173
  111OSM    C2F11532  -0.283   1.853  10.223 -0.6043  0.4283 -0.0862
  111OSM    H2F11533  -0.313   1.958  10.245 -1.0400  0.4066 -0.5683
  111OSM    H2G11534  -0.356   1.781  10.264  1.8715 -1.7833  0.7012
  111OSM    C3F11535  -0.280   1.850  10.066 -0.1105 -0.3212 -0.5046
  111OSM    H3F11536  -0.206   1.925  10.032 -1.0258  2.5684  3.2264
  111OSM    H3G11537  -0.377   1.897  10.040  0.7565  1.9234  0.1446
  111OSM    C4F11538  -0.267   1.713  10.003 -0.2111  0.5309  1.0709
  111OSM    H4F11539  -0.352   1.649  10.038 -0.2597 -0.3678 -0.6103
  111OSM    H4G11540  -0.168   1.668  10.026  0.8974  1.9435 -0.6848
  111OSM    C5F11541  -0.282   1.727   9.849 -0.7404 -0.3295 -0.2133
  111OSM    H5F11542  -0.205   1.794   9.805  0.8816 -0.4626  2.2261
  111OSM    H5G11543  -0.375   1.783   9.822 -0.2436  0.4725 -0.2828
  111OSM    C6F11544  -0.276   1.593   9.780  0.0077 -0.4479 -1.1361
  111OSM    H6F11545  -0.368   1.531   9.789 -0.2825 -0.0239 -1.1594
  111OSM    H6G11546  -0.194   1.547   9.839  1.4448  2.1519 -0.9226
  111OSM    C7F11547  -0.239   1.624   9.633 -0.1761  0.4430  0.0057
  111OSM    H7F11548  -0.136   1.666   9.641  0.5388 -1.1592 -0.4656
  111OSM    H7G11549  -0.301   1.705   9.588 -0.4561  0.5801  0.6287
  111OSM    C8F11550  -0.224   1.489   9.547 -0.5285  0.0474 -0.0050
  111OSM    H8F11551  -0.332   1.464   9.538 -0.5419 -0.1675  0.6852
  111OSM    H8G11552  -0.183   1.405   9.606 -0.2844  1.1011  1.3889
  111OSM    C9F11553  -0.149   1.499   9.415  1.1084  0.4743 -0.9689
  111OSM    H9F11554  -0.040   1.503   9.429  0.7888  1.0247  2.2437
  111OSM   C10F11555  -0.196   1.510   9.290 -0.4756  0.2944  0.3701
  111OSM   H10F11556  -0.133   1.498   9.201 -1.2951  0.9136 -0.3191
  111OSM   C11F11557  -0.339   1.522   9.253  0.8612 -0.2663 -0.3075
  111OSM   H11F11558  -0.403   1.568   9.331 -0.1778 -0.9605 -0.7145
  111OSM   H11G11559  -0.377   1.418   9.240  1.6927 -0.2881 -3.3237
  111OSM   C12F11560  -0.352   1.587   9.111  0.0133 -0.3164  0.3592
  111OSM   H12F11561  -0.275   1.666   9.098 -0.2159 -0.3397 -1.3857
  111OSM   H12G11562  -0.450   1.637   9.096  1.0535  1.2580 -1.7630
  111OSM   C13F11563  -0.338   1.494   8.991  0.4037 -0.2273 -1.3890
  111OSM   H13F11564  -0.409   1.409   9.003  2.3229 -1.5708  1.2711
  111OSM   H13G11565  -0.236   1.450   8.996 -0.2084 -1.5860  0.1558
  111OSM   C14F11566  -0.370   1.564   8.853 -0.1106 -0.5032  0.1981
  111OSM   H14F11567  -0.462   1.625   8.867 -2.1855 -3.8560  2.7227
  111OSM   H14G11568  -0.393   1.479   8.785 -1.7584 -0.2205  0.3775
  111OSM   C15F11569  -0.249   1.633   8.806  0.0078 -0.2352 -0.1636
  111OSM   H15F11570  -0.156   1.577   8.828 -0.0520  0.3732  1.8374
  111OSM   H15G11571  -0.243   1.727   8.865  0.8584 -0.7866  0.6483
  111OSM   C16F11572  -0.250   1.661   8.654  0.0319  0.2170  0.2255
  111OSM   H16F11573  -0.321   1.744   8.633  0.6218  0.6194 -0.2059
  111OSM   H16G11574  -0.278   1.568   8.600  3.5283 -1.1631  0.5242
  111OSM   C17F11575  -0.114   1.700   8.600 -0.3593  0.0586 -0.3163
  111OSM   H17F11576  -0.050   1.612   8.617  0.9464  0.8528 -0.9207
  111OSM   H17G11577  -0.082   1.791   8.656  2.1705  1.3847 -3.5461
  111OSM   C18F11578  -0.134   1.747   8.453  0.2012  0.0187 -0.3439
  111OSM   H18F11579  -0.227   1.808   8.452  1.0126  1.3957  1.8651
  111OSM   H18G11580  -0.160   1.658   8.390 -0.5974 -1.0481  1.4056
  111OSM   H18H11581  -0.046   1.802   8.414  0.2096 -0.4544 -1.0157
  112OSM      N11582   6.261   5.917  11.407  0.1702  0.0460 -0.4405
  112OSM    C1511583   6.302   5.782  11.465  1.0855  0.5680  0.2187
  112OSM   H15A11584   6.287   5.718  11.380 -1.0940  2.7809 -1.2102
  112OSM   H15B11585   6.228   5.762  11.541  0.3312 -1.0224 -0.8864
  112OSM   H15C11586   6.403   5.776  11.505  1.4810 -0.3598 -0.8533
  112OSM    C1411587   6.251   6.022  11.520 -0.8064  0.5600 -0.6230
  112OSM   H14A11588   6.227   6.122  11.486 -0.4470  0.5085 -1.0391
  112OSM   H14B11589   6.347   6.018  11.570 -0.7452  0.1574 -0.7726
  112OSM   H14C11590   6.184   5.997  11.601 -0.0891  1.3370  0.2296
  112OSM    C1311591   6.373   5.960  11.322  0.2068  0.2342  0.7263
  112OSM   H13A11592   6.379   5.913  11.225  0.9677 -0.2551  1.0004
  112OSM   H13B11593   6.472   5.959  11.367 -0.5122  1.3144  2.4011
  112OSM   H13C11594   6.361   6.066  11.305  2.8263  0.8634  2.2222
  112OSM    C1211595   6.129   5.918  11.330 -0.1797  0.1771 -0.3586
  112OSM   H12A11596   6.119   6.010  11.275 -2.7138  1.7632  2.4234
  112OSM   H12B11597   6.050   5.910  11.403  1.0967  0.8824  1.1823
  112OSM    C1111598   6.109   5.800  11.229  0.1838 -0.2081 -0.1395
  112OSM   H11A11599   6.019   5.833  11.173 -1.6654 -1.8804  1.6597
  112OSM   H11B11600   6.059   5.717  11.285 -0.1796  0.0229 -0.1198
  112OSM      P11601   6.214   5.756  10.995  0.2572  0.5037 -0.2444
  112OSM    O1311602   6.107   5.844  10.950 -0.0434  0.1836  0.3368
  112OSM    O1411603   6.350   5.770  10.946 -0.1583 -0.8400  0.0586
  112OSM    O1111604   6.160   5.611  10.958 -0.2540 -0.3103 -0.0460
  112OSM    O1211605   6.221   5.750  11.158 -0.2666  0.1826  0.3813
  112OSM    C1S11606   6.108   5.592  10.825  0.0355 -0.3222  0.2147
  112OSM    H1S11607   6.044   5.673  10.784  0.5464 -0.3249 -0.6118
  112OSM    H1T11608   6.033   5.510  10.826  0.5404 -0.7879  1.2445
  112OSM     NF11609   6.175   5.553  10.592 -0.0329  0.5682 -0.1086
  112OSM    HNF11610   6.170   5.460  10.556 -1.4256  0.0284  1.3651
  112OSM    C2S11611   6.224   5.565  10.732 -0.0544  0.2734  0.2525
  112OSM    H2S11612   6.298   5.647  10.738  0.0973  0.1897 -0.3464
  112OSM    C3S11613   6.303   5.435  10.776 -1.0318 -0.2673  0.4023
  112OSM    H3S11614   6.235   5.347  10.775 -1.3623 -0.0181  0.8515
  112OSM     O311615   6.352   5.444  10.908 -1.1323 -0.3122  0.1492
  112OSM    HO311616   6.312   5.526  10.939  0.9120  0.3889  1.1450
  112OSM    C4S11617   6.416   5.413  10.675 -0.0257 -0.1642  0.0206
  112OSM    H4S11618   6.493   5.491  10.675 -0.6360  0.4577 -0.7191
  112OSM    C5S11619   6.436   5.303  10.599 -0.2327 -0.1367  0.0710
  112OSM    H5S11620   6.362   5.223  10.616 -3.1793  2.2991 -0.4028
  112OSM    C6S11621   6.553   5.282  10.499  1.2959 -0.1961 -0.3036
  112OSM    H6S11622   6.637   5.309  10.567  0.5989  0.6701  0.2414
  112OSM    H6T11623   6.557   5.358  10.419  1.4557 -0.4827 -0.5708
  112OSM    C7S11624   6.578   5.132  10.448 -0.2908  0.5526 -0.4786
  112OSM    H7S11625   6.599   5.069  10.536  1.0604 -1.8226 -2.3827
  112OSM    H7T11626   6.672   5.131  10.389 -0.1085 -3.7979 -0.3769
  112OSM    C8S11627   6.459   5.061  10.391  0.5811 -0.4759  0.5008
  112OSM    H8S11628   6.419   5.126  10.310 -0.2470  1.2959  2.2337
  112OSM    H8T11629   6.380   5.043  10.467  1.1155 -2.7161  0.6033
  112OSM    C9S11630   6.484   4.921  10.325 -0.1484 -0.7442  0.2056
  112OSM    H9S11631   6.488   4.840  10.401 -0.9020 -2.0070 -1.0475
  112OSM    H9T11632   6.587   4.929  10.282 -0.0261  0.5316  0.7165
  112OSM   C10S11633   6.405   4.882  10.195 -0.2273 -0.2637 -0.0771
  112OSM   H10S11634   6.300   4.913  10.214 -0.5539 -0.4991 -1.3671
  112OSM   H10T11635   6.409   4.771  10.186 -0.9359 -0.2189 -1.1352
  112OSM   C11S11636   6.462   4.946  10.060  0.8285  0.1401 -0.3758
  112OSM   H11S11637   6.561   4.896  10.050  1.1576  0.6490  0.2734
  112OSM   H11T11638   6.477   5.056  10.058  2.6109 -0.0871 -0.5498
  112OSM   C12S11639   6.392   4.903   9.932 -0.2027 -0.1839 -0.0937
  112OSM   H12S11640   6.285   4.932   9.937 -0.0708  0.3184 -0.1493
  112OSM   H12T11641   6.396   4.792   9.933  0.3219 -0.1716 -0.2609
  112OSM   C13S11642   6.463   4.968   9.812  0.3898  0.9691  0.4763
  112OSM   H13S11643   6.572   4.974   9.829  0.3584  1.0300  0.6552
  112OSM   H13T11644   6.425   5.071   9.793  0.8049  1.0325 -0.0180
  112OSM   C14S11645   6.456   4.894   9.677 -0.5219 -0.2224 -0.2051
  112OSM   H14S11646   6.508   4.796   9.683  0.8507  0.4324 -0.9674
  112OSM   H14T11647   6.507   4.966   9.610 -0.9907  0.0361 -0.2913
  112OSM   C15S11648   6.312   4.863   9.639 -0.0066  0.3220 -0.3794
  112OSM   H15S11649   6.267   4.803   9.721  2.7310 -1.0761  0.2414
  112OSM   H15T11650   6.301   4.819   9.537 -2.3642  2.1125 -0.9625
  112OSM   C16S11651   6.230   4.986   9.614  0.9147  0.2716 -0.6775
  112OSM   H16S11652   6.287   5.053   9.546 -2.8769  2.3171 -2.1522
  112OSM   H16T11653   6.206   5.044   9.706 -2.4366 -1.0975 -0.5112
  112OSM   C17S11654   6.094   4.963   9.540 -0.8106 -0.2562  0.7491
  112OSM   H17S11655   6.039   4.881   9.591  0.6696 -1.9347 -0.2491
  112OSM   H17T11656   6.118   4.929   9.438 -0.7079 -1.2819  1.1017
  112OSM   C18S11657   6.009   5.092   9.533 -0.9056  0.4427  0.0741
  112OSM   H18S11658   5.974   5.117   9.635  1.6759  1.7674  0.7122
  112OSM   H18T11659   5.922   5.084   9.464 -0.6228  1.0372 -0.3601
  112OSM   H18U11660   6.074   5.176   9.500  0.9819  0.5373  3.5404
  112OSM    C1F11661   6.158   5.656  10.510  0.5666  0.4379 -0.3269
  112OSM     OF11662   6.180   5.770  10.551 -0.0606 -0.2068  0.4998
  112OSM    C2F11663   6.099   5.617  10.370 -0.5484 -0.2026 -0.1627
  112OSM    H2F11664   6.068   5.510  10.374 -1.5975  0.1043  0.3815
  112OSM    H2G11665   6.185   5.614  10.299  0.6327  0.0968  1.2098
  112OSM    C3F11666   5.981   5.714  10.336 -0.5878 -0.1207  0.0016
  112OSM    H3F11667   6.018   5.818  10.345 -0.8938 -0.1876  2.6589
  112OSM    H3G11668   5.900   5.691  10.409 -0.3860  1.9326  0.9232
  112OSM    C4F11669   5.932   5.682  10.197 -0.1707  0.3329 -0.3640
  112OSM    H4F11670   5.894   5.578  10.199  1.9288 -0.5777  3.6831
  112OSM    H4G11671   6.023   5.664  10.136 -0.1939 -2.0262  0.1973
  112OSM    C5F11672   5.850   5.786  10.130  0.3681 -0.4041 -0.2806
  112OSM    H5F11673   5.891   5.886  10.154 -1.7225  0.4129  0.1252
  112OSM    H5G11674   5.746   5.787  10.168  0.1390  0.3061 -0.8995
  112OSM    C6F11675   5.845   5.766   9.977 -0.2231 -0.2136  1.2070
  112OSM    H6F11676   5.949   5.777   9.938 -0.5930 -1.1605 -0.1115
  112OSM    H6G11677   5.786   5.847   9.929  1.1552  0.0519 -0.1379
  112OSM    C7F11678   5.799   5.621   9.944  0.4452  0.1699  0.2826
  112OSM    H7F11679   5.717   5.611  10.019  0.6960  1.2843  0.7407
  112OSM    H7G11680   5.885   5.554   9.964 -0.0147 -0.7120 -0.6361
  112OSM    C8F11681   5.730   5.607   9.806  0.1598 -0.2604  0.0692
  112OSM    H8F11682   5.644   5.676   9.793  0.2848 -0.3864 -1.6663
  112OSM    H8G11683   5.692   5.503   9.813  1.5046 -0.6886  1.5906
  112OSM    C9F11684   5.810   5.631   9.681 -0.5761  0.0876  0.3159
  112OSM    H9F11685   5.881   5.715   9.681 -0.4021 -0.0575  0.4028
  112OSM   C10F11686   5.803   5.552   9.572  0.0311 -0.2054  0.1698
  112OSM   H10F11687   5.850   5.588   9.479  0.0583 -0.8237 -0.0621
  112OSM   C11F11688   5.714   5.426   9.558  0.6694 -0.4413  0.0982
  112OSM   H11F11689   5.660   5.398   9.651 -0.2188  1.2995  0.1529
  112OSM   H11G11690   5.775   5.339   9.525  0.6721 -0.1798 -0.6040
  112OSM   C12F11691   5.602   5.442   9.449  0.1719  0.3432 -0.0572
  112OSM   H12F11692   5.663   5.465   9.359  0.2298 -0.0308 -0.1163
  112OSM   H12G11693   5.534   5.526   9.471  0.1266 -0.3574  2.9146
  112OSM   C13F11694   5.505   5.319   9.431 -0.4577 -0.1173 -0.2712
  112OSM   H13F11695   5.456   5.297   9.528  0.9061  0.6195  0.6105
  112OSM   H13G11696   5.562   5.226   9.408  0.1642  0.0134  0.6900
  112OSM   C14F11697   5.394   5.338   9.321  0.5082  0.9505  0.1142
  112OSM   H14F11698   5.309   5.384   9.375 -0.0348  0.8553 -0.6377
  112OSM   H14G11699   5.353   5.241   9.286 -0.2259  1.4801 -0.5267
  112OSM   C15F11700   5.440   5.428   9.212 -0.4310 -0.1020  0.1780
  112OSM   H15F11701   5.475   5.523   9.258  1.3029 -0.3909 -0.4873
  112OSM   H15G11702   5.357   5.454   9.143 -0.7308 -2.2596 -0.3328
  112OSM   C16F11703   5.552   5.365   9.121 -0.4894 -0.2462  0.7276
  112OSM   H16F11704   5.506   5.269   9.090  1.3286 -1.5890  1.9698
  112OSM   H16G11705   5.628   5.334   9.197  1.7080  0.3247 -1.1218
  112OSM   C17F11706   5.616   5.451   9.005  0.2042 -0.0839 -0.7356
  112OSM   H17F11707   5.674   5.535   9.048  0.5255 -0.5913 -0.1658
  112OSM   H17G11708   5.526   5.494   8.955 -0.0112  1.0876  0.6091
  112OSM   C18F11709   5.705   5.368   8.911 -0.0312 -0.0088  0.0122
  112OSM   H18F11710   5.644   5.285   8.871 -0.8369  1.0445 -0.9837
  112OSM   H18G11711   5.800   5.344   8.964 -0.5709 -0.7880  0.6660
  112OSM   H18H11712   5.724   5.431   8.822 -1.5350 -0.6097 -0.7693
  113OSM      N11713   5.619   0.808  10.757  0.4770 -0.1863  0.0034
  113OSM    C1511714   5.688   0.937  10.779 -0.8094 -0.0011  0.5417
  113OSM   H15A11715   5.726   0.969  10.683  0.8503 -3.1941 -0.0221
  113OSM   H15B11716   5.775   0.933  10.842 -0.8491  0.6806  0.6425
  113OSM   H15C11717   5.618   1.010  10.817  0.2379  1.6790 -0.6425
  113OSM    C1411718   5.503   0.840  10.663 -0.2794  0.1146 -0.1737
  113OSM   H14A11719   5.463   0.743  10.639  2.2340 -0.2993 -3.3042
  113OSM   H14B11720   5.550   0.882  10.575  2.1852 -0.1348  0.9542
  113OSM   H14C11721   5.424   0.903  10.704 -1.4701 -1.0361 -0.6223
  113OSM    C1311722   5.721   0.720  10.694 -0.2579  0.8893  0.4406
  113OSM   H13A11723   5.733   0.737  10.588 -0.6132  1.5565  0.5018
  113OSM   H13B11724   5.683   0.621  10.710 -1.3524  1.1193 -0.6128
  113OSM   H13C11725   5.820   0.725  10.737  1.1243 -1.7148 -2.1027
  113OSM    C1211726   5.571   0.757  10.891  0.0968 -1.0527  0.4019
  113OSM   H12A11727   5.512   0.824  10.952  0.2449 -0.2491 -0.3128
  113OSM   H12B11728   5.657   0.736  10.953 -0.3790  1.6839  2.1621
  113OSM    C1111729   5.479   0.632  10.884 -0.2859  0.0452 -0.0428
  113OSM   H11A11730   5.474   0.595  10.988 -2.5739 -2.0851 -0.8137
  113OSM   H11B11731   5.530   0.552  10.827 -0.0608  1.7494 -2.3885
  113OSM      P11732   5.264   0.574  10.752 -0.0498  0.1913  0.2535
  113OSM    O1311733   5.252   0.443  10.821  0.0185 -0.4000 -0.3376
  113OSM    O1411734   5.138   0.642  10.720  0.0769 -0.0715 -0.0427
  113OSM    O1111735   5.347   0.566  10.624 -0.4107 -0.7581  0.0621
  113OSM    O1211736   5.347   0.663  10.849 -0.0489 -0.5296 -0.3317
  113OSM    C1S11737   5.285   0.518  10.505  0.3024  0.0008  0.3191
  113OSM    H1S11738   5.206   0.584  10.464  2.7723  2.5624 -0.6376
  113OSM    H1T11739   5.239   0.418  10.522  0.3610  0.0034  0.4989
  113OSM     NF11740   5.316   0.419  10.278  0.1835 -0.4763  0.2895
  113OSM    HNF11741   5.351   0.326  10.269  1.9222 -0.1151  2.5003
  113OSM    C2S11742   5.384   0.491  10.386 -0.7942  0.5050  0.3473
  113OSM    H2S11743   5.409   0.594  10.352  0.8941  0.3028  0.8782
  113OSM    C3S11744   5.513   0.415  10.437  0.4504 -0.0989  0.2542
  113OSM    H3S11745   5.479   0.311  10.458  2.7292 -1.1536 -0.9137
  113OSM     O311746   5.575   0.466  10.556  0.1588  0.3830 -0.8374
  113OSM    HO311747   5.502   0.508  10.602  0.2276  0.7590 -1.0732
  113OSM    C4S11748   5.621   0.407  10.333 -0.3331 -0.8715  1.0060
  113OSM    H4S11749   5.637   0.501  10.279 -0.2325 -2.7433 -2.4869
  113OSM    C5S11750   5.687   0.294  10.292 -0.2739  0.3692 -0.3804
  113OSM    H5S11751   5.669   0.200  10.346 -0.3691  0.5280 -0.1332
  113OSM    C6S11752   5.785   0.285  10.182 -0.2687 -0.6041 -0.4138
  113OSM    H6S11753   5.886   0.267  10.224 -0.0271  0.4501 -0.5182
  113OSM    H6T11754   5.794   0.381  10.125  1.7202 -1.6282 -1.9666
  113OSM    C7S11755   5.750   0.179  10.080  0.9680 -0.0008  0.3707
  113OSM    H7S11756   5.652   0.191  10.030  1.9317 -0.9186 -1.8790
  113OSM    H7T11757   5.745   0.081  10.132 -2.2701  1.1687  2.6146
  113OSM    C8S11758   5.848   0.195   9.963  0.4628 -0.2502 -0.7827
  113OSM    H8S11759   5.949   0.179  10.005  0.7778 -0.9936 -1.7692
  113OSM    H8T11760   5.831   0.292   9.912  0.8994  0.0851 -0.2967
  113OSM    C9S11761   5.825   0.081   9.855 -0.3545  0.3769  0.3479
  113OSM    H9S11762   5.721   0.047   9.836 -0.1972  0.7307 -1.3634
  113OSM    H9T11763   5.885  -0.005   9.891 -0.1797  0.4405  0.2113
  113OSM   C10S11764   5.879   0.123   9.723  0.6846 -0.0279  1.1048
  113OSM   H10S11765   5.990   0.121   9.724  0.7914  2.1525  0.0640
  113OSM   H10T11766   5.847   0.224   9.691 -0.0508 -0.6846 -0.3673
  113OSM   C11S11767   5.825   0.025   9.618 -0.0656  0.1286  0.9748
  113OSM   H11S11768   5.839   0.062   9.514 -2.2880 -1.8462 -0.1393
  113OSM   H11T11769   5.716   0.001   9.621 -0.7020  1.5539 -3.3331
  113OSM   C12S11770   5.911  -0.105   9.618  0.1698 -0.8257  0.6190
  113OSM   H12S11771   5.877  -0.174   9.698 -0.7018 -2.3175 -0.9548
  113OSM   H12T11772   6.020  -0.091   9.631  0.1774 -0.4319  0.1788
  113OSM   C13S11773   5.901  -0.182   9.482 -0.1311 -0.4519 -0.1140
  113OSM   H13S11774   5.959  -0.133   9.401 -1.7161 -0.5487 -1.3463
  113OSM   H13T11775   5.795  -0.165   9.452 -0.1935  2.6888  1.5282
  113OSM   C14S11776   5.960  -0.322   9.471 -0.1501 -0.3992 -0.4607
  113OSM   H14S11777   5.911  -0.392   9.542  0.0439 -1.0062 -0.9177
  113OSM   H14T11778   6.066  -0.313   9.502 -0.2425  1.1277 -0.5120
  113OSM   C15S11779   5.937  -0.365   9.332 -0.1783  0.7669 -0.3069
  113OSM   H15S11780   5.993  -0.297   9.264  1.0054  0.2503  0.1267
  113OSM   H15T11781   5.828  -0.351   9.317 -0.2906  1.9730  1.3666
  113OSM   C16S11782   5.981  -0.506   9.295 -0.4811  0.6463 -0.1652
  113OSM   H16S11783   5.888  -0.568   9.296 -0.1845  0.1828  1.1738
  113OSM   H16T11784   6.054  -0.545   9.369 -0.1101  2.6530  0.5926
  113OSM   C17S11785   6.047  -0.511   9.157  0.1664 -0.5195  0.2077
  113OSM   H17S11786   6.110  -0.602   9.162  0.8317 -0.1935 -1.6061
  113OSM   H17T11787   6.121  -0.432   9.133 -1.1778  0.7252 -0.0231
  113OSM   C18S11788   5.953  -0.534   9.040  0.1860 -0.0147  0.7740
  113OSM   H18S11789   5.917  -0.639   9.054 -2.4177  0.7462  0.3474
  113OSM   H18T11790   6.012  -0.527   8.946 -0.9157 -0.2036  0.0534
  113OSM   H18U11791   5.867  -0.465   9.029  0.1240 -0.1605  0.3189
  113OSM    C1F11792   5.233   0.492  10.194  0.8188  0.3128  0.0568
  113OSM     OF11793   5.214   0.608  10.205 -0.0123 -0.2651  0.0135
  113OSM    C2F11794   5.156   0.417  10.095  0.2773 -0.4764 -0.2931
  113OSM    H2F11795   5.057   0.387  10.138  0.3241 -0.5466 -0.2340
  113OSM    H2G11796   5.214   0.332  10.055  0.3866  0.0876 -1.3815
  113OSM    C3F11797   5.133   0.505   9.973 -0.0103  0.7359 -0.5267
  113OSM    H3F11798   5.230   0.519   9.921 -0.2003  1.0904 -0.7882
  113OSM    H3G11799   5.099   0.607   9.999 -0.4062  0.3771  0.3994
  113OSM    C4F11800   5.038   0.453   9.867  0.7718  0.4717  0.2873
  113OSM    H4F11801   5.004   0.528   9.792  1.9426  0.1589 -0.5832
  113OSM    H4G11802   4.944   0.420   9.914  1.0903  1.1451  1.4349
  113OSM    C5F11803   5.084   0.330   9.789  0.9445  0.7333  1.0540
  113OSM    H5F11804   5.108   0.246   9.857 -0.0568 -0.2191  0.2791
  113OSM    H5G11805   5.173   0.342   9.724 -0.3075  0.1507 -0.8766
  113OSM    C6F11806   4.969   0.283   9.692 -0.0726  0.0256  0.2160
  113OSM    H6F11807   4.929   0.371   9.638  1.3198  0.4154 -0.2154
  113OSM    H6G11808   4.882   0.252   9.755 -0.2269 -1.2813 -0.6119
  113OSM    C7F11809   5.017   0.169   9.607  0.4609  0.1379 -0.2499
  113OSM    H7F11810   5.069   0.100   9.677 -0.0346  1.1768  1.1878
  113OSM    H7G11811   5.101   0.199   9.541  0.3028  2.0058  0.3481
  113OSM    C8F11812   4.908   0.093   9.526 -0.4927 -0.0083  0.6066
  113OSM    H8F11813   4.851   0.038   9.603 -1.3118 -1.0594 -0.7118
  113OSM    H8G11814   4.938   0.006   9.464 -2.6412 -0.8514  0.6997
  113OSM    C9F11815   4.807   0.178   9.448 -0.1803  0.3860  0.0603
  113OSM    H9F11816   4.764   0.259   9.509  0.6688  0.2371  0.8857
  113OSM   C10F11817   4.758   0.157   9.323 -0.0852 -0.2812 -0.1017
  113OSM   H10F11818   4.679   0.226   9.289 -0.4020 -0.0421  1.0709
  113OSM   C11F11819   4.797   0.070   9.211 -0.5487 -0.2266  0.7085
  113OSM   H11F11820   4.710   0.033   9.152  1.1700 -2.3846 -0.6734
  113OSM   H11G11821   4.850  -0.015   9.257  1.0049  1.2150  1.6947
  113OSM   C12F11822   4.900   0.135   9.109  0.4020 -0.5795  0.2060
  113OSM   H12F11823   4.928   0.054   9.038 -2.5747 -0.9356 -0.6801
  113OSM   H12G11824   4.991   0.173   9.161  1.5617 -2.1006 -0.6123
  113OSM   C13F11825   4.829   0.250   9.030 -0.1418  0.2534  0.3759
  113OSM   H13F11826   4.789   0.321   9.106 -0.7009  0.9517 -0.5522
  113OSM   H13G11827   4.748   0.197   8.976  0.3210 -1.1041  0.9594
  113OSM   C14F11828   4.924   0.317   8.930  0.1999 -0.6350  0.1398
  113OSM   H14F11829   4.940   0.243   8.849  2.7174  0.1732 -0.1938
  113OSM   H14G11830   5.022   0.349   8.971 -0.2261  1.0802 -0.0968
  113OSM   C15F11831   4.858   0.443   8.870 -0.3189  0.0983 -0.3502
  113OSM   H15F11832   4.845   0.515   8.953 -1.9777  1.3131 -1.5939
  113OSM   H15G11833   4.755   0.411   8.841 -1.0504  1.6327  0.4264
  113OSM   C16F11834   4.949   0.493   8.760 -0.0129 -0.4004  0.2437
  113OSM   H16F11835   4.885   0.513   8.671 -0.3878  0.6879  0.7335
  113OSM   H16G11836   5.020   0.414   8.728  0.7621  0.9063 -1.3967
  113OSM   C17F11837   5.034   0.619   8.806 -0.0089  0.3750  0.5557
  113OSM   H17F11838   5.086   0.599   8.903 -0.0358  2.4519  1.0421
  113OSM   H17G11839   4.973   0.707   8.833  0.1948  0.5008  0.6123
  113OSM   C18F11840   5.134   0.649   8.690  0.2817 -0.4243 -0.4724
  113OSM   H18F11841   5.077   0.692   8.605 -1.4943  0.1928  0.9739
  113OSM   H18G11842   5.188   0.556   8.662  0.9490 -0.5719  1.1960
  113OSM   H18H11843   5.204   0.730   8.721 -0.5005 -0.1837  0.7475
  114OSM      N11844   4.760   5.080  11.340  0.6021  0.6772 -0.3921
  114OSM    C1511845   4.682   5.004  11.231 -0.2126  0.3480 -0.0748
  114OSM   H15A11846   4.623   5.077  11.179 -1.3896  0.9393  1.9872
  114OSM   H15B11847   4.606   4.940  11.272  3.0503 -1.6621  3.4500
  114OSM   H15C11848   4.751   4.956  11.163  0.8836  0.3422  1.0012
  114OSM    C1411849   4.663   5.166  11.419  0.3067  0.2506  0.2069
  114OSM   H14A11850   4.606   5.101  11.484 -0.6234  0.3829 -0.4586
  114OSM   H14B11851   4.588   5.215  11.358 -1.2573 -0.6616  1.3196
  114OSM   H14C11852   4.716   5.232  11.487  1.6364 -0.7253  0.1627
  114OSM    C1311853   4.839   4.998  11.427  0.1007  0.4430 -0.2310
  114OSM   H13A11854   4.877   5.053  11.512  1.9421  1.0072 -1.3588
  114OSM   H13B11855   4.923   4.959  11.370  0.4070  1.2921 -0.3745
  114OSM   H13C11856   4.784   4.912  11.462 -1.2590  1.6239  0.6159
  114OSM    C1211857   4.858   5.167  11.262 -0.6370  0.1050 -0.0316
  114OSM   H12A11858   4.933   5.108  11.211 -0.0542 -1.0369  2.0574
  114OSM   H12B11859   4.921   5.209  11.339  0.5232 -1.1174 -0.2816
  114OSM    C1111860   4.810   5.285  11.186  0.6598  0.9631  0.4626
  114OSM   H11A11861   4.756   5.352  11.257  0.3674 -0.3641  1.5324
  114OSM   H11B11862   4.737   5.262  11.106  0.7177  2.8611 -0.2080
  114OSM      P11863   4.906   5.492  11.048 -0.2875  0.1744  0.0197
  114OSM    O1311864   4.775   5.545  11.064  0.5295 -0.3334 -0.2059
  114OSM    O1411865   5.010   5.586  11.095 -0.5834  0.1614 -0.4876
  114OSM    O1111866   4.939   5.449  10.900  0.1392 -0.2024  0.7095
  114OSM    O1211867   4.923   5.354  11.135  0.1857 -0.0621  0.4786
  114OSM    C1S11868   4.953   5.555  10.796 -0.1057  0.1540  0.3717
  114OSM    H1S11869   5.042   5.618  10.816  1.1311 -1.7580  1.1164
  114OSM    H1T11870   4.872   5.632  10.792  0.1699  0.4335  0.2007
  114OSM     NF11871   4.978   5.609  10.552  0.3665  0.6626 -0.3834
  114OSM    HNF11872   4.900   5.633  10.495  0.5477 -0.7715 -1.2816
  114OSM    C2S11873   4.956   5.497  10.648  0.0149 -0.1970 -0.6836
  114OSM    H2S11874   5.045   5.432  10.637  0.0994 -0.7637  2.2854
  114OSM    C3S11875   4.824   5.417  10.618  0.1322 -0.0482 -0.3489
  114OSM    H3S11876   4.748   5.496  10.607  1.3698  1.3238  0.5553
  114OSM     O311877   4.788   5.307  10.709 -0.0518 -0.1749  0.0074
  114OSM    HO311878   4.860   5.300  10.772  0.6050 -1.2850 -0.8380
  114OSM    C4S11879   4.845   5.357  10.478 -0.0282 -0.5130 -0.2479
  114OSM    H4S11880   4.796   5.420  10.403  2.4120 -0.1521 -1.6550
  114OSM    C5S11881   4.923   5.250  10.449 -0.2864  0.0941  0.4430
  114OSM    H5S11882   4.965   5.188  10.530 -2.2511  0.4576  1.7845
  114OSM    C6S11883   4.951   5.190  10.313 -0.3049 -0.1315 -1.3210
  114OSM    H6S11884   4.883   5.104  10.293 -1.5437  0.1530  1.2459
  114OSM    H6T11885   5.056   5.154  10.303  0.1848  0.7908  0.1033
  114OSM    C7S11886   4.940   5.286  10.192 -0.7622 -0.2770 -0.2961
  114OSM    H7S11887   5.016   5.367  10.199 -0.0498 -0.9744  0.1357
  114OSM    H7T11888   4.834   5.319  10.190 -0.6139  0.3166  0.7626
  114OSM    C8S11889   4.958   5.216  10.056 -0.2126 -0.1116 -0.4562
  114OSM    H8S11890   4.879   5.138  10.055 -1.2682  0.8634  1.8520
  114OSM    H8T11891   5.056   5.165  10.053  0.1919  0.6824 -1.7874
  114OSM    C9S11892   4.948   5.302   9.933 -0.9491 -0.0469 -0.4423
  114OSM    H9S11893   4.987   5.403   9.955 -0.6449  0.3167 -2.4580
  114OSM    H9T11894   4.841   5.325   9.912 -0.7418  0.1277 -1.3415
  114OSM   C10S11895   5.024   5.234   9.819  0.8783  0.8907 -0.7206
  114OSM   H10S11896   4.974   5.141   9.786  2.6386  0.8601 -3.6110
  114OSM   H10T11897   5.126   5.208   9.855 -0.4487 -1.7182  1.5316
  114OSM   C11S11898   5.033   5.328   9.697 -0.5357 -0.1005  0.4338
  114OSM   H11S11899   5.081   5.428   9.706 -0.7304  0.0387 -0.0241
  114OSM   H11T11900   4.927   5.360   9.691 -0.0937  1.1601 -2.3420
  114OSM   C12S11901   5.061   5.260   9.556 -0.2268 -0.5765 -0.3075
  114OSM   H12S11902   5.000   5.167   9.563  0.8388 -1.1806  2.2302
  114OSM   H12T11903   5.170   5.240   9.549  0.1992  1.1004  0.9363
  114OSM   C13S11904   5.029   5.351   9.435  0.4429  0.5066 -0.3888
  114OSM   H13S11905   5.100   5.435   9.419  0.0911  0.4603 -2.5564
  114OSM   H13T11906   4.924   5.384   9.448 -0.0492 -0.9471 -0.5958
  114OSM   C14S11907   5.018   5.266   9.307 -0.1673 -0.0250  0.3264
  114OSM   H14S11908   4.941   5.188   9.325  0.1672 -0.3792  0.2281
  114OSM   H14T11909   5.114   5.210   9.298 -0.4271 -0.5721  0.8698
  114OSM   C15S11910   4.991   5.341   9.179 -0.9283 -0.0077 -0.2254
  114OSM   H15S11911   5.036   5.442   9.189 -2.0488  0.5046 -0.1851
  114OSM   H15T11912   4.881   5.353   9.173 -0.8320  0.1996 -2.4459
  114OSM   C16S11913   5.041   5.279   9.055 -0.7251  0.6011  0.1069
  114OSM   H16S11914   4.985   5.184   9.046  0.2974  0.0584 -0.7735
  114OSM   H16T11915   5.148   5.251   9.061 -0.8581 -0.4819 -1.6988
  114OSM   C17S11916   5.029   5.364   8.932 -0.3037 -0.0097  0.6500
  114OSM   H17S11917   5.094   5.453   8.947  2.4598 -1.3989 -2.0401
  114OSM   H17T11918   4.928   5.402   8.905 -0.0160 -0.1401 -0.7078
  114OSM   C18S11919   5.094   5.298   8.804  0.5622  0.3581  0.0202
  114OSM   H18S11920   5.205   5.287   8.813  0.8034 -0.0955 -2.7036
  114OSM   H18T11921   5.073   5.340   8.703  1.3615 -1.3006 -0.8816
  114OSM   H18U11922   5.054   5.195   8.794  1.1278  0.1447 -0.1131
  114OSM    C1F11923   5.088   5.681  10.542 -0.0389 -0.1719  0.9354
  114OSM     OF11924   5.183   5.657  10.613 -0.2245  0.1660  0.0901
  114OSM    C2F11925   5.098   5.790  10.432 -0.3025 -0.0795 -0.2217
  114OSM    H2F11926   5.165   5.868  10.472  1.2048 -2.8043  3.1395
  114OSM    H2G11927   4.998   5.839  10.428 -0.1749  0.6245  2.6477
  114OSM    C3F11928   5.139   5.713  10.300 -0.1883 -0.1610  0.2587
  114OSM    H3F11929   5.048   5.654  10.277 -0.7608  0.9308 -0.3510
  114OSM    H3G11930   5.223   5.642  10.319 -0.6179 -1.6039 -2.6316
  114OSM    C4F11931   5.166   5.796  10.170 -0.5690  0.8403  0.0066
  114OSM    H4F11932   5.253   5.863  10.188  1.8641 -1.4634 -2.2634
  114OSM    H4G11933   5.090   5.869  10.135  0.4211  1.5546 -0.6994
  114OSM    C5F11934   5.211   5.712  10.052  0.4605  0.6311  0.1649
  114OSM    H5F11935   5.134   5.632  10.042  1.6829 -0.9262  2.3497
  114OSM    H5G11936   5.305   5.662  10.083  0.8529  1.1065 -0.2424
  114OSM    C6F11937   5.251   5.781   9.922 -0.2932 -0.0922 -0.0566
  114OSM    H6F11938   5.323   5.859   9.953 -1.4792  0.1178  2.4154
  114OSM    H6G11939   5.157   5.831   9.891 -2.2683 -3.1775  0.4876
  114OSM    C7F11940   5.301   5.678   9.821  0.2915 -0.7141 -0.0261
  114OSM    H7F11941   5.231   5.594   9.803 -0.3979  0.0329 -0.9227
  114OSM    H7G11942   5.402   5.644   9.853  0.2114  1.4917  2.9038
  114OSM    C8F11943   5.306   5.722   9.675 -0.0676 -0.3801  0.3223
  114OSM    H8F11944   5.211   5.768   9.642  1.2767  1.7654 -0.7861
  114OSM    H8G11945   5.324   5.632   9.612 -1.7280  0.4070 -1.3673
  114OSM    C9F11946   5.412   5.830   9.656  0.0832  0.2243  0.2690
  114OSM    H9F11947   5.483   5.842   9.739  0.6172  3.4439 -0.5234
  114OSM   C10F11948   5.424   5.932   9.563 -0.1636  0.1009  0.3266
  114OSM   H10F11949   5.512   5.997   9.554 -0.2198  0.1623  0.2107
  114OSM   C11F11950   5.336   5.945   9.443  0.4713  0.3106  0.2412
  114OSM   H11F11951   5.279   6.040   9.457 -1.1819 -0.6955  0.6280
  114OSM   H11G11952   5.262   5.862   9.446  1.3746 -0.5218  3.2807
  114OSM   C12F11953   5.426   5.952   9.318  1.2025 -0.2582 -0.0322
  114OSM   H12F11954   5.495   6.036   9.341 -0.2682  0.5289  1.7761
  114OSM   H12G11955   5.360   5.982   9.233  0.0010  1.1006  1.3277
  114OSM   C13F11956   5.510   5.825   9.297 -0.7479  0.3873 -0.5896
  114OSM   H13F11957   5.466   5.729   9.333 -0.7672  0.3082 -0.8293
  114OSM   H13G11958   5.597   5.842   9.365 -0.5323  1.3402 -1.0942
  114OSM   C14F11959   5.557   5.808   9.153  0.1163  0.6295  0.1408
  114OSM   H14F11960   5.469   5.784   9.090 -1.4726 -0.7584  2.7000
  114OSM   H14G11961   5.628   5.723   9.145  0.0290  0.4892  0.7761
  114OSM   C15F11962   5.625   5.934   9.081  0.0063  0.1898 -0.0862
  114OSM   H15F11963   5.717   5.965   9.135  0.8104 -0.8965 -0.7749
  114OSM   H15G11964   5.543   6.008   9.073 -0.7919 -0.7874 -1.5238
  114OSM   C16F11965   5.662   5.913   8.937 -0.3296  0.8287 -0.8358
  114OSM   H16F11966   5.577   5.867   8.882 -0.7064  0.8339 -0.2745
  114OSM   H16G11967   5.752   5.849   8.935  0.1514  1.4757 -0.2983
  114OSM   C17F11968   5.696   6.038   8.854 -0.6373 -0.8113  0.4311
  114OSM   H17F11969   5.787   6.094   8.885 -0.4842 -0.1507 -1.0910
  114OSM   H17G11970   5.616   6.112   8.878  0.5921  0.2491  1.4317
  114OSM   C18F11971   5.698   6.011   8.702 -0.2313 -0.1071 -0.2762
  114OSM   H18F11972   5.596   5.983   8.667 -0.1953 -0.4381 -0.1142
  114OSM   H18G11973   5.768   5.933   8.666 -0.2100 -0.9313  1.4380
  114OSM   H18H11974   5.719   6.109   8.653 -3.2420  0.3230 -0.9106
  115OSM      N11975   2.083   2.250  11.072  0.1298  0.2194  0.2635
  115OSM    C1511976   2.005   2.129  11.100  0.8109 -0.3521 -0.4926
  115OSM   H15A11977   1.999   2.113  11.206  1.2447  0.8034 -0.2862
  115OSM   H15B11978   2.058   2.046  11.054  1.2807  1.1099 -2.7361
  115OSM   H15C11979   1.905   2.136  11.062  0.1122  1.5486  1.5299
  115OSM    C1411980   2.004   2.362  11.134  0.0477 -0.5122 -0.0275
  115OSM   H14A11981   2.064   2.451  11.135 -3.1931  1.8481  0.6843
  115OSM   H14B11982   1.973   2.339  11.235  1.5066  1.1894  0.8426
  115OSM   H14C11983   1.918   2.396  11.078 -0.4088  0.4632  1.2206
  115OSM    C1311984   2.221   2.249  11.130 -0.1096 -0.0625 -1.1896
  115OSM   H13A11985   2.274   2.159  11.107  0.8119  0.6698 -2.0070
  115OSM   H13B11986   2.220   2.260  11.238 -1.4676  0.2380 -1.2100
  115OSM   H13C11987   2.282   2.327  11.088 -2.4548  0.9101 -3.0168
  115OSM    C1211988   2.097   2.272  10.920  0.3422 -0.1982  0.5545
  115OSM   H12A11989   2.169   2.350  10.906  0.3380 -0.2265  0.3636
  115OSM   H12B11990   2.003   2.314  10.886  0.2473 -1.3319 -0.7010
  115OSM    C1111991   2.142   2.162  10.813 -0.1422 -0.4283  0.1819
  115OSM   H11A11992   2.130   2.188  10.706 -0.4392 -3.1372 -0.5184
  115OSM   H11B11993   2.069   2.079  10.828 -0.1771 -0.1606  1.7435
  115OSM      P11994   2.411   2.178  10.822 -0.1418 -0.3198  0.3480
  115OSM    O1311995   2.388   2.322  10.794  0.6106 -0.3163 -0.1375
  115OSM    O1411996   2.499   2.141  10.932 -0.4732 -0.1227  0.1983
  115OSM    O1111997   2.465   2.093  10.699  0.3628 -0.1077 -0.4308
  115OSM    O1211998   2.268   2.110  10.852 -0.0574 -0.1932 -0.6688
  115OSM    C1S11999   2.462   2.165  10.579  0.1921  0.5739 -0.4602
  115OSM    H1S12000   2.545   2.238  10.585  0.5864  0.2327 -1.5674
  115OSM    H1T12001   2.374   2.232  10.568 -1.8531 -1.8875 -0.0849
  115OSM     NF12002   2.484   2.140  10.336  0.5424 -0.3050 -0.0267
  115OSM    HNF12003   2.405   2.141  10.274  0.0949 -1.6194  0.4785
  115OSM    C2S12004   2.470   2.066  10.460  0.8224 -0.0662 -0.4951
  115OSM    H2S12005   2.562   2.005  10.469 -0.2500 -2.0435 -2.0924
  115OSM    C3S12006   2.341   1.968  10.467  0.0152 -0.0269 -0.2172
  115OSM    H3S12007   2.259   2.043  10.453  0.7414  0.3275 -3.5534
  115OSM     O312008   2.326   1.903  10.592 -0.5349  0.2936  0.1309
  115OSM    HO312009   2.385   1.957  10.645 -0.9202 -0.6896  1.6441
  115OSM    C4S12010   2.344   1.875  10.340  0.2139  0.0749 -0.1770
  115OSM    H4S12011   2.307   1.928  10.251  1.9618  2.6696  0.5271
  115OSM    C5S12012   2.374   1.740  10.325 -0.3773  0.4993  0.7660
  115OSM    H5S12013   2.404   1.689  10.418 -1.5924 -1.0074  0.3617
  115OSM    C6S12014   2.372   1.649  10.199  0.3466 -0.1469 -0.0657
  115OSM    H6S12015   2.282   1.586  10.206 -0.9999  1.6408 -0.4973
  115OSM    H6T12016   2.467   1.592  10.193  2.1526  2.4564  1.5164
  115OSM    C7S12017   2.356   1.740  10.072  0.8051  0.4109 -0.4663
  115OSM    H7S12018   2.422   1.829  10.074 -0.7141  1.5592  0.6112
  115OSM    H7T12019   2.251   1.775  10.079  0.4813 -0.0385 -2.5580
  115OSM    C8S12020   2.374   1.667   9.943  0.1080  1.2092 -0.1281
  115OSM    H8S12021   2.303   1.582   9.944 -0.9589  2.0801 -0.4595
  115OSM    H8T12022   2.474   1.619   9.951 -0.7612 -0.5560  0.9104
  115OSM    C9S12023   2.351   1.749   9.818 -0.1326 -0.2219  0.0408
  115OSM    H9S12024   2.418   1.837   9.827 -0.4677 -0.1234  2.1319
  115OSM    H9T12025   2.250   1.795   9.824 -0.0854  0.0328 -0.9903
  115OSM   C10S12026   2.375   1.671   9.690 -0.0743 -0.4103 -0.4617
  115OSM   H10S12027   2.373   1.561   9.700  2.2236 -0.5170 -0.6360
  115OSM   H10T12028   2.481   1.688   9.661  0.5172 -0.1350  1.6783
  115OSM   C11S12029   2.304   1.735   9.570 -0.1195  0.3406 -0.2036
  115OSM   H11S12030   2.299   1.846   9.573 -3.3724  0.5601 -4.3094
  115OSM   H11T12031   2.197   1.705   9.577 -0.0152 -0.0972 -0.4903
  115OSM   C12S12032   2.347   1.690   9.443 -0.6209  1.1593  0.2884
  115OSM   H12S12033   2.350   1.581   9.423  1.7350  1.2583 -0.1370
  115OSM   H12T12034   2.454   1.720   9.436 -0.4204  0.6288  0.9302
  115OSM   C13S12035   2.282   1.762   9.325  0.2902  0.3677 -0.2118
  115OSM   H13S12036   2.304   1.864   9.364  0.7601 -0.6107  2.3137
  115OSM   H13T12037   2.172   1.747   9.323  0.1420  1.0237  1.4117
  115OSM   C14S12038   2.364   1.731   9.197 -0.2537  0.3752 -0.0164
  115OSM   H14S12039   2.383   1.622   9.194  0.8012  0.2722  4.0348
  115OSM   H14T12040   2.464   1.777   9.213 -0.1822  0.1519  0.1810
  115OSM   C15S12041   2.293   1.766   9.064 -0.2755  0.0667  0.0731
  115OSM   H15S12042   2.250   1.868   9.067 -0.1332  0.0920  1.9360
  115OSM   H15T12043   2.204   1.700   9.048 -1.1934  1.1906  0.4228
  115OSM   C16S12044   2.384   1.746   8.943 -0.2538  1.1176  0.1096
  115OSM   H16S12045   2.432   1.646   8.944 -1.7101  0.3869  0.8574
  115OSM   H16T12046   2.461   1.825   8.952  0.5782  0.1621  1.6340
  115OSM   C17S12047   2.318   1.756   8.803 -0.0464  0.4637 -0.2330
  115OSM   H17S12048   2.254   1.847   8.798  1.4793  1.5174 -2.2082
  115OSM   H17T12049   2.245   1.672   8.803  1.9896 -1.4112 -0.8656
  115OSM   C18S12050   2.410   1.728   8.680  1.1687 -0.3097  0.5367
  115OSM   H18S12051   2.457   1.627   8.682 -1.3208 -1.5283  0.3280
  115OSM   H18T12052   2.491   1.805   8.670  2.0558 -1.3473 -0.6952
  115OSM   H18U12053   2.352   1.726   8.585  0.8571 -1.2952  0.7412
  115OSM    C1F12054   2.589   2.212  10.300  0.6358 -0.2868 -0.3853
  115OSM     OF12055   2.683   2.230  10.378  0.5345 -0.4223  0.2235
  115OSM    C2F12056   2.592   2.256  10.159  0.2161 -0.4377  0.6662
  115OSM    H2F12057   2.678   2.324  10.149  1.2223 -1.7341  0.2514
  115OSM    H2G12058   2.494   2.304  10.137  0.6396  0.3777  0.5485
  115OSM    C3F12059   2.613   2.137  10.062 -0.3434 -0.6585  0.1630
  115OSM    H3F12060   2.531   2.062  10.061  0.3640 -1.4506 -0.0679
  115OSM    H3G12061   2.710   2.090  10.090  1.1122  1.6820 -0.6515
  115OSM    C4F12062   2.625   2.174   9.912 -0.1997  0.7069 -0.3002
  115OSM    H4F12063   2.694   2.261   9.903  0.1187  0.3091 -2.0616
  115OSM    H4G12064   2.524   2.186   9.869 -2.0853 -1.2194  3.1852
  115OSM    C5F12065   2.695   2.060   9.827 -0.2223  0.2600 -0.4387
  115OSM    H5F12066   2.631   1.969   9.829 -0.1164  0.1966  1.5396
  115OSM    H5G12067   2.795   2.034   9.869 -0.9568 -0.1711  1.1086
  115OSM    C6F12068   2.724   2.099   9.685  0.4554 -0.7125  0.6642
  115OSM    H6F12069   2.782   2.018   9.636  0.5119  0.0594 -0.6000
  115OSM    H6G12070   2.788   2.189   9.675  0.9368 -1.2817 -2.6662
  115OSM    C7F12071   2.607   2.150   9.597 -0.8460 -0.3083  0.0217
  115OSM    H7F12072   2.571   2.246   9.641 -0.0615  0.1255 -0.2774
  115OSM    H7G12073   2.523   2.079   9.615 -0.0052 -1.4484 -0.4695
  115OSM    C8F12074   2.640   2.176   9.445  0.2528  0.8749 -0.0774
  115OSM    H8F12075   2.736   2.232   9.446  0.8515 -0.1487  0.4577
  115OSM    H8G12076   2.565   2.248   9.407  0.7387  2.4310  1.7257
  115OSM    C9F12077   2.644   2.054   9.362 -0.8293  0.7544  0.8127
  115OSM    H9F12078   2.672   1.962   9.415 -4.2023 -0.7610  0.1989
  115OSM   C10F12079   2.615   2.050   9.231  0.3993 -0.6054 -0.8118
  115OSM   H10F12080   2.622   1.955   9.177 -1.1397 -1.0226 -0.3394
  115OSM   C11F12081   2.568   2.163   9.140 -0.1239  0.0549  0.1093
  115OSM   H11F12082   2.542   2.251   9.202 -0.1065  0.4507 -0.4468
  115OSM   H11G12083   2.479   2.135   9.080  1.2106 -1.1733 -1.4042
  115OSM   C12F12084   2.687   2.208   9.053  0.0376  0.5944  0.3507
  115OSM   H12F12085   2.770   2.239   9.121 -0.8337  0.6846  1.4119
  115OSM   H12G12086   2.657   2.292   8.987  2.4002  0.3954 -1.0792
  115OSM   C13F12087   2.745   2.092   8.967 -0.3625 -0.1985  0.1267
  115OSM   H13F12088   2.661   2.032   8.925  0.7272 -0.4264 -1.8792
  115OSM   H13G12089   2.806   2.027   9.032 -0.7614 -1.0912 -0.3720
  115OSM   C14F12090   2.824   2.130   8.840  1.5494 -0.5590 -0.1430
  115OSM   H14F12091   2.893   2.209   8.877 -0.1320  0.4696  0.8987
  115OSM   H14G12092   2.758   2.192   8.776  4.2668  1.5226 -1.1716
  115OSM   C15F12093   2.896   2.033   8.743  0.3397  0.0850 -0.1456
  115OSM   H15F12094   2.977   1.982   8.800  1.8301  0.1389 -2.1001
  115OSM   H15G12095   2.944   2.083   8.656  0.1534 -1.7186 -1.3402
  115OSM   C16F12096   2.815   1.921   8.673  0.9974  0.7545 -0.1314
  115OSM   H16F12097   2.733   1.969   8.616  0.1471  0.2527  0.6467
  115OSM   H16G12098   2.783   1.861   8.761 -0.4921 -1.6745 -2.2154
  115OSM   C17F12099   2.890   1.823   8.582  0.3102  0.0644 -0.2073
  115OSM   H17F12100   2.972   1.785   8.645  0.5058  1.9587  0.7454
  115OSM   H17G12101   2.923   1.872   8.488 -0.8317  0.1012 -0.6141
  115OSM   C18F12102   2.810   1.699   8.541 -0.3295 -0.7890  0.2381
  115OSM   H18F12103   2.749   1.710   8.449 -0.2559  1.8890  0.4089
  115OSM   H18G12104   2.732   1.685   8.619 -2.3309  1.8413 -1.1166
  115OSM   H18H12105   2.877   1.612   8.528  0.3692 -0.1787 -0.3139
  116OSM      N12106   6.332   1.006  11.027  0.0064 -0.2931 -0.0181
  116OSM    C1512107   6.185   0.987  11.062  0.4765  0.2146  0.1997
  116OSM   H15A12108   6.167   0.880  11.066  1.6736 -0.0992 -1.6087
  116OSM   H15B12109   6.120   1.015  10.980  0.6117 -1.8557 -0.6788
  116OSM   H15C12110   6.153   1.041  11.149  0.4461  0.7610 -0.1490
  116OSM    C1412111   6.378   1.156  11.044  0.3086  0.3298 -0.1000
  116OSM   H14A12112   6.326   1.222  10.976  0.7408  0.7945  0.0231
  116OSM   H14B12113   6.482   1.168  11.017 -0.5283  1.9907 -3.0328
  116OSM   H14C12114   6.371   1.184  11.147  2.4142 -0.2851  0.2576
  116OSM    C1312115   6.424   0.926  11.120  0.2957  0.0396  0.7013
  116OSM   H13A12116   6.413   0.959  11.222 -0.0876  1.2357  0.2869
  116OSM   H13B12117   6.528   0.935  11.095 -0.3499 -0.2118 -2.5302
  116OSM   H13C12118   6.397   0.821  11.111 -1.4760  0.6235 -2.8641
  116OSM    C1212119   6.347   0.964  10.881 -0.7757  0.3250 -0.7279
  116OSM   H12A12120   6.275   1.014  10.817 -1.4491  0.2162 -0.0670
  116OSM   H12B12121   6.327   0.858  10.883  2.3702 -0.3827  2.1406
  116OSM    C1112122   6.483   0.981  10.811 -0.0153  0.0757  0.3279
  116OSM   H11A12123   6.502   1.088  10.788  0.1178  0.7103  3.0703
  116OSM   H11B12124   6.483   0.928  10.713  2.3542  0.0636  0.2670
  116OSM      P12125   6.741   0.941  10.840 -0.8362  0.0709 -0.2407
  116OSM    O1312126   6.822   1.032  10.938 -0.0220  0.6261  0.4914
  116OSM    O1412127   6.790   0.802  10.828 -0.0223 -0.6504  0.1929
  116OSM    O1112128   6.736   1.005  10.700 -0.3767  0.6887  0.3070
  116OSM    O1212129   6.595   0.943  10.888  0.3978 -0.2584  0.2237
  116OSM    C1S12130   6.756   0.935  10.576  0.1357 -0.4164  0.0914
  116OSM    H1S12131   6.656   0.919  10.531  0.3032  0.7573 -0.7394
  116OSM    H1T12132   6.808   0.837  10.582  0.2833 -0.3693 -0.3712
  116OSM     NF12133   6.810   0.967  10.336  0.4654  0.0435  0.4394
  116OSM    HNF12134   6.869   0.893  10.305  0.6789  0.2418  0.3682
  116OSM    C2S12135   6.827   1.022  10.475 -0.5060 -0.7531 -0.3794
  116OSM    H2S12136   6.774   1.119  10.472  2.1477  0.7915 -1.7335
  116OSM    C3S12137   6.977   1.041  10.503 -1.1347 -0.8164  0.4780
  116OSM    H3S12138   7.021   0.939  10.503  0.8579 -0.0016  0.4601
  116OSM     O312139   6.999   1.095  10.632  0.3183 -0.3236 -0.3362
  116OSM    HO312140   6.918   1.063  10.675  1.7810 -3.5132  0.3761
  116OSM    C4S12141   7.049   1.127  10.403  0.1174  0.6320 -0.3805
  116OSM    H4S12142   7.030   1.236  10.405 -0.5937  0.5857 -2.2767
  116OSM    C5S12143   7.128   1.070  10.304  0.8151 -0.2024 -0.4873
  116OSM    H5S12144   7.150   0.962  10.303 -1.4472 -0.7789  1.6066
  116OSM    C6S12145   7.215   1.148  10.205  0.5613  0.2401 -0.4853
  116OSM    H6S12146   7.321   1.115  10.213 -0.2450 -2.4285  0.0317
  116OSM    H6T12147   7.213   1.258  10.223  0.4408 -0.1371  2.3430
  116OSM    C7S12148   7.178   1.100  10.069  0.2397  0.3858  0.2421
  116OSM    H7S12149   7.069   1.111  10.048  0.6589  0.5811 -2.0065
  116OSM    H7T12150   7.212   0.994  10.070 -0.7072  0.0367 -1.2757
  116OSM    C8S12151   7.247   1.185   9.957  0.0702  0.2072  0.1664
  116OSM    H8S12152   7.349   1.185  10.000  0.2336 -0.7203 -0.2037
  116OSM    H8T12153   7.202   1.287   9.956 -1.1282 -0.1454  3.4221
  116OSM    C9S12154   7.249   1.112   9.824 -0.1040 -0.0211 -0.4058
  116OSM    H9S12155   7.148   1.077   9.796 -0.6692  2.6895 -2.1757
  116OSM    H9T12156   7.307   1.018   9.834 -2.3768 -1.4346 -0.0291
  116OSM   C10S12157   7.308   1.204   9.716 -0.2655 -0.8304  0.0929
  116OSM   H10S12158   7.402   1.251   9.753  0.4111  0.3095 -2.8265
  116OSM   H10T12159   7.246   1.296   9.705  1.9921  0.6413 -1.1816
  116OSM   C11S12160   7.344   1.140   9.577  0.4727  0.9152  0.2111
  116OSM   H11S12161   7.252   1.094   9.536  1.3586 -0.2897 -0.5112
  116OSM   H11T12162   7.417   1.059   9.598  1.5373  2.4652  3.0057
  116OSM   C12S12163   7.389   1.245   9.483  0.1525 -0.3475 -0.8718
  116OSM   H12S12164   7.486   1.289   9.516 -1.1999  0.1754  2.8375
  116OSM   H12T12165   7.317   1.328   9.464  2.3317  1.3947 -2.2184
  116OSM   C13S12166   7.411   1.194   9.339 -0.4888 -0.0764  0.6594
  116OSM   H13S12167   7.315   1.150   9.304  0.2962 -0.1540 -1.4839
  116OSM   H13T12168   7.494   1.120   9.342  0.1410  0.5886 -0.0130
  116OSM   C14S12169   7.449   1.306   9.244  0.1461 -0.0721  0.0166
  116OSM   H14S12170   7.548   1.348   9.271  0.8276 -0.8328 -1.1863
  116OSM   H14T12171   7.373   1.387   9.248 -0.8060 -0.9769  0.8317
  116OSM   C15S12172   7.441   1.252   9.097 -0.2393  0.1478  0.2222
  116OSM   H15S12173   7.337   1.253   9.059 -0.6058 -1.5474  1.0829
  116OSM   H15T12174   7.480   1.149   9.089 -1.2642 -0.2792  0.5671
  116OSM   C16S12175   7.537   1.337   9.005 -0.3015  1.0821  0.8258
  116OSM   H16S12176   7.553   1.284   8.909  1.1910  2.0646  0.4997
  116OSM   H16T12177   7.631   1.327   9.062  0.4574 -0.4849 -0.6029
  116OSM   C17S12178   7.489   1.479   8.983 -0.4555  0.1480  0.3728
  116OSM   H17S12179   7.395   1.494   9.040 -0.7095  0.1604 -0.0475
  116OSM   H17T12180   7.476   1.492   8.873  1.9466 -1.0924 -0.1360
  116OSM   C18S12181   7.597   1.589   9.007  0.0914 -0.4654 -0.3524
  116OSM   H18S12182   7.688   1.554   8.955 -1.6798 -1.5563 -2.9475
  116OSM   H18T12183   7.620   1.603   9.115  1.5554 -1.8335 -0.4466
  116OSM   H18U12184   7.568   1.688   8.967 -1.6807 -0.7105  0.2212
  116OSM    C1F12185   6.699   0.983  10.270 -0.7578 -0.6260 -0.6321
  116OSM     OF12186   6.607   1.037  10.322  0.4807 -0.3560  0.1385
  116OSM    C2F12187   6.698   0.925  10.133 -0.0210 -0.4030  0.4136
  116OSM    H2F12188   6.677   0.816  10.143  0.5610 -0.6016 -0.4487
  116OSM    H2G12189   6.797   0.945  10.089  0.6903 -0.2349  2.0148
  116OSM    C3F12190   6.586   0.999  10.051 -0.2899 -0.0476  0.0130
  116OSM    H3F12191   6.604   1.109  10.046 -3.1515  0.5165  0.5742
  116OSM    H3G12192   6.484   0.991  10.093  0.8537 -1.2930  2.7960
  116OSM    C4F12193   6.581   0.937   9.905 -0.3170  0.5084 -0.6055
  116OSM    H4F12194   6.583   0.828   9.927  1.2156  0.7433  0.5367
  116OSM    H4G12195   6.683   0.954   9.864  0.4971 -1.4264  0.4983
  116OSM    C5F12196   6.477   0.992   9.818  0.3901  0.3261  0.0890
  116OSM    H5F12197   6.477   1.103   9.819  0.1158  0.4202 -2.6176
  116OSM    H5G12198   6.372   0.968   9.842  0.5934 -3.0090 -1.7849
  116OSM    C6F12199   6.495   0.944   9.669 -0.0281  0.0910 -0.7581
  116OSM    H6F12200   6.500   0.833   9.668  4.7151 -0.0610  2.8964
  116OSM    H6G12201   6.594   0.969   9.625  0.8411 -1.2162  0.3531
  116OSM    C7F12202   6.392   0.991   9.564 -0.3590 -0.0012 -0.4584
  116OSM    H7F12203   6.320   1.052   9.621  0.3415 -1.4034  2.1000
  116OSM    H7G12204   6.345   0.902   9.517 -0.4017  1.2457 -2.9189
  116OSM    C8F12205   6.451   1.084   9.460 -0.5139 -0.5802 -0.3894
  116OSM    H8F12206   6.527   1.038   9.394  1.1681  0.5717  0.6683
  116OSM    H8G12207   6.505   1.164   9.516 -1.5975  1.5097 -2.1650
  116OSM    C9F12208   6.349   1.147   9.376  0.3043 -0.2071 -0.3479
  116OSM    H9F12209   6.299   1.234   9.422 -1.7140 -0.6087 -1.6333
  116OSM   C10F12210   6.299   1.111   9.259 -0.1536  0.5004  0.8489
  116OSM   H10F12211   6.217   1.168   9.214  0.0857  0.8295  0.8288
  116OSM   C11F12212   6.346   0.996   9.182 -0.0560  0.3995  0.0681
  116OSM   H11F12213   6.269   0.917   9.184  0.1719  0.0720 -1.9301
  116OSM   H11G12214   6.433   0.945   9.227 -0.5958 -0.0564  0.6047
  116OSM   C12F12215   6.379   1.019   9.026 -0.1116 -0.0277 -0.6794
  116OSM   H12F12216   6.290   1.067   8.979 -0.7004 -0.4718 -0.0366
  116OSM   H12G12217   6.386   0.914   8.991  0.7958 -0.5462  0.9588
  116OSM   C13F12218   6.508   1.095   9.001  0.7871  0.4213  0.1248
  116OSM   H13F12219   6.583   1.037   9.058 -1.1980 -0.7781  1.6547
  116OSM   H13G12220   6.513   1.196   9.047 -2.9604  1.3318 -1.0668
  116OSM   C14F12221   6.530   1.119   8.856 -0.1225  0.3968  0.0501
  116OSM   H14F12222   6.454   1.190   8.817  0.2460  2.1234  2.2343
  116OSM   H14G12223   6.516   1.021   8.806 -0.9599 -0.1785  1.3472
  116OSM   C15F12224   6.673   1.178   8.839  0.2118 -0.1674  0.2648
  116OSM   H15F12225   6.749   1.105   8.876 -0.9439 -2.7306 -2.0614
  116OSM   H15G12226   6.682   1.268   8.904  1.0130 -0.9485  1.2726
  116OSM   C16F12227   6.714   1.218   8.694 -0.0006 -0.3183 -0.2096
  116OSM   H16F12228   6.642   1.293   8.655  1.5208  1.6543  0.6158
  116OSM   H16G12229   6.714   1.126   8.631 -0.7900 -0.4758  0.0089
  116OSM   C17F12230   6.861   1.274   8.698  0.6448 -0.4607  0.1154
  116OSM   H17F12231   6.928   1.206   8.753  1.4474  0.9939  1.0058
  116OSM   H17G12232   6.867   1.370   8.754  0.5035 -0.8321  0.7708
  116OSM   C18F12233   6.920   1.297   8.558 -0.0697 -0.1303  0.4770
  116OSM   H18F12234   6.936   1.208   8.493 -0.6938 -0.3508  0.6223
  116OSM   H18G12235   7.019   1.348   8.565  0.4433 -0.5617 -2.4456
  116OSM   H18H12236   6.845   1.353   8.499 -0.7168 -1.2640  0.1844
  117OSM      N12237   3.504   6.044  10.819  0.1246 -0.8563 -0.0547
  117OSM    C1512238   3.632   6.021  10.747  0.7535 -0.2983 -0.9408
  117OSM   H15A12239   3.715   6.000  10.813 -0.5272 -1.6236  0.3218
  117OSM   H15B12240   3.651   6.104  10.680  1.0128 -1.0752 -1.8643
  117OSM   H15C12241   3.620   5.936  10.681 -1.8524 -1.2275  0.6018
  117OSM    C1412242   3.489   5.950  10.934 -0.0165 -0.1017 -0.0011
  117OSM   H14A12243   3.419   5.995  11.002  1.7160  2.0930  0.4587
  117OSM   H14B12244   3.581   5.943  10.991 -0.1572 -0.5946  0.1727
  117OSM   H14C12245   3.450   5.851  10.917 -0.6397 -0.5077  3.1619
  117OSM    C1312246   3.510   6.181  10.873 -0.7175  0.7798  0.0868
  117OSM   H13A12247   3.413   6.211  10.909 -0.8393 -1.9039  2.3327
  117OSM   H13B12248   3.533   6.240  10.786 -0.2520 -1.3769 -1.3511
  117OSM   H13C12249   3.591   6.192  10.944  0.1356  0.7870 -0.8607
  117OSM    C1212250   3.390   6.036  10.710 -0.6712 -0.1509 -0.0028
  117OSM   H12A12251   3.394   5.947  10.648 -3.2801 -0.3242 -0.0344
  117OSM   H12B12252   3.412   6.115  10.641  0.4785  0.0245  0.5361
  117OSM    C1112253   3.242   6.044  10.763  0.0629 -0.1438  0.1923
  117OSM   H11A12254   3.219   5.948  10.812  1.9821 -0.9906 -0.4583
  117OSM   H11B12255   3.183   6.060  10.670  2.1569  0.1681 -1.1670
  117OSM      P12256   3.111   6.262  10.844 -0.0190  0.0936 -0.1864
  117OSM    O1312257   2.975   6.201  10.841 -0.7977 -0.1936  0.6257
  117OSM    O1412258   3.141   6.358  10.950  0.0675 -0.0648  0.0187
  117OSM    O1112259   3.144   6.320  10.705  0.0072  0.2411  0.1894
  117OSM    O1212260   3.221   6.150  10.852 -0.0924  0.3255  0.4346
  117OSM    C1S12261   3.276   6.359  10.663 -0.2374  0.5687  0.3129
  117OSM    H1S12262   3.350   6.278  10.680 -0.0276  0.9913  1.5016
  117OSM    H1T12263   3.311   6.449  10.718  0.8603  1.3281 -1.5384
  117OSM     NF12264   3.407   6.444  10.477  0.6346  0.0360  0.1397
  117OSM    HNF12265   3.410   6.542  10.460 -1.3359  0.5441  2.1078
  117OSM    C2S12266   3.281   6.388  10.508 -0.9808 -0.0536 -0.6252
  117OSM    H2S12267   3.265   6.290  10.459 -0.9710 -1.2067  1.5616
  117OSM    C3S12268   3.161   6.474  10.465  0.3447 -0.1459  0.0914
  117OSM    H3S12269   3.178   6.577  10.503  0.7170  0.6938 -2.1728
  117OSM     O312270   3.030   6.429  10.504  1.0571  0.2022 -0.6005
  117OSM    HO312271   3.052   6.367  10.574  2.6444  2.1470  0.7380
  117OSM    C4S12272   3.151   6.484  10.312  0.2169  0.0937  0.0866
  117OSM    H4S12273   3.100   6.397  10.269 -2.2830  1.6359 -0.2471
  117OSM    C5S12274   3.179   6.597  10.242 -0.0655 -0.4888 -0.0459
  117OSM    H5S12275   3.213   6.689  10.293 -1.7315  0.5224 -0.6632
  117OSM    C6S12276   3.180   6.612  10.092  0.1757 -0.1593  0.1751
  117OSM    H6S12277   3.286   6.612  10.059 -0.2558  2.8062 -1.5371
  117OSM    H6T12278   3.136   6.708  10.058  3.1575  0.9491 -0.8586
  117OSM    C7S12279   3.130   6.499  10.002 -0.3585  0.4830  0.2602
  117OSM    H7S12280   3.025   6.479  10.035 -0.1849  1.6268  1.6003
  117OSM    H7T12281   3.193   6.412  10.029  1.0598  0.6418 -2.2480
  117OSM    C8S12282   3.147   6.524   9.854  0.1279  0.4789  0.4844
  117OSM    H8S12283   3.150   6.424   9.805 -4.2109  0.1421  0.5136
  117OSM    H8T12284   3.251   6.563   9.851  0.0378  0.6440 -1.3224
  117OSM    C9S12285   3.041   6.611   9.793 -0.1888 -0.1143  0.5813
  117OSM    H9S12286   3.051   6.712   9.837 -0.8781 -0.2148  0.9833
  117OSM    H9T12287   2.938   6.574   9.815 -0.2616 -0.8385 -0.8906
  117OSM   C10S12288   3.074   6.616   9.647  0.2420 -0.5434 -0.1554
  117OSM   H10S12289   3.181   6.640   9.630 -0.5084  4.0084  0.1475
  117OSM   H10T12290   3.048   6.706   9.586  1.1859 -1.0704 -1.3854
  117OSM   C11S12291   3.031   6.501   9.564 -0.0306  0.1912  0.2505
  117OSM   H11S12292   2.923   6.484   9.584  0.0874 -0.4746  0.3363
  117OSM   H11T12293   3.088   6.420   9.613  0.3720 -1.6613 -2.9960
  117OSM   C12S12294   3.070   6.521   9.414 -0.4644 -0.1683  0.5230
  117OSM   H12S12295   3.178   6.544   9.420 -0.6063  0.1531  2.8513
  117OSM   H12T12296   3.019   6.609   9.368 -0.2476 -0.5014 -0.3786
  117OSM   C13S12297   3.037   6.399   9.324 -0.0255 -0.9050  0.1055
  117OSM   H13S12298   2.933   6.362   9.329 -0.4028 -0.9420 -4.1576
  117OSM   H13T12299   3.087   6.305   9.358  0.2434 -0.3833  1.1804
  117OSM   C14S12300   3.071   6.421   9.178  0.3312 -0.6739  0.1292
  117OSM   H14S12301   3.182   6.410   9.168  0.5401  1.6330 -0.7481
  117OSM   H14T12302   3.036   6.522   9.147  0.8957  0.0662  1.7644
  117OSM   C15S12303   3.009   6.303   9.102  0.3460 -0.3381 -0.7684
  117OSM   H15S12304   2.899   6.298   9.113  0.4255 -0.8440 -0.1679
  117OSM   H15T12305   3.039   6.206   9.148 -0.5943  0.2601  1.2086
  117OSM   C16S12306   3.041   6.295   8.952 -0.6697  0.0953 -0.6536
  117OSM   H16S12307   3.147   6.267   8.933 -0.8241 -1.0427  0.0335
  117OSM   H16T12308   3.020   6.395   8.908 -0.4764  1.8367  2.8148
  117OSM   C17S12309   2.963   6.188   8.883  0.2682 -0.1519  0.4187
  117OSM   H17S12310   2.855   6.212   8.881  0.3916  0.3408 -1.3521
  117OSM   H17T12311   2.964   6.094   8.944  0.1294  1.3639  2.9094
  117OSM   C18S12312   3.005   6.170   8.737 -0.3580 -0.6733 -0.6570
  117OSM   H18S12313   3.104   6.122   8.726  0.6881  1.0264  0.8253
  117OSM   H18T12314   3.014   6.269   8.688  1.4732 -0.1307  0.6526
  117OSM   H18U12315   2.943   6.101   8.676 -2.2230 -0.8067  1.2636
  117OSM    C1F12316   3.511   6.369  10.467 -0.2569  0.3867 -0.2764
  117OSM     OF12317   3.512   6.248  10.492 -0.2079 -0.0929 -0.3400
  117OSM    C2F12318   3.637   6.445  10.434 -0.1949 -0.2365 -0.0978
  117OSM    H2F12319   3.713   6.401  10.503 -0.5975 -1.8182 -0.6258
  117OSM    H2G12320   3.631   6.555  10.450 -1.1418 -0.3148  0.1156
  117OSM    C3F12321   3.675   6.414  10.287  0.0751 -0.1454  0.5044
  117OSM    H3F12322   3.685   6.303  10.288  2.6120  0.0184  1.3445
  117OSM    H3G12323   3.772   6.463  10.261 -1.1796  1.0975 -2.1625
  117OSM    C4F12324   3.568   6.450  10.184  0.0951 -1.1975  0.3283
  117OSM    H4F12325   3.547   6.559  10.178  1.3295 -1.0034 -0.9193
  117OSM    H4G12326   3.473   6.393  10.185 -1.2923  0.9452 -1.0914
  117OSM    C5F12327   3.620   6.425  10.039  0.3538 -1.0962  0.1099
  117OSM    H5F12328   3.649   6.319  10.055  0.3840 -0.9176  1.3581
  117OSM    H5G12329   3.707   6.494  10.033  0.3712 -1.2074 -1.0515
  117OSM    C6F12330   3.519   6.443   9.924 -0.0559 -0.2075 -0.9586
  117OSM    H6F12331   3.472   6.539   9.952 -2.9428 -1.5543 -0.8908
  117OSM    H6G12332   3.444   6.362   9.931  0.7924 -0.9181  0.3721
  117OSM    C7F12333   3.595   6.449   9.794 -0.5614  0.1214 -0.0429
  117OSM    H7F12334   3.610   6.341   9.772 -0.5230  0.0640  0.2711
  117OSM    H7G12335   3.701   6.481   9.791 -0.5581  0.2237  0.9117
  117OSM    C8F12336   3.511   6.512   9.691  0.2391 -0.1100  0.4570
  117OSM    H8F12337   3.579   6.543   9.609 -2.9478  1.3798 -1.8636
  117OSM    H8G12338   3.467   6.610   9.721  0.6923  1.4592 -3.3328
  117OSM    C9F12339   3.404   6.423   9.632  0.2018 -0.3312  0.3282
  117OSM    H9F12340   3.322   6.397   9.700 -1.0267  0.2348 -0.8846
  117OSM   C10F12341   3.403   6.376   9.506  0.3180 -0.0427 -0.9035
  117OSM   H10F12342   3.322   6.303   9.488 -0.7512  0.8861  0.0028
  117OSM   C11F12343   3.498   6.398   9.397  0.2062  0.3327  0.2073
  117OSM   H11F12344   3.599   6.428   9.432  0.4158  1.1486 -1.0374
  117OSM   H11G12345   3.465   6.480   9.330 -0.1543  1.9572  2.2637
  117OSM   C12F12346   3.518   6.257   9.329  0.2797 -0.4223 -0.1471
  117OSM   H12F12347   3.535   6.179   9.406 -0.0237 -0.3137  0.0307
  117OSM   H12G12348   3.606   6.267   9.261  0.3603 -0.4857 -0.0527
  117OSM   C13F12349   3.398   6.214   9.244 -0.2739  0.6554 -0.9786
  117OSM   H13F12350   3.364   6.295   9.176  0.6868  1.1793 -0.8616
  117OSM   H13G12351   3.323   6.190   9.322  0.1537  1.5163 -0.2886
  117OSM   C14F12352   3.411   6.080   9.167  0.5052 -0.1975  0.1949
  117OSM   H14F12353   3.442   5.993   9.227 -1.7624  0.0637  1.8615
  117OSM   H14G12354   3.478   6.096   9.080 -1.1419  3.1688 -0.6634
  117OSM   C15F12355   3.279   6.041   9.096 -0.4168  0.2784  0.9169
  117OSM   H15F12356   3.240   6.110   9.018  1.6590  1.0115  0.4410
  117OSM   H15G12357   3.208   6.041   9.181  1.1392  3.1608  2.4017
  117OSM   C16F12358   3.305   5.909   9.024 -0.0300  0.4352  0.0424
  117OSM   H16F12359   3.206   5.866   9.001  0.5895 -0.7486 -0.4873
  117OSM   H16G12360   3.349   5.829   9.087  0.5461 -0.0724 -0.9797
  117OSM   C17F12361   3.374   5.922   8.890 -0.3989 -0.2071 -0.6591
  117OSM   H17F12362   3.482   5.928   8.913 -0.1585 -0.4232 -1.6810
  117OSM   H17G12363   3.345   6.018   8.841  1.6780  0.3955 -0.7752
  117OSM   C18F12364   3.352   5.803   8.796 -0.2567 -0.0894 -0.9570
  117OSM   H18F12365   3.394   5.709   8.838 -1.4714 -0.3834 -0.3669
  117OSM   H18G12366   3.401   5.821   8.698  1.5527  0.5815  0.0062
  117OSM   H18H12367   3.242   5.794   8.786 -0.6914  2.4698  0.6468
  118OSM      N12368   4.505   4.098  11.059  0.0229 -0.4530 -0.8052
  118OSM    C1512369   4.624   4.083  11.152  0.4177  0.2678  0.3299
  118OSM   H15A12370   4.645   4.177  11.199  0.1434  0.9216 -0.8145
  118OSM   H15B12371   4.706   4.072  11.083 -0.4382  2.7352 -1.1888
  118OSM   H15C12372   4.611   4.011  11.232  0.2566 -1.7888 -1.4531
  118OSM    C1412373   4.475   3.974  10.994  0.4183 -0.6397 -0.1750
  118OSM   H14A12374   4.382   3.979  10.940  0.5300 -0.6765 -0.3735
  118OSM   H14B12375   4.458   3.891  11.060 -1.3850  2.5172  3.7812
  118OSM   H14C12376   4.551   3.952  10.920  1.0983  1.7540 -0.2778
  118OSM    C1312377   4.392   4.142  11.143 -0.2407  0.1046 -0.0568
  118OSM   H13A12378   4.419   4.218  11.216  1.0746 -0.5760  0.1863
  118OSM   H13B12379   4.361   4.060  11.206 -1.2134  2.0790  2.2057
  118OSM   H13C12380   4.311   4.164  11.075  0.9786  1.7421 -1.0486
  118OSM    C1212381   4.535   4.209  10.961  0.1061 -0.3340 -0.4148
  118OSM   H12A12382   4.560   4.298  11.016 -1.9166  1.3947 -2.1470
  118OSM   H12B12383   4.446   4.223  10.903 -0.4203 -4.2868 -0.8280
  118OSM    C1112384   4.651   4.194  10.853 -0.5362 -0.4525 -0.4847
  118OSM   H11A12385   4.627   4.270  10.776 -2.9854  1.2262  1.7245
  118OSM   H11B12386   4.648   4.088  10.820 -1.3716 -0.9543  1.0868
  118OSM      P12387   4.824   4.343  10.991 -0.5487  0.4387 -0.0769
  118OSM    O1312388   4.709   4.423  11.047  0.5044 -0.3976  0.7265
  118OSM    O1412389   4.928   4.299  11.081  0.0793 -0.6135 -0.3884
  118OSM    O1112390   4.889   4.418  10.862  0.7597 -0.5090 -0.1806
  118OSM    O1212391   4.771   4.212  10.927 -0.2137  0.1017  0.3855
  118OSM    C1S12392   4.802   4.505  10.777 -0.1110  0.2692 -0.4284
  118OSM    H1S12393   4.788   4.606  10.821 -2.6667  0.0516 -0.5904
  118OSM    H1T12394   4.700   4.465  10.762  0.5835 -1.1296 -1.6806
  118OSM     NF12395   4.758   4.613  10.561  0.1293 -0.0578  0.1169
  118OSM    HNF12396   4.682   4.571  10.512  0.9110 -1.8882  0.4044
  118OSM    C2S12397   4.848   4.519  10.624 -0.8569  0.7561  0.0768
  118OSM    H2S12398   4.943   4.576  10.634 -0.7981  0.6658  0.0393
  118OSM    C3S12399   4.863   4.378  10.565  0.1158  0.0585 -0.7192
  118OSM    H3S12400   4.764   4.329  10.569 -0.0493 -0.0130 -3.6140
  118OSM     O312401   4.951   4.291  10.637  0.4170  0.0795  0.6791
  118OSM    HO312402   4.918   4.298  10.727 -1.9292 -2.0942  0.1202
  118OSM    C4S12403   4.905   4.386  10.417  0.2248 -0.3032 -0.2062
  118OSM    H4S12404   4.814   4.387  10.355  2.0984  4.9844 -3.5205
  118OSM    C5S12405   5.023   4.376  10.353 -0.0370 -0.7234 -1.0375
  118OSM    H5S12406   5.117   4.375  10.410 -0.0295 -0.2635 -1.0400
  118OSM    C6S12407   5.046   4.384  10.208  0.2703 -0.2597  0.1741
  118OSM    H6S12408   5.112   4.304  10.168 -0.5347 -0.0833 -1.6109
  118OSM    H6T12409   5.109   4.476  10.203  0.5557 -0.3823  1.3127
  118OSM    C7S12410   4.920   4.384  10.123 -0.5430 -0.2045 -0.1314
  118OSM    H7S12411   4.855   4.472  10.146 -0.0654  0.0675  0.1999
  118OSM    H7T12412   4.864   4.291  10.147 -0.7891  0.4421  2.0444
  118OSM    C8S12413   4.940   4.385   9.966 -0.0083 -0.9861 -0.0595
  118OSM    H8S12414   4.996   4.294   9.937  1.5646 -0.3758  0.9170
  118OSM    H8T12415   5.002   4.473   9.937 -2.1870  0.7250  0.1970
  118OSM    C9S12416   4.815   4.381   9.891  0.4531 -0.3836  0.1701
  118OSM    H9S12417   4.768   4.481   9.906 -0.6263 -0.9622  0.8376
  118OSM    H9T12418   4.751   4.296   9.924  2.7916 -2.4896 -0.4912
  118OSM   C10S12419   4.856   4.365   9.746  0.5037 -1.0284 -0.1223
  118OSM   H10S12420   4.918   4.449   9.708  0.0474 -0.8061 -0.3871
  118OSM   H10T12421   4.766   4.380   9.682 -0.6982 -0.9345  1.5274
  118OSM   C11S12422   4.899   4.224   9.708  0.8641  0.0320  0.2132
  118OSM   H11S12423   4.826   4.155   9.756  1.1012 -0.1984  0.2443
  118OSM   H11T12424   5.004   4.205   9.738  0.7044 -0.4391  0.4802
  118OSM   C12S12425   4.877   4.211   9.555  0.5344  0.0820 -0.4964
  118OSM   H12S12426   4.916   4.302   9.506  0.5860  0.1678 -0.2968
  118OSM   H12T12427   4.772   4.182   9.533  0.6192 -0.0130 -0.7794
  118OSM   C13S12428   4.957   4.081   9.505 -0.0864 -0.8660  0.2334
  118OSM   H13S12429   4.941   4.000   9.579  0.9322 -0.2465  1.1672
  118OSM   H13T12430   5.064   4.112   9.505 -0.3376  0.3008 -2.3467
  118OSM   C14S12431   4.917   4.049   9.362 -1.0383 -0.6850 -0.1094
  118OSM   H14S12432   4.951   4.136   9.301 -0.2529 -0.6950  0.2957
  118OSM   H14T12433   4.806   4.040   9.364 -1.0075 -1.0443  1.9436
  118OSM   C15S12434   4.962   3.911   9.306 -0.0077  0.0147  0.0704
  118OSM   H15S12435   4.927   3.835   9.379  0.6187 -0.4538 -0.1133
  118OSM   H15T12436   5.071   3.913   9.329  0.2151  1.3869 -1.0136
  118OSM   C16S12437   4.926   3.889   9.161  0.4930  0.1005  0.9412
  118OSM   H16S12438   4.821   3.913   9.133  1.0324 -0.1699 -1.5213
  118OSM   H16T12439   4.950   3.780   9.157 -1.6620 -0.5341  2.9388
  118OSM   C17S12440   5.019   3.970   9.068  0.5098  0.2993  0.1987
  118OSM   H17S12441   5.127   3.942   9.073  0.0458 -1.5029  0.5683
  118OSM   H17T12442   5.018   4.076   9.101 -1.0698 -0.3361  2.3936
  118OSM   C18S12443   4.971   3.968   8.914  0.4143 -0.1896 -0.4477
  118OSM   H18S12444   4.862   3.988   8.922  0.6308  0.6522  0.6312
  118OSM   H18T12445   4.988   3.867   8.870  0.3611 -0.0343 -0.8261
  118OSM   H18U12446   5.025   4.044   8.854  2.0121 -0.1215  0.9700
  118OSM    C1F12447   4.756   4.746  10.582  0.2810 -0.4959  0.5515
  118OSM     OF12448   4.858   4.786  10.635 -0.1878 -0.6699  0.2290
  118OSM    C2F12449   4.634   4.822  10.566  0.2228  0.1941 -0.2487
  118OSM    H2F12450   4.596   4.877  10.655  0.7780 -0.8513  0.6559
  118OSM    H2G12451   4.556   4.757  10.521  1.6479 -0.0347 -2.5324
  118OSM    C3F12452   4.672   4.938  10.464 -0.0613  0.3309  0.3859
  118OSM    H3F12453   4.745   5.011  10.505 -0.1794  0.8370 -0.2752
  118OSM    H3G12454   4.573   4.988  10.451  0.7538  1.6625 -1.1120
  118OSM    C4F12455   4.718   4.902  10.325  0.2079 -0.6573  0.5365
  118OSM    H4F12456   4.825   4.874  10.334  0.6818  1.1148  0.8267
  118OSM    H4G12457   4.690   4.988  10.260 -0.9329  0.0606  1.9026
  118OSM    C5F12458   4.642   4.783  10.254 -0.1834 -0.1790 -0.0044
  118OSM    H5F12459   4.536   4.811  10.240  0.0837  0.4282 -0.9447
  118OSM    H5G12460   4.651   4.691  10.315 -1.2540 -0.8208 -0.8017
  118OSM    C6F12461   4.703   4.759  10.106  0.3744  0.6821 -0.9474
  118OSM    H6F12462   4.663   4.663  10.066 -0.2408  0.1080  0.9319
  118OSM    H6G12463   4.812   4.747  10.117  0.0744 -0.4838  1.5588
  118OSM    C7F12464   4.683   4.875  10.015  0.4809  0.1560 -0.1159
  118OSM    H7F12465   4.744   4.955  10.062 -0.7488 -0.1450  2.1008
  118OSM    H7G12466   4.579   4.914  10.008  0.1009 -0.7811  0.0801
  118OSM    C8F12467   4.726   4.844   9.870 -0.0423  0.3656 -0.2068
  118OSM    H8F12468   4.673   4.753   9.834  2.7616 -0.0257 -4.0476
  118OSM    H8G12469   4.835   4.822   9.871  0.2130  1.4145  2.3507
  118OSM    C9F12470   4.715   4.963   9.779 -0.2026 -0.1554 -0.2404
  118OSM    H9F12471   4.641   5.032   9.823 -0.7808 -1.4291  0.8677
  118OSM   C10F12472   4.769   4.972   9.657  0.3619  0.5305  0.4373
  118OSM   H10F12473   4.773   5.073   9.612  1.2451  0.2316 -0.1749
  118OSM   C11F12474   4.859   4.868   9.588  0.7044 -0.0745 -0.4338
  118OSM   H11F12475   4.907   4.805   9.666 -1.4784 -1.5354 -0.1664
  118OSM   H11G12476   4.933   4.923   9.527 -1.1427 -0.5440 -3.2496
  118OSM   C12F12477   4.787   4.777   9.495 -0.7886  0.5248 -0.4615
  118OSM   H12F12478   4.705   4.841   9.455  0.3721  1.4233 -1.4582
  118OSM   H12G12479   4.739   4.696   9.555  0.6107  0.2151  0.2913
  118OSM   C13F12480   4.862   4.711   9.380 -0.1529  0.0962 -0.8376
  118OSM   H13F12481   4.951   4.656   9.415 -1.7811 -1.9385  0.3071
  118OSM   H13G12482   4.903   4.783   9.306  1.1795  0.0020 -0.2120
  118OSM   C14F12483   4.762   4.622   9.312  0.7738 -0.0989 -0.0569
  118OSM   H14F12484   4.689   4.675   9.248 -1.7250 -1.7997  1.2285
  118OSM   H14G12485   4.700   4.566   9.385  0.7668  0.8100  0.6612
  118OSM   C15F12486   4.817   4.506   9.228 -0.2188  0.0159 -0.4021
  118OSM   H15F12487   4.887   4.440   9.283 -0.8392  1.4971  2.3780
  118OSM   H15G12488   4.889   4.542   9.152  1.8989 -2.0719  0.5020
  118OSM   C16F12489   4.706   4.427   9.155 -0.3144 -0.3548 -1.2303
  118OSM   H16F12490   4.646   4.496   9.093 -3.0528  0.0202  1.5821
  118OSM   H16G12491   4.645   4.386   9.239  2.0363 -0.9952  0.2729
  118OSM   C17F12492   4.766   4.304   9.084  0.4395  0.0433  0.9440
  118OSM   H17F12493   4.809   4.238   9.163 -1.1308 -1.2417  0.7798
  118OSM   H17G12494   4.855   4.342   9.029 -0.6671  1.9140  0.3651
  118OSM   C18F12495   4.678   4.222   8.989  0.6803 -0.2619 -0.0928
  118OSM   H18F12496   4.581   4.204   9.039  0.5017  2.2249  0.5778
  118OSM   H18G12497   4.725   4.123   8.971 -1.3853 -1.1020 -1.2534
  118OSM   H18H12498   4.659   4.268   8.889  1.4088  0.7023  0.1942
  119OSM      N12499   0.069   1.429  10.955  0.1214  0.4242 -0.1232
  119OSM    C1512500   0.169   1.317  10.926  0.0415 -0.7659 -0.4762
  119OSM   H15A12501   0.110   1.228  10.908 -0.8286 -0.7195  1.7895
  119OSM   H15B12502   0.224   1.308  11.019 -0.3563 -2.4049 -0.3749
  119OSM   H15C12503   0.235   1.338  10.844  0.7132 -1.0775 -0.0260
  119OSM    C1412504  -0.026   1.388  11.056  0.1891  0.1772 -0.0929
  119OSM   H14A12505  -0.078   1.475  11.093 -0.8456  0.4518 -2.0626
  119OSM   H14B12506   0.025   1.330  11.131 -0.0196 -0.4713 -0.4455
  119OSM   H14C12507  -0.098   1.325  11.006  2.2250 -2.0267 -0.4154
  119OSM    C1312508   0.152   1.542  11.006 -0.3462  0.1066  0.1503
  119OSM   H13A12509   0.188   1.526  11.107  0.3631  2.2324  0.2970
  119OSM   H13B12510   0.094   1.633  11.014  0.9693  0.9103  1.1099
  119OSM   H13C12511   0.238   1.582  10.954 -0.3646  2.2515  1.6379
  119OSM    C1212512   0.009   1.473  10.825 -0.0897  0.1064  0.1208
  119OSM   H12A12513   0.091   1.511  10.767  1.1534 -0.8007  1.2322
  119OSM   H12B12514  -0.039   1.570  10.832 -2.0261 -0.8357  0.7377
  119OSM    C1112515  -0.083   1.373  10.759  0.7791 -0.7243 -0.7702
  119OSM   H11A12516  -0.043   1.270  10.751 -0.4737 -1.1981 -1.1589
  119OSM   H11B12517  -0.093   1.396  10.651  2.4229 -0.6428 -0.9346
  119OSM      P12518  -0.330   1.462  10.816 -0.1103 -0.2735 -0.1804
  119OSM    O1312519  -0.437   1.433  10.914 -0.5497  0.3026  0.1560
  119OSM    O1412520  -0.277   1.602  10.806 -0.0071 -0.2348 -0.1582
  119OSM    O1112521  -0.378   1.421  10.671  0.1668  0.2564  0.1913
  119OSM    O1212522  -0.204   1.365  10.838 -0.1627 -0.2827 -0.1502
  119OSM    C1S12523  -0.381   1.284  10.625  0.4851  0.3293 -0.5424
  119OSM    H1S12524  -0.463   1.226  10.671  2.0426 -2.5584 -1.1356
  119OSM    H1T12525  -0.285   1.228  10.636 -1.1388 -2.9036 -1.3697
  119OSM     NF12526  -0.418   1.129  10.436 -0.3032  0.7845  0.1427
  119OSM    HNF12527  -0.334   1.086  10.405  0.5059  1.2903  1.5305
  119OSM    C2S12528  -0.419   1.270  10.474  0.4432 -0.7409  0.9069
  119OSM    H2S12529  -0.524   1.306  10.460  1.1524  0.2979 -3.1434
  119OSM    C3S12530  -0.336   1.353  10.382  0.2433 -0.0796 -0.1377
  119OSM    H3S12531  -0.231   1.316  10.389  0.1206 -0.5296 -0.6097
  119OSM     O312532  -0.326   1.495  10.410 -0.2333 -0.4673 -0.9198
  119OSM    HO312533  -0.372   1.509  10.494  0.4200 -1.5588 -0.3624
  119OSM    C4S12534  -0.386   1.330  10.239 -0.3254  0.5076 -0.1622
  119OSM    H4S12535  -0.362   1.229  10.201 -1.3746  0.5576 -1.0178
  119OSM    C5S12536  -0.465   1.406  10.158 -0.8528 -0.0900 -0.1058
  119OSM    H5S12537  -0.503   1.504  10.188 -0.6521  0.0186 -0.2020
  119OSM    C6S12538  -0.513   1.362  10.028 -0.2473 -0.2631 -0.4652
  119OSM    H6S12539  -0.472   1.265   9.995 -0.3789 -0.1784 -0.8797
  119OSM    H6T12540  -0.492   1.433   9.946  3.6126 -1.2508 -0.5199
  119OSM    C7S12541  -0.665   1.363  10.027 -0.4332  0.0208 -0.7197
  119OSM    H7S12542  -0.703   1.467  10.039  3.0499  1.3161  0.0950
  119OSM    H7T12543  -0.716   1.296  10.100 -1.3928  2.3506  0.9081
  119OSM    C8S12544  -0.714   1.316   9.890 -0.0938  0.2620  0.4615
  119OSM    H8S12545  -0.822   1.292   9.901 -0.5669  2.4701  1.2452
  119OSM    H8T12546  -0.661   1.222   9.863  2.1748  1.0818  1.7841
  119OSM    C9S12547  -0.693   1.425   9.786 -0.6245 -0.0457 -1.6367
  119OSM    H9S12548  -0.587   1.457   9.784 -0.5280 -0.1553  0.2155
  119OSM    H9T12549  -0.755   1.511   9.820  0.5725 -0.3451  1.7545
  119OSM   C10S12550  -0.732   1.379   9.645 -0.3584 -0.3045  0.4580
  119OSM   H10S12551  -0.838   1.346   9.639  0.8920 -4.7410 -1.5183
  119OSM   H10T12552  -0.676   1.289   9.613  0.7014 -0.4672  2.6122
  119OSM   C11S12553  -0.711   1.496   9.554 -0.0198  0.1377  0.6536
  119OSM   H11S12554  -0.602   1.521   9.556 -0.0838  0.3896  1.1499
  119OSM   H11T12555  -0.767   1.589   9.579 -1.3213 -0.7848  1.2371
  119OSM   C12S12556  -0.746   1.454   9.408  0.3820 -0.3514 -0.0169
  119OSM   H12S12557  -0.852   1.424   9.425  0.4486  0.4564  2.1388
  119OSM   H12T12558  -0.678   1.368   9.387 -0.6576 -0.4231 -3.7502
  119OSM   C13S12559  -0.729   1.572   9.317 -0.2317 -0.1548  0.3421
  119OSM   H13S12560  -0.647   1.643   9.343 -0.1567 -0.5676  1.2769
  119OSM   H13T12561  -0.821   1.631   9.333  0.2267  0.5057  0.6006
  119OSM   C14S12562  -0.714   1.540   9.165  0.5256 -0.2986  0.1188
  119OSM   H14S12563  -0.624   1.478   9.143  0.7990  0.2310 -0.2677
  119OSM   H14T12564  -0.708   1.630   9.101  1.4157 -1.2783 -1.2332
  119OSM   C15S12565  -0.828   1.454   9.105 -0.6114 -0.2352 -1.1491
  119OSM   H15S12566  -0.921   1.509   9.130  0.0444 -0.3308  2.0037
  119OSM   H15T12567  -0.830   1.359   9.163 -1.1947  0.2676 -0.3229
  119OSM   C16S12568  -0.824   1.415   8.958  0.5150  0.8491 -0.2132
  119OSM   H16S12569  -0.850   1.502   8.895 -1.9487  2.8604  3.2222
  119OSM   H16T12570  -0.892   1.328   8.949  1.7072  0.1116 -3.0404
  119OSM   C17S12571  -0.697   1.338   8.930  0.0762  0.0611 -0.6338
  119OSM   H17S12572  -0.685   1.254   9.002  2.2371  1.6412  0.9939
  119OSM   H17T12573  -0.602   1.393   8.943  1.4660 -2.2258 -0.5664
  119OSM   C18S12574  -0.696   1.273   8.792 -0.0477 -0.3020  0.4170
  119OSM   H18S12575  -0.788   1.213   8.775 -1.3722  1.9088 -0.6061
  119OSM   H18T12576  -0.604   1.218   8.763  0.3576  0.9182 -0.6798
  119OSM   H18U12577  -0.707   1.351   8.715  3.5446 -2.3675 -2.4665
  119OSM    C1F12578  -0.515   1.050  10.477 -0.3402  0.4314 -0.5778
  119OSM     OF12579  -0.624   1.088  10.531 -0.9222  0.3287  0.1080
  119OSM    C2F12580  -0.497   0.908  10.464  0.0297  0.9231 -0.1575
  119OSM    H2F12581  -0.575   0.851  10.520  1.3944  0.3836  1.2766
  119OSM    H2G12582  -0.398   0.883  10.509 -1.8495 -0.6283  3.5085
  119OSM    C3F12583  -0.500   0.848  10.314 -0.0527  0.0314 -0.0002
  119OSM    H3F12584  -0.480   0.739  10.317 -1.3790 -0.2327 -0.1369
  119OSM    H3G12585  -0.412   0.890  10.260  0.7875  0.3606  1.5658
  119OSM    C4F12586  -0.637   0.880  10.259 -0.3762  0.2839 -0.1988
  119OSM    H4F12587  -0.678   0.979  10.292 -1.0612 -0.3966  1.0710
  119OSM    H4G12588  -0.715   0.813  10.301 -1.8527  0.8093 -1.9909
  119OSM    C5F12589  -0.656   0.890  10.108  0.2705 -0.3638  0.4687
  119OSM    H5F12590  -0.634   0.793  10.060 -0.4815 -1.2156  1.7962
  119OSM    H5G12591  -0.578   0.963  10.078  1.0128  0.5191  4.0445
  119OSM    C6F12592  -0.802   0.929  10.076  0.2675 -0.5608 -0.3069
  119OSM    H6F12593  -0.796   1.039  10.094 -0.9183 -0.1920 -1.8703
  119OSM    H6G12594  -0.856   0.877  10.158  2.0963  0.8141  1.8983
  119OSM    C7F12595  -0.851   0.882   9.940 -0.1404 -0.1397  0.0025
  119OSM    H7F12596  -0.945   0.934   9.912  1.7067  1.4636 -3.9837
  119OSM    H7G12597  -0.883   0.777   9.955  1.9447 -0.7338  0.5393
  119OSM    C8F12598  -0.768   0.901   9.807 -0.0019 -0.2221  0.4522
  119OSM    H8F12599  -0.668   0.854   9.818  0.2204  0.2898  0.6783
  119OSM    H8G12600  -0.756   1.011   9.814  1.3575 -0.3624  0.5296
  119OSM    C9F12601  -0.819   0.848   9.678 -0.3647  0.4663  0.2633
  119OSM    H9F12602  -0.772   0.751   9.653 -0.5917  0.1535  1.0249
  119OSM   C10F12603  -0.928   0.890   9.614 -0.6500 -0.5841  0.6428
  119OSM   H10F12604  -0.954   0.838   9.521 -0.1527  0.1783  0.0588
  119OSM   C11F12605  -1.028   1.001   9.645 -0.3052 -0.3984  0.2199
  119OSM   H11F12606  -1.005   1.094   9.588  1.8040 -0.9765  0.0600
  119OSM   H11G12607  -1.011   1.040   9.747 -0.0425  0.0541  0.0100
  119OSM   C12F12608  -1.180   0.968   9.622 -0.4216 -0.0263  0.2558
  119OSM   H12F12609  -1.246   1.048   9.661 -1.4881 -1.2044  0.9762
  119OSM   H12G12610  -1.209   0.871   9.670 -0.0856 -0.3270 -0.1385
  119OSM   C13F12611  -1.211   0.957   9.469  0.8830 -0.1775  0.2540
  119OSM   H13F12612  -1.152   0.876   9.422  0.4634 -1.6750  2.1881
  119OSM   H13G12613  -1.193   1.059   9.428 -4.0871  1.3399  1.1479
  119OSM   C14F12614  -1.361   0.934   9.431 -0.1546  0.1100  0.2985
  119OSM   H14F12615  -1.414   0.991   9.511 -0.1420 -0.0262  0.4061
  119OSM   H14G12616  -1.383   0.826   9.443 -1.2350  0.1075 -1.3536
  119OSM   C15F12617  -1.413   0.976   9.296  0.5991 -0.3659 -0.4855
  119OSM   H15F12618  -1.410   1.087   9.291 -0.0627 -0.3326 -0.3211
  119OSM   H15G12619  -1.521   0.953   9.286  0.4805  0.2124 -0.6003
  119OSM   C16F12620  -1.342   0.916   9.181 -0.6562 -0.9360 -0.2803
  119OSM   H16F12621  -1.294   0.823   9.218  2.1714  1.1761  1.8482
  119OSM   H16G12622  -1.256   0.976   9.144  1.6769 -2.3480  2.4711
  119OSM   C17F12623  -1.435   0.874   9.069 -0.4229 -0.3315  0.0851
  119OSM   H17F12624  -1.465   0.959   9.004  0.7554 -0.5956 -0.8478
  119OSM   H17G12625  -1.521   0.817   9.109 -1.0035  0.2486 -0.3144
  119OSM   C18F12626  -1.372   0.772   8.970  0.2293 -0.3324 -0.2935
  119OSM   H18F12627  -1.442   0.715   8.905 -1.0775  0.0133  0.7810
  119OSM   H18G12628  -1.322   0.692   9.028 -0.2245  0.3257  1.0356
  119OSM   H18H12629  -1.300   0.824   8.903 -1.9042  2.2431 -0.7523
  120OSM      N12630   3.513   1.870  10.846  0.0962  0.0223  0.3973
  120OSM    C1512631   3.605   1.973  10.779 -0.8610 -0.3867 -0.3595
  120OSM   H15A12632   3.698   1.925  10.752 -1.1631 -0.8116 -0.6367
  120OSM   H15B12633   3.639   2.052  10.845 -0.1359 -1.8162  1.0617
  120OSM   H15C12634   3.567   2.026  10.693  2.3474 -1.3785 -2.5642
  120OSM    C1412635   3.595   1.768  10.910  0.4654  0.0141  0.1384
  120OSM   H14A12636   3.623   1.692  10.839  0.2536 -0.4828  0.5799
  120OSM   H14B12637   3.540   1.717  10.988  2.3051 -0.3903  1.2273
  120OSM   H14C12638   3.687   1.802  10.955 -0.4273 -0.7946  2.7376
  120OSM    C1312639   3.431   1.937  10.946  0.6469 -0.1194 -0.6664
  120OSM   H13A12640   3.487   1.971  11.032 -0.3024  1.4433 -0.6152
  120OSM   H13B12641   3.362   1.864  10.985 -1.1266  1.4120 -0.7432
  120OSM   H13C12642   3.372   2.019  10.906 -1.0889 -0.6270  0.7107
  120OSM    C1212643   3.427   1.810  10.728  0.0448 -0.8602 -1.5903
  120OSM   H12A12644   3.355   1.755  10.788  0.1945  1.6874  1.1413
  120OSM   H12B12645   3.486   1.736  10.676 -0.8651 -1.0960 -2.3178
  120OSM    C1112646   3.361   1.903  10.628  0.3009  0.1997 -0.3443
  120OSM   H11A12647   3.318   1.846  10.543  0.7417  0.8523 -1.0166
  120OSM   H11B12648   3.443   1.964  10.586  0.1860 -0.4414 -1.5453
  120OSM      P12649   3.121   1.929  10.718 -0.3827  0.1391 -0.4650
  120OSM    O1312650   3.138   1.799  10.790  0.3554 -0.2444  0.6958
  120OSM    O1412651   3.034   2.019  10.790 -0.2415 -0.7438 -0.8468
  120OSM    O1112652   3.074   1.897  10.573  0.1254 -0.2490 -0.0308
  120OSM    O1212653   3.266   1.992  10.689  0.7908  0.3012 -0.0916
  120OSM    C1S12654   3.036   2.013  10.497 -0.1838  0.3919  0.3991
  120OSM    H1S12655   3.125   2.074  10.471 -1.1456  1.4553 -0.5247
  120OSM    H1T12656   2.962   2.083  10.542  1.2032  1.8824  0.4822
  120OSM     NF12657   2.928   2.094  10.298  0.2760 -0.5816 -1.0183
  120OSM    HNF12658   2.843   2.140  10.322  1.2386  0.3379  0.8062
  120OSM    C2S12659   2.962   1.974  10.370  0.1424  0.1444  0.1816
  120OSM    H2S12660   3.032   1.922  10.301 -0.6387  0.6849 -1.0393
  120OSM    C3S12661   2.841   1.885  10.400  0.1059 -0.3805  0.1681
  120OSM    H3S12662   2.771   1.942  10.465  0.7511  1.8420 -0.9503
  120OSM     O312663   2.872   1.770  10.480  0.3256  0.1984 -0.0100
  120OSM    HO312664   2.950   1.793  10.531  0.3576  4.2445 -1.5155
  120OSM    C4S12665   2.779   1.850  10.268 -0.2113  0.1083  1.1833
  120OSM    H4S12666   2.709   1.926  10.230  0.4020  0.0708 -0.0754
  120OSM    C5S12667   2.803   1.737  10.191  0.9411  0.1719  0.2323
  120OSM    H5S12668   2.890   1.675  10.216  0.0866 -0.9185  0.5574
  120OSM    C6S12669   2.757   1.705  10.060 -0.2452 -0.1015 -1.1916
  120OSM    H6S12670   2.659   1.753  10.036  0.9227  3.1122 -0.0692
  120OSM    H6T12671   2.746   1.596  10.044  1.3701 -0.3776 -0.5140
  120OSM    C7S12672   2.857   1.731   9.945  0.0271 -1.0490  0.1854
  120OSM    H7S12673   2.945   1.670   9.974 -2.0428 -3.8801  0.9130
  120OSM    H7T12674   2.889   1.838   9.940  0.8744 -1.3190 -0.4614
  120OSM    C8S12675   2.788   1.696   9.806  0.5564 -0.3159  0.0928
  120OSM    H8S12676   2.691   1.749   9.799 -0.5298 -2.1280  0.8669
  120OSM    H8T12677   2.768   1.588   9.792  0.7375  0.0037 -3.5195
  120OSM    C9S12678   2.878   1.733   9.680  0.4553 -0.1145  0.1016
  120OSM    H9S12679   2.973   1.674   9.689  1.7052  1.7312 -0.4293
  120OSM    H9T12680   2.901   1.841   9.681 -1.3205  0.2982 -0.6145
  120OSM   C10S12681   2.795   1.709   9.549 -0.3974 -0.7798 -0.1718
  120OSM   H10S12682   2.701   1.766   9.558  1.0794  2.1578 -1.9195
  120OSM   H10T12683   2.776   1.599   9.552 -0.9833 -0.6674  1.0780
  120OSM   C11S12684   2.860   1.749   9.415  0.2100 -0.2262  0.6755
  120OSM   H11S12685   2.967   1.718   9.408  0.4335  0.3346  1.5685
  120OSM   H11T12686   2.866   1.859   9.407  1.2921 -0.3387 -0.4416
  120OSM   C12S12687   2.779   1.687   9.303  0.1944  0.1358 -0.6878
  120OSM   H12S12688   2.674   1.725   9.308 -0.3417 -1.2596 -0.8173
  120OSM   H12T12689   2.768   1.578   9.325 -0.3946  0.2448 -0.4155
  120OSM   C13S12690   2.844   1.705   9.168  0.0764 -0.1252 -0.1359
  120OSM   H13S12691   2.953   1.689   9.161 -0.2557 -2.1147 -3.0152
  120OSM   H13T12692   2.839   1.814   9.145 -0.8065 -0.2635 -0.6573
  120OSM   C14S12693   2.783   1.616   9.066  0.6403  0.1151  0.5256
  120OSM   H14S12694   2.689   1.661   9.027 -0.0645 -1.8591 -0.1463
  120OSM   H14T12695   2.755   1.522   9.116 -0.6412  0.2028  0.0077
  120OSM   C15S12696   2.865   1.586   8.939  0.1328  0.0780  0.1637
  120OSM   H15S12697   2.910   1.680   8.899 -0.6890  0.4295  0.0418
  120OSM   H15T12698   2.802   1.531   8.866  0.4693 -0.5085  0.3093
  120OSM   C16S12699   2.978   1.481   8.964  0.3637 -0.7386 -0.1377
  120OSM   H16S12700   2.927   1.385   8.939  1.9585 -1.5380 -0.4370
  120OSM   H16T12701   3.003   1.485   9.072  0.9155 -1.2515 -0.2441
  120OSM   C17S12702   3.095   1.512   8.863  0.9513 -0.0331  0.1944
  120OSM   H17S12703   3.141   1.607   8.899 -0.7500  1.0928 -0.4546
  120OSM   H17T12704   3.059   1.509   8.758  0.7501 -0.8870  0.2853
  120OSM   C18S12705   3.206   1.401   8.896  0.1999 -0.1631 -0.5147
  120OSM   H18S12706   3.308   1.441   8.879  0.1159 -0.2751 -1.3211
  120OSM   H18T12707   3.197   1.303   8.843 -0.7297  0.4536 -1.5512
  120OSM   H18U12708   3.205   1.385   9.005 -1.2138  0.6990 -0.3773
  120OSM    C1F12709   3.008   2.157  10.216 -0.1713 -0.8684  1.4195
  120OSM     OF12710   3.112   2.109  10.178 -0.1701  0.2798  1.0888
  120OSM    C2F12711   2.950   2.280  10.161  0.5158  0.5925 -0.1802
  120OSM    H2F12712   2.912   2.343  10.245 -2.9592  0.4910 -1.5153
  120OSM    H2G12713   2.859   2.266  10.099 -0.8326  1.5252  1.5015
  120OSM    C3F12714   3.047   2.369  10.081  0.3050  0.1453  0.3361
  120OSM    H3F12715   3.067   2.310   9.989  2.1725  1.7332 -0.3635
  120OSM    H3G12716   3.138   2.376  10.145 -1.2318 -1.1139  2.8076
  120OSM    C4F12717   2.981   2.501  10.036  0.9244 -0.0700 -0.2735
  120OSM    H4F12718   3.060   2.576  10.013 -0.6918  2.0397  0.6941
  120OSM    H4G12719   2.923   2.537  10.124  0.3727  0.8157 -0.9730
  120OSM    C5F12720   2.886   2.496   9.912  0.1854  0.5608  0.2545
  120OSM    H5F12721   2.835   2.594   9.913 -0.6127  0.2017  2.9644
  120OSM    H5G12722   2.804   2.424   9.931  1.2561 -0.3543  1.6138
  120OSM    C6F12723   2.948   2.473   9.776  0.2677 -0.0771 -0.0019
  120OSM    H6F12724   2.996   2.374   9.769 -1.5683 -0.9362 -1.1749
  120OSM    H6G12725   3.028   2.550   9.778 -1.1605  1.5039  1.7494
  120OSM    C7F12726   2.853   2.488   9.658 -0.5203  0.3874  0.0617
  120OSM    H7F12727   2.751   2.468   9.698 -1.2866  1.3624 -1.3214
  120OSM    H7G12728   2.880   2.406   9.589  0.9588 -2.5074  3.7179
  120OSM    C8F12729   2.863   2.633   9.598 -0.0324 -0.7177  0.2391
  120OSM    H8F12730   2.833   2.690   9.688 -0.8779  1.0444 -1.0824
  120OSM    H8G12731   2.776   2.653   9.531 -0.8340 -1.3191  1.0652
  120OSM    C9F12732   2.990   2.673   9.529  0.6286 -0.4748  0.5310
  120OSM    H9F12733   3.075   2.667   9.598  0.6895  2.0201  0.7715
  120OSM   C10F12734   3.010   2.708   9.400  0.3596 -1.1801  0.2053
  120OSM   H10F12735   3.113   2.736   9.371  0.8153 -1.2138  1.7177
  120OSM   C11F12736   2.903   2.729   9.292  0.6145  0.4996 -0.2904
  120OSM   H11F12737   2.931   2.793   9.206 -0.1483  0.0426 -0.8898
  120OSM   H11G12738   2.800   2.759   9.324  0.9282  0.5518  0.7044
  120OSM   C12F12739   2.860   2.588   9.225  0.4453 -0.2100 -0.2120
  120OSM   H12F12740   2.763   2.600   9.172  0.0171  0.4492  0.6920
  120OSM   H12G12741   2.825   2.519   9.305 -4.8617  2.5827  0.2959
  120OSM   C13F12742   2.963   2.526   9.133 -0.4950 -0.2694 -0.3853
  120OSM   H13F12743   2.921   2.434   9.087 -3.0967  0.3142  0.6400
  120OSM   H13G12744   3.064   2.505   9.174 -0.3486 -1.2981 -1.2582
  120OSM   C14F12745   2.971   2.620   9.008  0.1320  0.0991 -0.9005
  120OSM   H14F12746   3.037   2.705   9.037 -1.6559  0.7954  1.3890
  120OSM   H14G12747   2.874   2.664   8.979 -0.8012 -1.1324  0.2512
  120OSM   C15F12748   3.031   2.543   8.880  0.2262 -0.4557 -0.3784
  120OSM   H15F12749   2.968   2.454   8.865  1.9113 -1.8937  0.6275
  120OSM   H15G12750   3.137   2.510   8.893  0.3455 -1.0863 -2.5906
  120OSM   C16F12751   3.028   2.629   8.759  0.5746 -0.4107  0.4094
  120OSM   H16F12752   3.061   2.734   8.778 -1.1462  0.3346 -0.4736
  120OSM   H16G12753   2.923   2.644   8.727  0.4339 -2.4809 -0.2287
  120OSM   C17F12754   3.108   2.562   8.646 -0.8820  0.1363 -0.0486
  120OSM   H17F12755   3.067   2.465   8.612  1.9467 -1.9685  2.0645
  120OSM   H17G12756   3.204   2.531   8.692 -0.4477  3.0867  1.2521
  120OSM   C18F12757   3.148   2.643   8.527 -0.1359 -0.1288  0.4295
  120OSM   H18F12758   3.223   2.580   8.474  0.3988  0.7442  0.1280
  120OSM   H18G12759   3.186   2.746   8.545 -1.7138  0.5913 -0.1778
  120OSM   H18H12760   3.058   2.667   8.466  0.7265 -0.1136 -0.8885
  121OSM      N12761   4.030   6.362  11.227 -0.5883  0.2247 -0.3656
  121OSM    C1512762   4.036   6.394  11.368 -0.1046  0.5123 -0.4495
  121OSM   H15A12763   3.961   6.466  11.398  0.1118  0.1017  1.1650
  121OSM   H15B12764   4.134   6.432  11.393  0.1674  1.2044 -2.3543
  121OSM   H15C12765   4.016   6.305  11.426 -1.7122  1.4989  0.5901
  121OSM    C1412766   3.897   6.296  11.193  0.4287  0.0208 -0.2579
  121OSM   H14A12767   3.902   6.253  11.094 -0.2868 -1.1255  0.1794
  121OSM   H14B12768   3.818   6.369  11.182 -0.4496 -1.0093 -1.0182
  121OSM   H14C12769   3.867   6.215  11.258  0.9494  2.2397  2.9799
  121OSM    C1312770   4.038   6.490  11.150  0.4162  0.2003  0.0788
  121OSM   H13A12771   4.129   6.544  11.169  0.3103 -0.3111  2.3070
  121OSM   H13B12772   3.953   6.550  11.180 -0.8790 -1.6362  0.2875
  121OSM   H13C12773   4.022   6.475  11.044 -2.1172  2.1534  0.0873
  121OSM    C1212774   4.147   6.270  11.182 -0.0230 -0.7073 -0.3965
  121OSM   H12A12775   4.143   6.243  11.078 -1.8186 -0.3904 -0.4319
  121OSM   H12B12776   4.128   6.180  11.237 -3.3013 -0.1679 -0.4325
  121OSM    C1112777   4.287   6.328  11.216 -0.1306  0.0048 -0.1319
  121OSM   H11A12778   4.360   6.246  11.228  0.2834  0.2014 -1.1974
  121OSM   H11B12779   4.282   6.384  11.312 -0.2486  0.5741 -0.4646
  121OSM      P12780   4.479   6.467  11.103  0.0822  0.3262 -0.1291
  121OSM    O1312781   4.499   6.570  11.206  0.4344  0.4584 -0.1368
  121OSM    O1412782   4.570   6.348  11.116 -0.2045  0.1721  0.7851
  121OSM    O1112783   4.485   6.514  10.950 -0.5017  0.5040 -0.0115
  121OSM    O1212784   4.330   6.424  11.110 -0.0833 -0.1506 -0.3739
  121OSM    C1S12785   4.461   6.405  10.852 -0.1802  0.1795 -0.5288
  121OSM    H1S12786   4.375   6.341  10.879  0.3943 -0.9484 -1.2959
  121OSM    H1T12787   4.549   6.339  10.858  0.5262  1.2134  1.3454
  121OSM     NF12788   4.407   6.348  10.622  0.0992  0.2052 -0.0120
  121OSM    HNF12789   4.472   6.315  10.554 -0.0227 -2.3590  0.9954
  121OSM    C2S12790   4.444   6.462  10.708  0.6796  0.3479 -0.9175
  121OSM    H2S12791   4.360   6.535  10.710  1.4649  1.2763  0.9848
  121OSM    C3S12792   4.573   6.553  10.668  0.5847 -1.0996  0.0898
  121OSM    H3S12793   4.661   6.489  10.649  2.3279  1.3489 -0.6157
  121OSM     O312794   4.624   6.636  10.775 -0.4210  0.1127  0.2977
  121OSM    HO312795   4.575   6.606  10.852 -2.2602  0.2853 -0.7694
  121OSM    C4S12796   4.542   6.641  10.545 -0.0977 -0.3528 -0.8696
  121OSM    H4S12797   4.562   6.594  10.448 -0.0823 -2.0352 -0.0997
  121OSM    C5S12798   4.479   6.760  10.556  0.4698 -0.0772 -0.2468
  121OSM    H5S12799   4.473   6.801  10.658  2.2670 -1.8146  0.6209
  121OSM    C6S12800   4.452   6.851  10.438  0.1770 -0.4660  0.3449
  121OSM    H6S12801   4.495   6.951  10.461 -1.3926  0.3472 -0.1117
  121OSM    H6T12802   4.347   6.886  10.429  0.2163 -0.2218  0.8096
  121OSM    C7S12803   4.521   6.806  10.306 -0.2274  0.3894 -0.1582
  121OSM    H7S12804   4.474   6.713  10.267 -1.9233  0.5720  1.2966
  121OSM    H7T12805   4.624   6.769  10.327  0.0722  1.3322  0.0440
  121OSM    C8S12806   4.541   6.916  10.203  0.2683  0.0017  0.0671
  121OSM    H8S12807   4.583   7.000  10.263  2.0313  0.0952 -1.2163
  121OSM    H8T12808   4.445   6.934  10.151  0.5657  0.3208 -0.3820
  121OSM    C9S12809   4.644   6.889  10.091  0.6214 -0.1152  0.1075
  121OSM    H9S12810   4.737   6.874  10.149  1.3262  0.2205 -0.9019
  121OSM    H9T12811   4.653   6.978  10.026  1.7493  0.2198  0.6946
  121OSM   C10S12812   4.629   6.764  10.009 -0.5308  0.2421 -1.0083
  121OSM   H10S12813   4.597   6.679  10.073 -0.0883 -1.1943 -2.6201
  121OSM   H10T12814   4.721   6.731   9.956 -0.7418 -2.1338 -0.0513
  121OSM   C11S12815   4.513   6.774   9.909  0.5221 -0.2903 -0.3464
  121OSM   H11S12816   4.439   6.853   9.935  0.7430  0.0869 -0.8599
  121OSM   H11T12817   4.454   6.682   9.931  0.5586  0.2958  2.7234
  121OSM   C12S12818   4.537   6.782   9.764 -1.0584  0.2854  0.0097
  121OSM   H12S12819   4.605   6.866   9.742  0.6391 -1.0151  0.0528
  121OSM   H12T12820   4.440   6.794   9.712  0.0757 -1.2711 -2.7010
  121OSM   C13S12821   4.597   6.649   9.714  0.1264 -0.2218  0.6434
  121OSM   H13S12822   4.536   6.564   9.751 -1.6054  0.3634 -0.7382
  121OSM   H13T12823   4.699   6.630   9.753  0.5613  0.3368 -0.2030
  121OSM   C14S12824   4.585   6.640   9.561 -0.8301  0.2631 -0.0319
  121OSM   H14S12825   4.637   6.712   9.494  0.4712 -0.8269 -0.2422
  121OSM   H14T12826   4.477   6.627   9.542 -0.9441  0.3621  0.5133
  121OSM   C15S12827   4.647   6.507   9.506  0.1897 -0.9330 -0.3148
  121OSM   H15S12828   4.598   6.428   9.567  3.2012 -1.2610  1.9196
  121OSM   H15T12829   4.753   6.503   9.539  0.6227  4.1375 -0.4278
  121OSM   C16S12830   4.641   6.508   9.356  0.4235 -0.1170 -0.1797
  121OSM   H16S12831   4.702   6.588   9.308  1.2758 -0.1985  0.7267
  121OSM   H16T12832   4.542   6.537   9.317  1.0722  3.0128  0.2782
  121OSM   C17S12833   4.679   6.370   9.303  0.5299  0.0014 -0.6390
  121OSM   H17S12834   4.617   6.291   9.350  1.7943  0.5470  2.1485
  121OSM   H17T12835   4.780   6.345   9.342  0.0589  0.1730  0.7429
  121OSM   C18S12836   4.667   6.365   9.157  0.5924 -0.2715  0.9421
  121OSM   H18S12837   4.697   6.266   9.117 -1.5362 -1.1706  1.4400
  121OSM   H18T12838   4.733   6.448   9.123 -2.6024  1.0617 -2.8105
  121OSM   H18U12839   4.569   6.400   9.117  1.4424 -0.0826 -1.1372
  121OSM    C1F12840   4.285   6.291  10.628  0.9989  0.4829 -0.0513
  121OSM     OF12841   4.207   6.318  10.720 -0.3621  0.0289  0.3152
  121OSM    C2F12842   4.253   6.188  10.515  0.0881 -0.4039 -0.3929
  121OSM    H2F12843   4.256   6.090  10.566 -1.2412 -1.1851 -1.7294
  121OSM    H2G12844   4.326   6.208  10.434  0.6063  2.3149  0.6238
  121OSM    C3F12845   4.110   6.192  10.459 -0.2484 -0.1562  0.5488
  121OSM    H3F12846   4.092   6.295  10.419 -0.5376  0.2465  1.6724
  121OSM    H3G12847   4.039   6.185  10.544  0.0350 -5.0950  0.6329
  121OSM    C4F12848   4.071   6.083  10.356 -0.5479 -0.6277 -0.1454
  121OSM    H4F12849   4.023   5.995  10.403  0.6214 -1.7392 -0.9530
  121OSM    H4G12850   4.156   6.059  10.289  1.1644  1.8545  0.9548
  121OSM    C5F12851   3.960   6.145  10.260 -0.7461  0.1509 -0.5505
  121OSM    H5F12852   3.959   6.256  10.256 -0.3421  0.2330  1.0405
  121OSM    H5G12853   3.858   6.117  10.294 -0.2037 -0.4425  0.6551
  121OSM    C6F12854   3.988   6.105  10.121 -0.1167 -0.2877  0.0961
  121OSM    H6F12855   3.960   6.000  10.096  0.0120 -0.2355 -0.2840
  121OSM    H6G12856   4.097   6.117  10.104  0.3326 -1.7133  1.7152
  121OSM    C7F12857   3.916   6.189  10.014 -0.1807 -0.1212 -0.0119
  121OSM    H7F12858   3.928   6.295  10.047  0.1786 -0.1126 -0.1622
  121OSM    H7G12859   3.815   6.148   9.993 -0.0110 -0.5700  0.0330
  121OSM    C8F12860   3.983   6.185   9.872  1.0550  0.2697 -0.2824
  121OSM    H8F12861   4.086   6.221   9.858  1.2329  0.2377  0.8668
  121OSM    H8G12862   3.933   6.263   9.811 -1.1036 -1.2568 -0.6251
  121OSM    C9F12863   3.960   6.052   9.809  0.1537 -0.5291 -0.0872
  121OSM    H9F12864   4.022   5.967   9.842  1.4407  0.8627  1.2387
  121OSM   C10F12865   3.870   6.022   9.710 -0.7266 -0.3136 -0.0213
  121OSM   H10F12866   3.877   5.918   9.675 -0.1670  0.0187 -0.9190
  121OSM   C11F12867   3.772   6.110   9.635 -0.3050  0.0562 -0.0837
  121OSM   H11F12868   3.790   6.220   9.635  0.7300 -0.1042 -0.1361
  121OSM   H11G12869   3.666   6.095   9.664 -0.9339  2.2857 -0.9979
  121OSM   C12F12870   3.789   6.085   9.479 -0.0579 -0.3188  0.2532
  121OSM   H12F12871   3.896   6.103   9.456  0.6776 -1.2812  2.6226
  121OSM   H12G12872   3.744   6.178   9.437 -1.2611 -0.6760  0.7243
  121OSM   C13F12873   3.728   5.966   9.413  0.1225  0.0174 -0.3710
  121OSM   H13F12874   3.618   5.963   9.429  0.0882 -0.9751 -0.6975
  121OSM   H13G12875   3.765   5.872   9.460 -0.5257 -0.1638 -0.2143
  121OSM   C14F12876   3.751   5.962   9.261  0.2139 -0.1475  0.3613
  121OSM   H14F12877   3.861   5.967   9.244  0.4253 -2.0608  0.9764
  121OSM   H14G12878   3.699   6.044   9.207 -2.8177 -3.1857 -1.7347
  121OSM   C15F12879   3.693   5.831   9.213  1.0990  0.2409  0.4268
  121OSM   H15F12880   3.585   5.821   9.236  1.3661 -0.3696  1.4515
  121OSM   H15G12881   3.738   5.750   9.273 -0.2350 -0.9086 -0.0729
  121OSM   C16F12882   3.716   5.810   9.064  0.3761  0.8515  1.2440
  121OSM   H16F12883   3.826   5.809   9.051  0.3326  0.1807  0.8856
  121OSM   H16G12884   3.682   5.905   9.019  0.2262 -0.1178 -0.7892
  121OSM   C17F12885   3.660   5.679   9.001  0.5316  0.1892  0.1331
  121OSM   H17F12886   3.549   5.692   8.995  0.2204 -1.1962  1.9391
  121OSM   H17G12887   3.676   5.601   9.079  0.7319 -0.6086 -0.6867
  121OSM   C18F12888   3.723   5.643   8.869 -0.1537 -0.4356 -0.6123
  121OSM   H18F12889   3.826   5.605   8.885  0.0604  0.7112  1.0802
  121OSM   H18G12890   3.719   5.737   8.810  0.3771 -1.6240 -2.6383
  121OSM   H18H12891   3.655   5.571   8.819 -0.9267  0.4552 -0.8812
  122OSM      N12892   3.233   5.269  10.706  0.4453  0.6535  0.3685
  122OSM    C1512893   3.091   5.248  10.753 -1.0730  0.0644 -0.2654
  122OSM   H15A12894   3.051   5.175  10.684  3.1748 -2.1922 -0.6825
  122OSM   H15B12895   3.044   5.345  10.754  3.0677  2.2916  0.6097
  122OSM   H15C12896   3.090   5.198  10.849  1.3617  1.6571  0.6847
  122OSM    C1412897   3.227   5.293  10.554 -0.1108 -0.5975  0.2028
  122OSM   H14A12898   3.326   5.319  10.519  0.5401  0.8986  2.9060
  122OSM   H14B12899   3.158   5.375  10.537  0.8680  0.6390  1.9032
  122OSM   H14C12900   3.196   5.198  10.512 -0.3690  0.2204 -1.5752
  122OSM    C1312901   3.283   5.394  10.768  1.1053 -0.5464  0.1088
  122OSM   H13A12902   3.391   5.402  10.764  1.2248  2.0447  3.7750
  122OSM   H13B12903   3.259   5.395  10.873 -0.4931  1.3801 -0.2208
  122OSM   H13C12904   3.239   5.486  10.733  0.1210 -0.3118  1.8586
  122OSM    C1212905   3.317   5.149  10.741 -0.4223 -0.1527 -0.2004
  122OSM   H12A12906   3.272   5.066  10.687  0.2356  0.3112 -1.4971
  122OSM   H12B12907   3.303   5.109  10.840 -1.0248 -2.3298 -1.0798
  122OSM    C1112908   3.470   5.156  10.692 -0.0065  0.6553 -0.5272
  122OSM   H11A12909   3.475   5.190  10.586 -0.5692  1.4298 -0.3134
  122OSM   H11B12910   3.517   5.055  10.685 -0.4400  0.3762  0.4768
  122OSM      P12911   3.714   5.234  10.770  0.3501  0.4279 -0.2280
  122OSM    O1312912   3.778   5.341  10.849 -0.6023 -0.0130  0.1552
  122OSM    O1412913   3.754   5.101  10.806 -0.1269 -0.1062 -0.3124
  122OSM    O1112914   3.751   5.247  10.621  0.0441  0.1585 -0.9022
  122OSM    O1212915   3.556   5.244  10.770  0.3760 -0.8668 -0.3545
  122OSM    C1S12916   3.714   5.358  10.542  0.5381 -0.7052 -0.4029
  122OSM    H1S12917   3.746   5.454  10.587 -1.7954  0.1042 -0.3745
  122OSM    H1T12918   3.605   5.367  10.524  0.3477 -2.0745 -0.0285
  122OSM     NF12919   3.756   5.477  10.332  0.3573 -0.2718  0.0067
  122OSM    HNF12920   3.681   5.469  10.266  0.8605  4.7249 -1.5914
  122OSM    C2S12921   3.782   5.355  10.407 -0.3293  0.1635  0.0324
  122OSM    H2S12922   3.891   5.353  10.429  0.2479 -1.3322 -2.5798
  122OSM    C3S12923   3.751   5.221  10.332  0.2556  0.2659  0.3379
  122OSM    H3S12924   3.643   5.215  10.309  0.4555 -1.3387 -0.3374
  122OSM     O312925   3.774   5.100  10.405  0.3231 -0.4539 -0.7825
  122OSM    HO312926   3.771   5.120  10.499  1.1607 -2.5113 -0.2586
  122OSM    C4S12927   3.822   5.219  10.198 -0.6791 -0.1074 -0.2597
  122OSM    H4S12928   3.931   5.226  10.213 -0.8320 -0.0027  0.8860
  122OSM    C5S12929   3.777   5.216  10.077  0.4257 -0.2825  0.6326
  122OSM    H5S12930   3.667   5.219  10.073  0.3611 -1.9535  0.0974
  122OSM    C6S12931   3.860   5.223   9.952 -0.3587 -0.2287 -0.1558
  122OSM    H6S12932   3.917   5.129   9.933 -0.7781 -0.3157 -1.0262
  122OSM    H6T12933   3.919   5.317   9.947  0.0391 -0.5588 -2.3056
  122OSM    C7S12934   3.762   5.210   9.831 -0.1768 -0.7222 -0.3312
  122OSM    H7S12935   3.719   5.312   9.836  0.4367 -0.5213  1.7677
  122OSM    H7T12936   3.682   5.132   9.833  0.9439 -1.9094 -0.6877
  122OSM    C8S12937   3.828   5.205   9.695 -0.1913 -0.1913 -0.5771
  122OSM    H8S12938   3.847   5.098   9.670 -1.5371 -0.5960 -0.0038
  122OSM    H8T12939   3.924   5.260   9.703  0.0291 -0.1904 -2.7287
  122OSM    C9S12940   3.748   5.274   9.593 -0.1109 -0.1512  0.5273
  122OSM    H9S12941   3.743   5.383   9.610  1.3216 -0.1267  0.9461
  122OSM    H9T12942   3.643   5.237   9.593  0.6401 -2.6013 -1.6240
  122OSM   C10S12943   3.805   5.242   9.452 -0.5015  0.1368 -0.2460
  122OSM   H10S12944   3.843   5.138   9.440  2.7238  1.5053 -4.4899
  122OSM   H10T12945   3.890   5.312   9.440  1.5382 -0.6454  6.1028
  122OSM   C11S12946   3.708   5.279   9.343  0.1542  0.2899  0.1296
  122OSM   H11S12947   3.653   5.373   9.369  1.0726  0.3220  2.2170
  122OSM   H11T12948   3.626   5.204   9.343 -0.6116  0.9472  3.3000
  122OSM   C12S12949   3.767   5.276   9.203  0.3129 -0.6274  0.3616
  122OSM   H12S12950   3.834   5.190   9.182  0.3738 -0.0018 -2.4458
  122OSM   H12T12951   3.829   5.364   9.174 -2.4640  0.6854 -2.3065
  122OSM   C13S12952   3.654   5.273   9.098  0.6174 -0.2218 -0.3016
  122OSM   H13S12953   3.596   5.367   9.108 -0.9591 -1.1151 -0.6099
  122OSM   H13T12954   3.602   5.183   9.137  2.3033 -1.1362 -0.0835
  122OSM   C14S12955   3.707   5.249   8.957  0.0776  0.4447  0.1398
  122OSM   H14S12956   3.764   5.154   8.962  0.0883  0.4679  0.4930
  122OSM   H14T12957   3.766   5.337   8.925 -0.9284  0.2730 -2.4474
  122OSM   C15S12958   3.600   5.236   8.849 -0.0824  0.0241 -0.0746
  122OSM   H15S12959   3.550   5.334   8.834 -1.1199 -0.4403  0.2724
  122OSM   H15T12960   3.524   5.172   8.898 -2.9094  1.8943 -1.7444
  122OSM   C16S12961   3.649   5.173   8.723 -0.2558  0.5620 -0.3846
  122OSM   H16S12962   3.575   5.098   8.690  1.3580 -0.4987 -1.7782
  122OSM   H16T12963   3.739   5.111   8.741 -2.1950 -1.8189  1.8320
  122OSM   C17S12964   3.685   5.275   8.614 -0.4811 -0.3868  0.5351
  122OSM   H17S12965   3.733   5.214   8.534  0.7788  1.5993 -0.3276
  122OSM   H17T12966   3.755   5.357   8.643 -1.4682  0.0462  1.7681
  122OSM   C18S12967   3.565   5.350   8.545 -0.0940  0.5155  0.4821
  122OSM   H18S12968   3.509   5.414   8.616 -0.0270  1.5028 -0.3249
  122OSM   H18T12969   3.501   5.275   8.493  1.6109 -0.9525  0.4216
  122OSM   H18U12970   3.607   5.415   8.465  0.4559  0.5766  0.8182
  122OSM    C1F12971   3.813   5.595  10.359 -0.0570  0.2967  0.4932
  122OSM     OF12972   3.890   5.607  10.449 -0.2564  0.1344  0.2637
  122OSM    C2F12973   3.766   5.712  10.276  0.0498  0.0203 -0.1791
  122OSM    H2F12974   3.754   5.786  10.358  1.5848 -1.5740  1.5965
  122OSM    H2G12975   3.664   5.698  10.236 -0.5092  0.6605  0.9673
  122OSM    C3F12976   3.874   5.758  10.171  0.0817  0.2378 -0.1509
  122OSM    H3F12977   3.965   5.786  10.228 -1.0314  1.8074  0.9322
  122OSM    H3G12978   3.829   5.843  10.118  0.1598  0.2000 -0.2768
  122OSM    C4F12979   3.908   5.658  10.059 -0.7519 -0.2211  0.7107
  122OSM    H4F12980   3.822   5.633   9.994  0.5747 -0.9199 -0.8637
  122OSM    H4G12981   3.953   5.564  10.098 -1.0911 -2.1500 -3.0292
  122OSM    C5F12982   4.023   5.703   9.965 -0.1349  0.5291  0.1463
  122OSM    H5F12983   4.110   5.716  10.032  0.6115  0.2978 -0.7598
  122OSM    H5G12984   3.997   5.805   9.927  0.0545  1.2586  1.8730
  122OSM    C6F12985   4.058   5.610   9.847  0.3282 -0.4181 -0.1405
  122OSM    H6F12986   4.042   5.506   9.883 -1.3059 -0.4426 -0.8744
  122OSM    H6G12987   4.168   5.614   9.830  0.2211  1.1584 -0.6024
  122OSM    C7F12988   3.974   5.634   9.724  0.1710  0.0982 -0.5248
  122OSM    H7F12989   3.973   5.742   9.701  1.8449  0.5900  1.4342
  122OSM    H7G12990   3.870   5.607   9.752  0.0806  1.0803  0.1454
  122OSM    C8F12991   4.022   5.548   9.598  0.3254 -0.8026  0.9981
  122OSM    H8F12992   4.005   5.438   9.603  0.5717 -0.9038 -0.1292
  122OSM    H8G12993   4.132   5.567   9.598 -0.0493  1.7831  0.4544
  122OSM    C9F12994   3.964   5.604   9.473 -0.0171 -0.1699 -0.7318
  122OSM    H9F12995   3.858   5.628   9.490  0.6015  1.5008  1.2347
  122OSM   C10F12996   4.024   5.615   9.355 -0.0763  0.0777 -0.1414
  122OSM   H10F12997   3.973   5.666   9.272  0.7099  1.0000 -0.0783
  122OSM   C11F12998   4.164   5.580   9.306  0.2594 -0.1004  0.4157
  122OSM   H11F12999   4.227   5.529   9.382 -1.3197  0.7829  2.4161
  122OSM   H11G13000   4.211   5.679   9.286 -2.8661  1.4933  0.3756
  122OSM   C12F13001   4.162   5.500   9.176 -0.5402  0.4614  0.0862
  122OSM   H12F13002   4.255   5.533   9.124  0.0724 -3.1730 -1.3952
  122OSM   H12G13003   4.082   5.522   9.102 -1.4366  0.5925  1.0719
  122OSM   C13F13004   4.162   5.351   9.207 -0.4017  0.2370  0.5079
  122OSM   H13F13005   4.061   5.317   9.239 -0.5791  1.8774  1.8179
  122OSM   H13G13006   4.238   5.336   9.287 -1.1807  0.2597  1.2608
  122OSM   C14F13007   4.187   5.265   9.082 -0.8482 -0.3627 -0.4456
  122OSM   H14F13008   4.172   5.156   9.099 -0.6388 -0.1897  0.9605
  122OSM   H14G13009   4.291   5.267   9.044 -0.8727  1.6504 -0.5047
  122OSM   C15F13010   4.104   5.312   8.961  0.6250 -0.0576 -0.1942
  122OSM   H15F13011   4.125   5.419   8.941 -0.6603  0.4181  0.8082
  122OSM   H15G13012   3.998   5.300   8.993  0.5848 -0.7589 -0.5821
  122OSM   C16F13013   4.124   5.231   8.831 -0.9172 -0.2327  0.3643
  122OSM   H16F13014   4.113   5.122   8.851 -0.6629 -1.2637 -4.0958
  122OSM   H16G13015   4.231   5.234   8.802 -0.5113 -0.4923  1.7225
  122OSM   C17F13016   4.041   5.264   8.706  0.1250  0.2405  0.0488
  122OSM   H17F13017   4.052   5.373   8.683  0.4315  0.6030  1.7525
  122OSM   H17G13018   3.932   5.253   8.723  0.0689 -2.6029 -1.6456
  122OSM   C18F13019   4.071   5.178   8.588 -0.0197 -0.2270  0.1203
  122OSM   H18F13020   4.020   5.205   8.492  1.0164  0.0779 -0.3526
  122OSM   H18G13021   4.035   5.074   8.602 -0.8928 -0.0820 -0.8660
  122OSM   H18H13022   4.180   5.174   8.567  0.0899 -2.0251  0.8895
  123OSM      N13023   0.763   3.328   5.546  0.0717  0.4790  0.5465
  123OSM    C1513024   0.824   3.279   5.416 -0.0680  0.1832  0.1149
  123OSM   H15A13025   0.888   3.193   5.433 -0.9533 -0.3151  1.0324
  123OSM   H15B13026   0.874   3.358   5.361 -0.0057  0.2318  0.2403
  123OSM   H15C13027   0.743   3.255   5.348  0.3276  2.9014 -1.4712
  123OSM    C1413028   0.663   3.436   5.521 -0.5350  0.3247 -0.5568
  123OSM   H14A13029   0.713   3.530   5.501 -0.5306  0.5108  0.2962
  123OSM   H14B13030   0.614   3.450   5.616  0.4672  3.5297 -0.3657
  123OSM   H14C13031   0.582   3.432   5.450 -1.4024  0.2274  0.4292
  123OSM    C1313032   0.686   3.207   5.593  0.0660 -0.4309 -0.0543
  123OSM   H13A13033   0.741   3.115   5.608  2.3336  0.4553 -2.2451
  123OSM   H13B13034   0.595   3.185   5.539 -0.2605 -1.8147  1.0032
  123OSM   H13C13035   0.642   3.228   5.690 -0.0799  0.7311 -0.3632
  123OSM    C1213036   0.864   3.373   5.650  0.9212  0.4496 -0.2527
  123OSM   H12A13037   0.903   3.468   5.615  0.4638  1.8191  2.6770
  123OSM   H12B13038   0.940   3.300   5.672  0.1598 -0.2808  0.0239
  123OSM    C1113039   0.814   3.395   5.804  0.2341 -0.0881 -0.3004
  123OSM   H11A13040   0.723   3.459   5.809  1.3973  1.6401 -0.4746
  123OSM   H11B13041   0.896   3.455   5.849 -1.4994  1.2090  1.3203
  123OSM      P13042   0.894   3.156   5.898  0.2379 -0.0138 -0.0937
  123OSM    O1313043   0.821   3.031   5.901  0.7825  0.0379 -0.1776
  123OSM    O1413044   1.009   3.165   5.806  0.1387 -0.1367 -0.0115
  123OSM    O1113045   0.949   3.182   6.049  0.1039  0.0646  0.0414
  123OSM    O1213046   0.791   3.276   5.872  0.0394 -0.1865 -0.6221
  123OSM    C1S13047   0.872   3.230   6.160 -0.2798  0.2352 -1.0397
  123OSM    H1S13048   0.841   3.140   6.219 -0.4318 -0.4780 -2.1833
  123OSM    H1T13049   0.789   3.302   6.143  0.9539  2.3985  1.3501
  123OSM     NF13050   0.886   3.327   6.392  0.2059  0.3138 -0.0129
  123OSM    HNF13051   0.832   3.409   6.406  1.5259  0.8941  2.0500
  123OSM    C2S13052   0.959   3.313   6.261  0.3871  0.2400 -0.0286
  123OSM    H2S13053   1.046   3.250   6.288 -1.4680 -2.5446 -0.0487
  123OSM    C3S13054   1.001   3.447   6.197  0.3341 -0.2469 -0.6609
  123OSM    H3S13055   0.910   3.496   6.155 -2.3747 -0.1324  4.4979
  123OSM     O313056   1.092   3.441   6.084 -0.0297 -0.3785 -0.2870
  123OSM    HO313057   1.084   3.348   6.061  1.5083 -0.6351  0.1042
  123OSM    C4S13058   1.066   3.538   6.300 -1.0557  0.4751 -0.1437
  123OSM    H4S13059   1.168   3.513   6.330 -0.5663  0.6038 -1.6019
  123OSM    C5S13060   1.015   3.654   6.339 -0.1122 -0.0856  0.3916
  123OSM    H5S13061   0.916   3.679   6.299  0.6673  0.0118 -1.5462
  123OSM    C6S13062   1.073   3.748   6.440 -0.0077 -0.8457 -0.1733
  123OSM    H6S13063   0.995   3.778   6.513  0.5069  1.0794 -0.3634
  123OSM    H6T13064   1.093   3.845   6.391 -2.2950  0.5430  1.4914
  123OSM    C7S13065   1.199   3.699   6.518 -0.0589  0.9188 -0.7258
  123OSM    H7S13066   1.282   3.669   6.451 -1.1894 -0.7090 -1.4892
  123OSM    H7T13067   1.178   3.603   6.571 -0.7157  1.0611 -0.7148
  123OSM    C8S13068   1.243   3.793   6.626 -0.4412 -0.4938  0.0278
  123OSM    H8S13069   1.161   3.820   6.696 -1.2664  0.9275 -1.4156
  123OSM    H8T13070   1.269   3.893   6.584 -3.0132 -0.2520 -1.1623
  123OSM    C9S13071   1.372   3.742   6.694  0.0865 -0.8551 -0.2819
  123OSM    H9S13072   1.454   3.727   6.621  1.4543 -1.8927  1.3944
  123OSM    H9T13073   1.354   3.642   6.739  3.6262 -0.9981  1.1439
  123OSM   C10S13074   1.427   3.840   6.796 -0.1860  0.8561 -0.1546
  123OSM   H10S13075   1.412   3.947   6.770  0.9914  0.9819 -0.3450
  123OSM   H10T13076   1.537   3.834   6.798 -0.1389  1.5226 -0.2501
  123OSM   C11S13077   1.360   3.808   6.932 -0.0435  0.1249 -0.4541
  123OSM   H11S13078   1.356   3.698   6.946  1.1951  0.1819  0.5563
  123OSM   H11T13079   1.251   3.829   6.925 -0.3463  0.5997  3.3562
  123OSM   C12S13080   1.408   3.891   7.048  0.2635 -0.4931  0.4545
  123OSM   H12S13081   1.406   4.001   7.030 -1.3638 -0.6603 -0.6337
  123OSM   H12T13082   1.509   3.856   7.079  0.1249 -2.5422 -1.1931
  123OSM   C13S13083   1.328   3.872   7.181 -0.2395  0.2077  0.7186
  123OSM   H13S13084   1.350   3.771   7.221 -1.6419 -0.3710  0.0994
  123OSM   H13T13085   1.218   3.884   7.174 -0.3871 -0.9734  0.7662
  123OSM   C14S13086   1.379   3.970   7.288 -0.5627  0.2667 -0.4388
  123OSM   H14S13087   1.399   4.071   7.247  1.2661 -0.3491 -1.1709
  123OSM   H14T13088   1.480   3.934   7.318 -0.2973  0.9092 -0.5377
  123OSM   C15S13089   1.310   3.976   7.426 -0.0198  0.1505 -0.5922
  123OSM   H15S13090   1.213   4.029   7.424  0.2234  0.6486  0.1623
  123OSM   H15T13091   1.373   4.040   7.491 -1.3601  1.8805 -0.9200
  123OSM   C16S13092   1.284   3.838   7.494 -0.2214 -0.3642 -0.7311
  123OSM   H16S13093   1.377   3.785   7.520 -0.3592  0.7774  2.5194
  123OSM   H16T13094   1.243   3.767   7.419 -0.1410 -2.1349  0.8242
  123OSM   C17S13095   1.199   3.837   7.624 -0.6801 -0.5936  0.5798
  123OSM   H17S13096   1.194   3.733   7.663  1.0870 -0.9386 -0.0319
  123OSM   H17T13097   1.103   3.883   7.590  0.1875  0.6312 -0.3545
  123OSM   C18S13098   1.258   3.928   7.733  0.2796  0.1365 -0.2535
  123OSM   H18S13099   1.173   3.968   7.792  0.4185  0.0618 -0.0003
  123OSM   H18T13100   1.319   4.008   7.686 -1.2675  0.6336 -1.4929
  123OSM   H18U13101   1.322   3.866   7.799  1.7309  0.5866 -1.1987
  123OSM    C1F13102   0.879   3.236   6.484 -1.2377  0.5519 -0.9687
  123OSM     OF13103   0.914   3.119   6.477  0.1412 -0.3989 -0.0643
  123OSM    C2F13104   0.828   3.298   6.615 -0.2527 -0.1112  0.3670
  123OSM    H2F13105   0.768   3.214   6.655 -2.6014  1.3284  0.0379
  123OSM    H2G13106   0.761   3.383   6.589  0.9226  0.8056  0.2444
  123OSM    C3F13107   0.939   3.347   6.712  0.1845 -0.0619  0.2793
  123OSM    H3F13108   1.039   3.348   6.664  0.2272 -1.5649  0.2734
  123OSM    H3G13109   0.934   3.273   6.796 -1.4372  0.0606  0.3175
  123OSM    C4F13110   0.912   3.497   6.752 -0.6053  0.4239 -0.3978
  123OSM    H4F13111   0.803   3.499   6.774 -0.9388 -1.1957 -1.7461
  123OSM    H4G13112   0.940   3.560   6.664  1.1351  0.7415  0.3370
  123OSM    C5F13113   0.996   3.556   6.872  0.7258  0.7503 -0.8487
  123OSM    H5F13114   0.988   3.666   6.888 -4.2172  0.4643  0.5036
  123OSM    H5G13115   1.099   3.521   6.853  0.0844 -1.7910 -0.0481
  123OSM    C6F13116   0.946   3.503   7.011 -0.0440 -0.5491  0.8053
  123OSM    H6F13117   0.930   3.393   7.018  1.2614 -0.8372 -0.4229
  123OSM    H6G13118   0.846   3.549   7.025 -0.5313 -1.3798  0.0876
  123OSM    C7F13119   1.045   3.545   7.124  0.1346  0.1269 -0.5504
  123OSM    H7F13120   1.056   3.654   7.103 -2.7886  1.0247  1.9333
  123OSM    H7G13121   1.147   3.509   7.099  0.7597  1.4684 -0.0695
  123OSM    C8F13122   0.998   3.522   7.269  0.5339 -0.1391  0.4700
  123OSM    H8F13123   0.889   3.507   7.259  0.7186 -0.8378 -0.5737
  123OSM    H8G13124   1.029   3.612   7.327 -0.3818  0.0343  0.7049
  123OSM    C9F13125   1.060   3.391   7.322  0.1721 -0.0805  0.2049
  123OSM    H9F13126   1.095   3.324   7.242 -1.9170 -0.8304 -0.1260
  123OSM   C10F13127   1.070   3.346   7.448  0.1069  0.1340 -0.2611
  123OSM   H10F13128   1.113   3.247   7.468  0.7148  0.4997  0.2850
  123OSM   C11F13129   1.013   3.429   7.556 -0.0280  0.4251  0.2130
  123OSM   H11F13130   1.013   3.540   7.544 -1.0495  0.4716  0.5649
  123OSM   H11G13131   1.076   3.411   7.646 -0.1256  2.5222  0.7710
  123OSM   C12F13132   0.874   3.393   7.580 -0.1785  0.7914 -0.0280
  123OSM   H12F13133   0.873   3.292   7.628  0.9229  1.1756  0.8569
  123OSM   H12G13134   0.813   3.387   7.487  1.8371  0.2172 -1.3962
  123OSM   C13F13135   0.796   3.481   7.684 -0.6655  0.2893  0.7516
  123OSM   H13F13136   0.688   3.457   7.689 -0.8712  1.4200  3.2574
  123OSM   H13G13137   0.797   3.589   7.658  0.1079  0.0456 -0.2992
  123OSM   C14F13138   0.844   3.466   7.832  0.7075  0.5628  0.0693
  123OSM   H14F13139   0.936   3.527   7.844  0.2780  1.9941 -3.0318
  123OSM   H14G13140   0.859   3.357   7.847  1.3140  0.9111  2.3748
  123OSM   C15F13141   0.739   3.509   7.943 -0.2539 -0.3506  0.0785
  123OSM   H15F13142   0.651   3.445   7.921 -0.6362  1.2154 -3.9373
  123OSM   H15G13143   0.725   3.616   7.918  0.6417 -0.3694 -0.5638
  123OSM   C16F13144   0.801   3.504   8.083  0.4390  0.0977  0.6216
  123OSM   H16F13145   0.832   3.400   8.106  0.7393  0.4471  1.8864
  123OSM   H16G13146   0.722   3.542   8.151 -1.2985  0.8067 -1.6690
  123OSM   C17F13147   0.936   3.579   8.102  0.1896  0.2009 -0.3618
  123OSM   H17F13148   1.016   3.553   8.030  0.9191  0.9469  0.1660
  123OSM   H17G13149   0.970   3.555   8.205  2.7691 -1.9661 -1.6006
  123OSM   C18F13150   0.915   3.730   8.096  0.0217  0.2208 -0.2992
  123OSM   H18F13151   0.884   3.760   7.993 -1.0408 -0.0029 -0.0535
  123OSM   H18G13152   1.005   3.781   8.136  0.3835 -1.1484  0.6973
  123OSM   H18H13153   0.838   3.758   8.171 -2.4173 -3.2044 -1.2783
  124OSM      N13154   5.853   0.626   6.043  0.5149 -0.0823 -0.6806
  124OSM    C1513155   5.811   0.759   6.093 -0.0222  0.3710  0.1787
  124OSM   H15A13156   5.716   0.751   6.143  0.4436  1.3112  1.2732
  124OSM   H15B13157   5.809   0.826   6.007  1.6220  0.1087 -0.0978
  124OSM   H15C13158   5.892   0.793   6.156  2.0749 -0.0836 -2.1089
  124OSM    C1413159   5.751   0.567   5.954 -0.8027 -0.5686 -0.4959
  124OSM   H14A13160   5.654   0.596   5.992 -0.0281  2.9719 -0.8373
  124OSM   H14B13161   5.755   0.463   5.926 -2.6211 -1.2178  1.4131
  124OSM   H14C13162   5.760   0.621   5.860 -0.4930 -2.1293 -1.3897
  124OSM    C1313163   5.984   0.646   5.964  0.6386 -0.0192  0.7107
  124OSM   H13A13164   6.028   0.549   5.947 -0.4446 -0.0546 -2.6313
  124OSM   H13B13165   6.041   0.713   6.028 -0.4465 -0.7859  2.5730
  124OSM   H13C13166   5.964   0.692   5.868 -2.1577 -0.2797  1.0972
  124OSM    C1213167   5.870   0.531   6.167 -0.7620 -0.7024 -0.6269
  124OSM   H12A13168   5.911   0.433   6.151  0.5534 -0.4292  0.7989
  124OSM   H12B13169   5.772   0.518   6.213 -0.6146 -1.4768 -0.5142
  124OSM    C1113170   5.969   0.586   6.279  0.5852 -0.3007  0.4714
  124OSM   H11A13171   5.931   0.669   6.341  1.3275  0.5630 -0.1910
  124OSM   H11B13172   6.058   0.623   6.224  0.5895  0.4392  0.9768
  124OSM      P13173   6.105   0.365   6.296  0.0245  0.4676 -0.3053
  124OSM    O1313174   6.015   0.254   6.257 -0.0211  0.3587  0.0835
  124OSM    O1413175   6.204   0.418   6.197  0.2397 -0.5501  0.4453
  124OSM    O1113176   6.185   0.314   6.431  0.0037 -0.2381  0.0208
  124OSM    O1213177   6.003   0.474   6.354  0.2670  0.2552 -0.1914
  124OSM    C1S13178   6.220   0.424   6.519  0.5908  0.2576  0.4130
  124OSM    H1S13179   6.242   0.519   6.467 -1.5906  0.5716 -0.0223
  124OSM    H1T13180   6.311   0.403   6.579  0.0335 -0.6116  0.9925
  124OSM     NF13181   6.154   0.532   6.750 -0.6090  0.0957 -0.3346
  124OSM    HNF13182   6.153   0.495   6.842  3.1744 -0.8316 -0.5065
  124OSM    C2S13183   6.112   0.444   6.635  0.4847  0.4383 -0.1320
  124OSM    H2S13184   6.023   0.496   6.593  0.4051 -0.6844 -1.4303
  124OSM    C3S13185   6.060   0.303   6.692 -0.3055 -0.6920  0.6816
  124OSM    H3S13186   6.150   0.250   6.730 -0.1682  0.6768  2.4081
  124OSM     O313187   6.006   0.223   6.596 -0.6416  0.1183  0.1568
  124OSM    HO313188   6.038   0.252   6.510 -2.9881  2.2450 -0.1170
  124OSM    C4S13189   5.956   0.321   6.806  0.2689  0.1165  0.0692
  124OSM    H4S13190   5.861   0.373   6.789  0.2572 -0.0465 -0.3709
  124OSM    C5S13191   5.972   0.260   6.925 -0.7068 -0.4194  0.1431
  124OSM    H5S13192   6.060   0.193   6.929  0.7437  1.3688 -0.1392
  124OSM    C6S13193   5.867   0.256   7.035 -0.1353 -0.0225 -0.3162
  124OSM    H6S13194   5.809   0.162   7.026 -3.7594  1.9018  1.0606
  124OSM    H6T13195   5.800   0.343   7.021 -0.0417  0.5962  2.4755
  124OSM    C7S13196   5.945   0.264   7.168  0.2597  0.7770 -0.5925
  124OSM    H7S13197   6.005   0.357   7.169 -1.3916  1.8978  0.8193
  124OSM    H7T13198   6.015   0.178   7.173  0.1065  0.5498 -2.0540
  124OSM    C8S13199   5.861   0.262   7.292  0.3823 -0.2035  0.3238
  124OSM    H8S13200   5.805   0.167   7.291 -0.0629  0.0315 -1.8844
  124OSM    H8T13201   5.797   0.353   7.290 -1.1841 -1.2661  0.8472
  124OSM    C9S13202   5.949   0.270   7.424 -0.4125  0.2186 -0.2248
  124OSM    H9S13203   6.004   0.175   7.442 -0.3952 -0.2222 -2.3075
  124OSM    H9T13204   5.882   0.281   7.512 -0.5594 -1.7212 -0.0557
  124OSM   C10S13205   6.037   0.395   7.421  0.0622 -0.2709  0.1258
  124OSM   H10S13206   5.959   0.474   7.417  0.1930  0.1417  3.2668
  124OSM   H10T13207   6.102   0.396   7.331 -1.3139 -3.6282 -1.0721
  124OSM   C11S13208   6.136   0.402   7.535 -0.0610 -0.4489 -0.4181
  124OSM   H11S13209   6.211   0.483   7.519 -1.5835  1.4876  1.7041
  124OSM   H11T13210   6.190   0.305   7.543 -0.1630 -0.3567  1.8197
  124OSM   C12S13211   6.069   0.440   7.675  0.5674 -0.1671 -0.6119
  124OSM   H12S13212   6.005   0.355   7.709 -0.9899  1.6742  1.3916
  124OSM   H12T13213   6.008   0.533   7.677  0.7084 -0.0777 -0.3017
  124OSM   C13S13214   6.166   0.452   7.795 -0.2487  0.3632  0.0382
  124OSM   H13S13215   6.239   0.531   7.770 -0.0937  0.0280 -0.6096
  124OSM   H13T13216   6.227   0.360   7.805  2.5927  2.1253  0.1285
  124OSM   C14S13217   6.113   0.488   7.935 -0.1636  0.0821  0.0159
  124OSM   H14S13218   6.052   0.580   7.924 -1.9682 -1.2158 -1.7090
  124OSM   H14T13219   6.202   0.507   7.998 -1.2598  3.5311  0.7325
  124OSM   C15S13220   6.015   0.382   7.990  0.0652 -0.1586 -0.6038
  124OSM   H15S13221   6.066   0.283   7.991  1.4613  0.4486 -3.3255
  124OSM   H15T13222   5.926   0.381   7.925 -0.1670  1.5592 -0.3485
  124OSM   C16S13223   5.968   0.411   8.137 -0.9842  0.1017 -0.3797
  124OSM   H16S13224   5.920   0.511   8.132  3.0862  2.4204  1.2822
  124OSM   H16T13225   6.064   0.428   8.192 -0.2281 -0.1613 -1.5828
  124OSM   C17S13226   5.868   0.321   8.198 -0.7677 -0.9499  0.6372
  124OSM   H17S13227   5.912   0.219   8.198 -1.0794 -1.1290 -1.5154
  124OSM   H17T13228   5.784   0.319   8.125  0.2628 -0.7871 -0.5983
  124OSM   C18S13229   5.824   0.364   8.338  0.1742 -0.0785 -0.8145
  124OSM   H18S13230   5.716   0.338   8.343  0.4721 -1.1509  2.0423
  124OSM   H18T13231   5.828   0.474   8.347 -0.4975 -0.1855  1.4007
  124OSM   H18U13232   5.877   0.311   8.420  0.8866  0.0446 -1.1938
  124OSM    C1F13233   6.207   0.659   6.728 -0.8819  0.2194 -0.9168
  124OSM     OF13234   6.238   0.697   6.620 -0.3981 -0.0436 -0.4049
  124OSM    C2F13235   6.220   0.755   6.842 -0.1314 -0.4390 -0.6568
  124OSM    H2F13236   6.128   0.818   6.846 -0.5597 -0.9334 -2.2662
  124OSM    H2G13237   6.312   0.812   6.820 -0.8668  0.4114 -1.6111
  124OSM    C3F13238   6.220   0.689   6.985 -0.7957 -0.2359 -0.4101
  124OSM    H3F13239   6.321   0.641   6.985 -0.6772 -0.0359 -2.0537
  124OSM    H3G13240   6.153   0.601   6.999  3.3204 -3.7296 -0.4602
  124OSM    C4F13241   6.192   0.786   7.091 -0.1612  0.6364  0.4429
  124OSM    H4F13242   6.099   0.843   7.070 -1.0839 -1.5170 -1.6826
  124OSM    H4G13243   6.272   0.863   7.101 -1.6940  2.0132  4.1965
  124OSM    C5F13244   6.190   0.725   7.230 -0.1738  0.2882  0.0689
  124OSM    H5F13245   6.275   0.653   7.230 -1.2196 -1.1216 -3.1378
  124OSM    H5G13246   6.100   0.662   7.249 -0.7761  0.5613 -1.7497
  124OSM    C6F13247   6.201   0.831   7.335 -0.4337  0.2161  0.1800
  124OSM    H6F13248   6.126   0.911   7.316  0.2457  1.5914  2.7851
  124OSM    H6G13249   6.301   0.880   7.330 -0.9701  1.4150  0.6659
  124OSM    C7F13250   6.195   0.770   7.471  0.7964  0.9686  0.0989
  124OSM    H7F13251   6.281   0.702   7.487 -0.0453  0.1574  1.4255
  124OSM    H7G13252   6.113   0.695   7.471  2.1105 -0.5800 -2.2939
  124OSM    C8F13253   6.168   0.871   7.583  0.1495 -0.4250 -0.4377
  124OSM    H8F13254   6.246   0.947   7.562 -0.7861  0.7759  0.2760
  124OSM    H8G13255   6.199   0.831   7.682 -0.0708 -0.7896 -0.5135
  124OSM    C9F13256   6.036   0.942   7.590 -0.1021  0.5610  0.1841
  124OSM    H9F13257   6.008   0.980   7.490  1.6825 -1.4862 -1.1761
  124OSM   C10F13258   5.951   0.964   7.699 -0.7077  0.2227 -0.5872
  124OSM   H10F13259   5.866   1.032   7.688 -1.0483  0.4000  2.3096
  124OSM   C11F13260   5.983   0.927   7.843  0.1676 -0.4483  0.6714
  124OSM   H11F13261   6.073   0.862   7.851 -0.4613 -1.8541 -2.1990
  124OSM   H11G13262   5.896   0.869   7.880  1.2241 -1.9759  0.8675
  124OSM   C12F13263   5.990   1.038   7.956  0.3501 -0.2162 -0.5529
  124OSM   H12F13264   5.897   1.098   7.962  0.7270  0.4969 -1.5275
  124OSM   H12G13265   6.062   1.118   7.930 -1.5402  1.5528 -0.6054
  124OSM   C13F13266   6.030   0.985   8.096 -0.2435 -0.6456  0.2264
  124OSM   H13F13267   6.037   1.066   8.172 -0.4488  1.6694 -2.0851
  124OSM   H13G13268   6.131   0.939   8.090  0.6541  0.7560  2.8358
  124OSM   C14F13269   5.931   0.886   8.166  0.3583  0.2362  0.2792
  124OSM   H14F13270   5.886   0.826   8.084 -1.1815 -0.1006  1.3388
  124OSM   H14G13271   5.850   0.937   8.223 -1.0816 -0.7344 -0.8492
  124OSM   C15F13272   6.002   0.793   8.271  0.8511 -0.3035  0.0174
  124OSM   H15F13273   6.065   0.722   8.213  0.1850 -1.3783  0.5673
  124OSM   H15G13274   5.916   0.741   8.320 -0.1395  2.6886  1.6994
  124OSM   C16F13275   6.084   0.855   8.388 -0.2488  0.0234  0.0097
  124OSM   H16F13276   6.171   0.906   8.340 -0.1946  0.4747  0.5811
  124OSM   H16G13277   6.135   0.767   8.434  0.0676  0.5070  0.5891
  124OSM   C17F13278   6.006   0.936   8.488  0.1354 -0.6873  0.1191
  124OSM   H17F13279   5.906   0.889   8.498 -0.0316 -0.7571 -1.6334
  124OSM   H17G13280   6.002   1.037   8.442 -1.0908 -0.4757  0.6532
  124OSM   C18F13281   6.079   0.945   8.624 -0.1721  0.0121 -0.4328
  124OSM   H18F13282   6.187   0.952   8.599 -0.0101  0.7910  0.4897
  124OSM   H18G13283   6.060   0.852   8.683 -2.8926 -0.3926 -1.7407
  124OSM   H18H13284   6.045   1.035   8.678  1.8792  0.2743  0.5030
  125OSM      N13285   3.813   1.897   6.232 -0.2097  0.4493  0.4925
  125OSM    C1513286   3.822   1.863   6.086  0.6627 -0.2537  0.1056
  125OSM   H15A13287   3.723   1.849   6.046 -0.0080 -0.9101  1.8973
  125OSM   H15B13288   3.867   1.766   6.067 -0.2541 -1.0481  1.8085
  125OSM   H15C13289   3.871   1.941   6.029  0.7225  0.4662  1.1236
  125OSM    C1413290   3.942   1.960   6.271  0.3414  0.3366 -0.4393
  125OSM   H14A13291   4.024   1.891   6.256  1.2707  0.3727  3.4070
  125OSM   H14B13292   3.951   1.977   6.378 -0.2327 -1.1525 -0.1289
  125OSM   H14C13293   3.966   2.051   6.218  0.6063  0.0736 -0.7757
  125OSM    C1313294   3.708   2.005   6.252  0.5354  0.1546  0.3601
  125OSM   H13A13295   3.728   2.084   6.181 -2.6802  0.1890 -0.6364
  125OSM   H13B13296   3.697   2.047   6.351  0.7232 -1.4363  1.0802
  125OSM   H13C13297   3.615   1.967   6.213  0.7883  1.3548 -1.5024
  125OSM    C1213298   3.781   1.771   6.317 -0.0761  0.4986  0.7680
  125OSM   H12A13299   3.804   1.787   6.421  2.8176  0.2729  0.2321
  125OSM   H12B13300   3.839   1.688   6.280 -0.4118 -0.7429  2.8856
  125OSM    C1113301   3.645   1.713   6.285 -0.5213 -0.1472  0.3744
  125OSM   H11A13302   3.629   1.705   6.175 -2.0899  1.1750  0.4606
  125OSM   H11B13303   3.558   1.773   6.321  1.6831  1.3522  3.7255
  125OSM      P13304   3.506   1.502   6.313  0.1801  0.2396 -0.5648
  125OSM    O1313305   3.390   1.589   6.340  0.2335  0.6318  0.7397
  125OSM    O1413306   3.514   1.439   6.177 -0.0924  0.0227 -0.7336
  125OSM    O1113307   3.498   1.387   6.414  0.4196 -0.4074  0.8476
  125OSM    O1213308   3.636   1.585   6.342  0.1406 -1.1356  0.4625
  125OSM    C1S13309   3.548   1.401   6.547  0.3098  0.8984 -0.9776
  125OSM    H1S13310   3.639   1.465   6.550 -0.2537  1.6851  0.2924
  125OSM    H1T13311   3.586   1.303   6.582 -0.0660  1.4461  1.0778
  125OSM     NF13312   3.535   1.440   6.787 -0.2504 -0.2430  0.0006
  125OSM    HNF13313   3.542   1.359   6.844 -1.2853  1.0997  2.1406
  125OSM    C2S13314   3.456   1.452   6.662 -0.3688  0.2582 -0.2223
  125OSM    H2S13315   3.434   1.559   6.641  0.5958  0.8397  1.5100
  125OSM    C3S13316   3.329   1.369   6.653 -0.2279  0.6678 -0.4297
  125OSM    H3S13317   3.358   1.262   6.658  1.1776  1.0977  1.2980
  125OSM     O313318   3.258   1.377   6.529 -0.1541  0.1671 -0.0523
  125OSM    HO313319   3.307   1.447   6.484 -2.6310  2.2476  0.2540
  125OSM    C4S13320   3.242   1.398   6.775 -0.3511 -0.3539 -0.4990
  125OSM    H4S13321   3.281   1.341   6.861  0.1562  2.3041  1.1544
  125OSM    C5S13322   3.136   1.473   6.800  0.8827 -0.0233 -0.0338
  125OSM    H5S13323   3.088   1.537   6.725  0.3546 -1.2564 -0.7801
  125OSM    C6S13324   3.073   1.493   6.936  0.2231  0.0302 -0.4072
  125OSM    H6S13325   2.965   1.471   6.929 -0.3127  1.8085  1.4309
  125OSM    H6T13326   3.074   1.597   6.975 -1.9325 -0.7965  2.1648
  125OSM    C7S13327   3.122   1.402   7.054  0.2631 -0.2532 -0.5296
  125OSM    H7S13328   3.224   1.434   7.086  0.5201 -1.0090 -0.5649
  125OSM    H7T13329   3.127   1.295   7.025  1.9807 -0.5745  0.7524
  125OSM    C8S13330   3.025   1.407   7.175 -0.3793  0.3807  0.2675
  125OSM    H8S13331   2.920   1.391   7.142 -0.3287  0.6866 -0.0480
  125OSM    H8T13332   3.037   1.511   7.212  3.2463 -0.0798  0.7255
  125OSM    C9S13333   3.048   1.299   7.283 -0.7346  0.5239  0.0156
  125OSM    H9S13334   3.151   1.300   7.326 -1.0432 -2.8652  1.1583
  125OSM    H9T13335   3.030   1.210   7.219  0.0681  1.2028 -1.1960
  125OSM   C10S13336   2.939   1.305   7.389  0.0839  0.3734 -0.0499
  125OSM   H10S13337   2.899   1.202   7.394 -0.1579  0.5036  0.8308
  125OSM   H10T13338   2.856   1.375   7.362 -1.6831 -1.5351  0.1723
  125OSM   C11S13339   2.986   1.346   7.541  0.2505  0.4694 -0.1422
  125OSM   H11S13340   3.094   1.324   7.546  0.5065  1.4512 -0.8487
  125OSM   H11T13341   2.938   1.272   7.609  1.8568 -0.1531  0.3481
  125OSM   C12S13342   2.950   1.485   7.591  0.3594 -0.4421  0.5091
  125OSM   H12S13343   2.839   1.490   7.593  0.2701 -0.0696 -1.9271
  125OSM   H12T13344   2.985   1.564   7.521 -0.2523  0.5973  1.3482
  125OSM   C13S13345   3.007   1.526   7.725  0.2890 -0.0473 -0.7774
  125OSM   H13S13346   3.117   1.514   7.736  0.6543  1.0703 -2.7452
  125OSM   H13T13347   2.960   1.470   7.808  1.8893  1.5660  1.3410
  125OSM   C14S13348   2.972   1.671   7.759 -0.4304  0.5300 -0.4269
  125OSM   H14S13349   2.863   1.684   7.747 -0.4600  0.7733  0.0604
  125OSM   H14T13350   3.035   1.738   7.696  1.2224 -0.0010  0.5900
  125OSM   C15S13351   3.005   1.692   7.911  0.5092  0.4524 -0.6119
  125OSM   H15S13352   3.112   1.670   7.927  0.0815 -2.5083 -1.2546
  125OSM   H15T13353   2.940   1.623   7.970 -1.6929  1.2484 -1.9557
  125OSM   C16S13354   2.963   1.828   7.962  0.8441  0.5147  0.4512
  125OSM   H16S13355   2.864   1.842   7.914  0.5965  0.5710  0.9739
  125OSM   H16T13356   3.041   1.891   7.915 -1.5381  2.9446 -0.4525
  125OSM   C17S13357   2.959   1.844   8.116 -0.4268  0.4433  0.2200
  125OSM   H17S13358   3.064   1.829   8.150 -0.0445  3.2601  0.5218
  125OSM   H17T13359   2.889   1.769   8.159 -1.3721  2.3739  2.2405
  125OSM   C18S13360   2.904   1.975   8.171 -0.3208 -0.4530 -0.7580
  125OSM   H18S13361   2.802   2.009   8.142 -1.0584 -0.3892  1.6721
  125OSM   H18T13362   2.982   2.050   8.148 -0.8751  0.8010  1.2019
  125OSM   H18U13363   2.897   1.960   8.281  0.9397  0.5276 -0.5191
  125OSM    C1F13364   3.622   1.546   6.814  0.8923 -0.0416 -0.6838
  125OSM     OF13365   3.622   1.642   6.738 -0.5394 -0.1501 -1.0988
  125OSM    C2F13366   3.701   1.530   6.940  0.3524  0.1225 -0.3059
  125OSM    H2F13367   3.787   1.466   6.912  0.1838 -0.2185 -0.0466
  125OSM    H2G13368   3.643   1.463   7.007  2.4802 -1.5619 -0.0353
  125OSM    C3F13369   3.733   1.669   6.998 -0.2347  0.0332 -0.0906
  125OSM    H3F13370   3.646   1.721   7.044  1.0128  1.1923  1.0519
  125OSM    H3G13371   3.782   1.745   6.934  1.2179 -0.3898  0.4763
  125OSM    C4F13372   3.835   1.655   7.110 -0.0018 -0.1836 -0.4244
  125OSM    H4F13373   3.887   1.751   7.133  2.2919 -1.6485  0.9884
  125OSM    H4G13374   3.914   1.584   7.076 -0.7642 -1.3654  0.2227
  125OSM    C5F13375   3.768   1.585   7.240 -0.0679  0.2099  0.1131
  125OSM    H5F13376   3.745   1.479   7.215  0.1810  0.4832 -1.4364
  125OSM    H5G13377   3.679   1.643   7.271  0.0393  1.8060 -2.2961
  125OSM    C6F13378   3.871   1.598   7.351  0.3808 -0.1283  0.2367
  125OSM    H6F13379   3.901   1.705   7.359  1.4297 -0.3765 -0.2367
  125OSM    H6G13380   3.964   1.544   7.324  0.0369  0.4546 -2.3609
  125OSM    C7F13381   3.821   1.539   7.480  0.2403  0.0556 -0.0746
  125OSM    H7F13382   3.827   1.429   7.473 -1.8653 -0.1443  0.5867
  125OSM    H7G13383   3.711   1.551   7.492  0.2447 -0.3928  0.4230
  125OSM    C8F13384   3.880   1.589   7.618  0.0954 -0.1722  0.1780
  125OSM    H8F13385   3.808   1.561   7.699 -0.9372  0.6212 -0.4372
  125OSM    H8G13386   3.868   1.700   7.613 -2.9981 -0.4691 -1.9249
  125OSM    C9F13387   4.017   1.540   7.655  0.1512  0.2509 -0.1301
  125OSM    H9F13388   4.081   1.541   7.566 -1.7212  0.7888 -1.5496
  125OSM   C10F13389   4.054   1.488   7.772 -0.4497 -0.1257 -0.5152
  125OSM   H10F13390   4.155   1.445   7.782 -1.9632 -4.1392 -0.9284
  125OSM   C11F13391   3.964   1.460   7.893  0.5615 -0.3538 -0.0431
  125OSM   H11F13392   3.933   1.353   7.900  1.6033 -0.5810  2.0566
  125OSM   H11G13393   3.866   1.511   7.903 -0.5259 -2.3455  0.0655
  125OSM   C12F13394   4.031   1.492   8.032  0.3233  0.1873 -0.0303
  125OSM   H12F13395   4.131   1.443   8.040 -0.2703 -1.1623 -0.6144
  125OSM   H12G13396   3.973   1.452   8.118  2.5666 -1.4764  0.8310
  125OSM   C13F13397   4.035   1.643   8.071 -0.2747 -0.1500 -0.5622
  125OSM   H13F13398   3.933   1.674   8.104 -0.4616 -1.4294  0.1355
  125OSM   H13G13399   4.064   1.704   7.984 -2.0991 -0.2447 -1.2676
  125OSM   C14F13400   4.133   1.671   8.191 -0.3472  0.2412 -0.4975
  125OSM   H14F13401   4.238   1.633   8.182 -0.9370 -1.2675 -1.5814
  125OSM   H14G13402   4.083   1.602   8.263  1.2312  0.4430  0.8626
  125OSM   C15F13403   4.119   1.814   8.246  0.2250  0.4440 -0.8228
  125OSM   H15F13404   4.018   1.854   8.223  0.6442  0.8709 -2.0433
  125OSM   H15G13405   4.192   1.878   8.191  1.3311  0.6231  0.7964
  125OSM   C16F13406   4.157   1.816   8.393 -0.0452 -0.0379  0.3581
  125OSM   H16F13407   4.267   1.802   8.397  0.0482  0.8441  1.3995
  125OSM   H16G13408   4.109   1.733   8.450 -1.3628  0.0747 -0.5275
  125OSM   C17F13409   4.118   1.952   8.451 -0.1491 -0.3375 -0.3513
  125OSM   H17F13410   4.009   1.967   8.432 -0.4362  0.2222  1.5437
  125OSM   H17G13411   4.175   2.036   8.407 -3.7333  2.3072 -0.4516
  125OSM   C18F13412   4.149   1.971   8.601 -0.1779 -0.5056  0.1317
  125OSM   H18F13413   4.136   1.873   8.651  0.0688 -1.1258 -0.9905
  125OSM   H18G13414   4.087   2.052   8.647  0.1890  0.5710 -1.2174
  125OSM   H18H13415   4.254   2.003   8.612  0.4277 -1.3475 -2.5977
  126OSM      N13416   1.415   0.902   6.153 -0.3560 -0.5686 -0.0671
  126OSM    C1513417   1.363   0.763   6.140  0.1228  0.3170 -0.2360
  126OSM   H15A13418   1.428   0.698   6.082 -2.8134 -0.5593 -2.8218
  126OSM   H15B13419   1.265   0.767   6.095  0.4213  1.8594 -0.7893
  126OSM   H15C13420   1.356   0.726   6.241 -1.5839  2.9821  0.7024
  126OSM    C1413421   1.475   0.927   6.016  0.1196  0.2918 -0.4723
  126OSM   H14A13422   1.551   0.858   5.982 -1.2982 -1.8601  0.5009
  126OSM   H14B13423   1.517   1.026   6.019 -0.6795  0.6040  1.5372
  126OSM   H14C13424   1.392   0.933   5.947 -1.2155 -0.3542  1.0183
  126OSM    C1313425   1.305   1.005   6.175  0.3555 -0.0530  0.3736
  126OSM   H13A13426   1.248   0.969   6.260  1.2728 -2.0418  0.2238
  126OSM   H13B13427   1.237   1.006   6.092  0.4218 -0.5944  0.3099
  126OSM   H13C13428   1.336   1.107   6.193  0.8080 -0.2442  0.7285
  126OSM    C1213429   1.520   0.907   6.265  0.0657  0.4819  1.1727
  126OSM   H12A13430   1.562   1.004   6.284 -0.0111  0.8775 -0.5016
  126OSM   H12B13431   1.606   0.848   6.236 -0.1315  1.2203 -1.1639
  126OSM    C1113432   1.468   0.859   6.410 -0.1825 -0.3180  0.0697
  126OSM   H11A13433   1.392   0.929   6.451  0.7700  0.9157 -0.2371
  126OSM   H11B13434   1.560   0.877   6.470  2.2366  2.3304 -3.9703
  126OSM      P13435   1.314   0.678   6.533 -0.4491 -0.4016 -0.0392
  126OSM    O1313436   1.200   0.770   6.545 -0.2923  0.0734 -0.0330
  126OSM    O1413437   1.281   0.534   6.522  0.7845 -0.3795  0.6205
  126OSM    O1113438   1.404   0.690   6.663  0.1110  0.1475 -0.7165
  126OSM    O1213439   1.416   0.732   6.422  0.7027  0.1681 -0.1477
  126OSM    C1S13440   1.386   0.794   6.762 -0.6666  0.8920  0.9360
  126OSM    H1S13441   1.316   0.869   6.720  0.2456  1.3478  0.2081
  126OSM    H1T13442   1.486   0.835   6.787 -0.2349 -0.6574  1.9146
  126OSM     NF13443   1.310   0.838   6.996 -0.9495  0.6222  0.1551
  126OSM    HNF13444   1.380   0.853   7.065 -0.1463 -0.2532 -0.4398
  126OSM    C2S13445   1.324   0.731   6.892  1.1014 -0.3828  0.0614
  126OSM    H2S13446   1.221   0.703   6.861  0.1851  1.9702  0.7725
  126OSM    C3S13447   1.413   0.613   6.944  0.3058  0.0922  0.3994
  126OSM    H3S13448   1.513   0.657   6.968 -0.0518 -0.1364  2.4248
  126OSM     O313449   1.432   0.508   6.851  0.5639  0.2147  0.2167
  126OSM    HO313450   1.416   0.552   6.767  0.6362  0.9874  0.6033
  126OSM    C4S13451   1.367   0.558   7.074 -0.3960 -0.7273 -0.4059
  126OSM    H4S13452   1.414   0.623   7.150 -0.8906  0.5524 -1.1559
  126OSM    C5S13453   1.277   0.464   7.113  0.0344  0.1411  0.2115
  126OSM    H5S13454   1.222   0.420   7.029  2.0828  1.8767 -2.2127
  126OSM    C6S13455   1.248   0.432   7.258 -0.4360 -0.6994  0.0337
  126OSM    H6S13456   1.285   0.329   7.275 -0.4112 -0.7229 -0.1539
  126OSM    H6T13457   1.139   0.427   7.280 -0.3993  1.0326  0.7029
  126OSM    C7S13458   1.313   0.526   7.369  0.6039  0.8134  0.0423
  126OSM    H7S13459   1.276   0.630   7.366 -0.2331  0.5816  1.2716
  126OSM    H7T13460   1.421   0.526   7.346  1.5758  0.1213  3.8159
  126OSM    C8S13461   1.300   0.457   7.509 -1.0598  0.2326  0.9435
  126OSM    H8S13462   1.377   0.495   7.579  0.0102 -2.8045  1.5966
  126OSM    H8T13463   1.332   0.351   7.497 -0.1026  0.8012 -2.4501
  126OSM    C9S13464   1.159   0.469   7.565 -0.0041  0.2288  0.0396
  126OSM    H9S13465   1.090   0.430   7.488 -0.9292 -0.5665  1.2176
  126OSM    H9T13466   1.120   0.563   7.609 -0.8463 -0.7236  1.4441
  126OSM   C10S13467   1.156   0.362   7.686  0.1093  0.6973  0.2990
  126OSM   H10S13468   1.258   0.357   7.729 -0.0061 -1.6213  0.4452
  126OSM   H10T13469   1.134   0.263   7.641 -0.0673  0.4825  0.8453
  126OSM   C11S13470   1.066   0.383   7.808  0.1555  0.2072  0.4996
  126OSM   H11S13471   0.959   0.367   7.784  0.2025  0.7335 -0.0904
  126OSM   H11T13472   1.069   0.491   7.835  3.1353  0.7457 -1.4942
  126OSM   C12S13473   1.073   0.286   7.933 -1.1599  0.0540 -0.0330
  126OSM   H12S13474   1.055   0.183   7.895  0.0631 -0.0261 -0.4164
  126OSM   H12T13475   1.003   0.310   8.017  3.2080  0.5152  3.8643
  126OSM   C13S13476   1.210   0.290   8.006  0.3004  0.0835  0.0985
  126OSM   H13S13477   1.284   0.239   7.941  0.3091  0.3521 -0.0987
  126OSM   H13T13478   1.210   0.219   8.092 -1.1061 -0.8519 -0.6327
  126OSM   C14S13479   1.282   0.432   8.024 -0.0686  0.3916 -0.4361
  126OSM   H14S13480   1.299   0.456   7.917 -0.2982 -0.1628 -0.6064
  126OSM   H14T13481   1.379   0.408   8.073  0.2955 -2.6321 -2.3296
  126OSM   C15S13482   1.199   0.528   8.104  0.2719  0.0108  0.0587
  126OSM   H15S13483   1.103   0.558   8.058 -1.0357  0.6451  2.9682
  126OSM   H15T13484   1.253   0.625   8.108  1.3698 -0.4076 -2.5614
  126OSM   C16S13485   1.185   0.480   8.254  0.2308 -0.6328  1.2545
  126OSM   H16S13486   1.291   0.456   8.278  2.0089  2.1237 -2.6804
  126OSM   H16T13487   1.114   0.394   8.255 -0.5742 -0.0985 -1.2668
  126OSM   C17S13488   1.142   0.575   8.361 -0.4806  0.2974 -0.5282
  126OSM   H17S13489   1.037   0.608   8.350  0.6679  4.2879 -1.1889
  126OSM   H17T13490   1.218   0.656   8.362  0.1752 -0.3020 -0.4159
  126OSM   C18S13491   1.166   0.525   8.507 -0.0579 -0.3385 -0.3232
  126OSM   H18S13492   1.132   0.615   8.562 -0.3454 -0.2799 -0.5917
  126OSM   H18T13493   1.273   0.503   8.527 -0.1464 -0.9134 -0.4583
  126OSM   H18U13494   1.110   0.436   8.542  2.0258 -0.6414  2.5354
  126OSM    C1F13495   1.219   0.930   6.988 -0.5010  0.3738 -0.0773
  126OSM     OF13496   1.157   0.941   6.883  0.0618  0.0722 -0.2737
  126OSM    C2F13497   1.184   1.028   7.103 -0.3337  0.4253 -0.6813
  126OSM    H2F13498   1.110   0.982   7.171  1.5601  0.1959  1.3425
  126OSM    H2G13499   1.132   1.109   7.047 -0.7887  1.5851  1.3049
  126OSM    C3F13500   1.306   1.082   7.186  0.8799  0.1350  0.0122
  126OSM    H3F13501   1.383   1.128   7.120  1.5278 -1.6723 -0.5311
  126OSM    H3G13502   1.356   1.002   7.244  1.9836  0.4284 -0.5221
  126OSM    C4F13503   1.247   1.190   7.285  0.3097 -0.2170  0.1680
  126OSM    H4F13504   1.324   1.202   7.365 -0.2324  0.3260  0.6234
  126OSM    H4G13505   1.156   1.158   7.339  0.5938  1.0793  1.4823
  126OSM    C5F13506   1.221   1.330   7.229  0.2312 -0.3908 -0.1031
  126OSM    H5F13507   1.147   1.321   7.147 -0.1274  0.8846  0.0630
  126OSM    H5G13508   1.314   1.367   7.182 -0.6867  2.4975  0.1817
  126OSM    C6F13509   1.153   1.424   7.329  0.2598 -0.1999  0.6932
  126OSM    H6F13510   1.053   1.379   7.345 -1.0255  2.5560  0.9498
  126OSM    H6G13511   1.124   1.524   7.291 -0.8634 -0.0575  1.8845
  126OSM    C7F13512   1.229   1.448   7.457  0.1338  0.2238 -0.0258
  126OSM    H7F13513   1.335   1.476   7.437  0.2959  0.1340  0.6799
  126OSM    H7G13514   1.245   1.350   7.508  0.3912  0.8298  1.0948
  126OSM    C8F13515   1.166   1.546   7.552  0.2567 -0.0073  0.5965
  126OSM    H8F13516   1.131   1.634   7.494  1.2530 -0.5146 -0.8539
  126OSM    H8G13517   1.245   1.591   7.615 -0.4244  1.9821  0.1091
  126OSM    C9F13518   1.049   1.489   7.629  0.6934 -0.4389  0.7333
  126OSM    H9F13519   0.954   1.491   7.575 -0.4364  3.0068  2.5284
  126OSM   C10F13520   1.064   1.464   7.763  0.4160 -0.8230  0.4884
  126OSM   H10F13521   0.973   1.432   7.817  0.8316 -2.3978  0.2971
  126OSM   C11F13522   1.180   1.476   7.855  0.2951 -0.0178  0.1544
  126OSM   H11F13523   1.272   1.481   7.793 -1.7409  0.3397 -3.1230
  126OSM   H11G13524   1.186   1.385   7.918  2.0784 -1.5979 -2.1038
  126OSM   C12F13525   1.192   1.598   7.949 -0.4313  0.0808 -0.5051
  126OSM   H12F13526   1.205   1.674   7.869  2.2497  0.5436  0.2612
  126OSM   H12G13527   1.282   1.588   8.015 -2.1831 -0.9563  1.8690
  126OSM   C13F13528   1.064   1.641   8.022  0.0468  0.0981  0.6311
  126OSM   H13F13529   0.978   1.658   7.953  0.3252  1.2449  0.5479
  126OSM   H13G13530   1.084   1.734   8.079 -0.1355 -0.2409  1.2606
  126OSM   C14F13531   1.006   1.559   8.138  0.6630 -0.0935  0.9864
  126OSM   H14F13532   0.941   1.487   8.085  0.3080  1.3197 -0.5723
  126OSM   H14G13533   0.947   1.623   8.208  1.1174 -0.4875  1.7457
  126OSM   C15F13534   1.097   1.476   8.225 -0.4914 -0.8592  0.0419
  126OSM   H15F13535   1.172   1.428   8.159 -1.2943 -1.0657 -0.7309
  126OSM   H15G13536   1.037   1.397   8.275 -1.6107  0.3320  0.6805
  126OSM   C16F13537   1.155   1.557   8.346 -0.2540  0.4050 -0.3946
  126OSM   H16F13538   1.177   1.659   8.308 -0.0828  0.6563  0.3528
  126OSM   H16G13539   1.254   1.511   8.366 -0.7459 -0.6819 -0.3609
  126OSM   C17F13540   1.074   1.550   8.470  0.4524 -0.1947  0.1836
  126OSM   H17F13541   1.066   1.447   8.510  1.0175  0.1428  1.2034
  126OSM   H17G13542   0.969   1.581   8.449  0.3228 -0.8042 -0.0979
  126OSM   C18F13543   1.124   1.640   8.583  0.0512  0.3267 -0.2629
  126OSM   H18F13544   1.039   1.648   8.655 -0.3167  2.5796 -0.8598
  126OSM   H18G13545   1.157   1.740   8.548  3.5052 -1.2737 -1.9805
  126OSM   H18H13546   1.211   1.591   8.630 -0.4930  0.7930  1.3105
  127OSM      N13547   2.066   6.337   6.126 -0.3098 -0.0930  0.6573
  127OSM    C1513548   2.192   6.367   6.048  0.0218 -0.2565 -0.5573
  127OSM   H15A13549   2.218   6.470   6.069  1.1738 -0.5923 -0.2558
  127OSM   H15B13550   2.189   6.349   5.942  1.2424 -1.1686 -0.4631
  127OSM   H15C13551   2.275   6.314   6.092 -0.8813  0.6556  2.4928
  127OSM    C1413552   1.955   6.435   6.091 -0.1938  0.4505 -0.5496
  127OSM   H14A13553   1.941   6.433   5.984 -2.0635  1.0828 -0.3463
  127OSM   H14B13554   1.987   6.532   6.125 -0.3425 -0.0414  1.0794
  127OSM   H14C13555   1.865   6.417   6.149 -0.2877 -1.7670 -1.2837
  127OSM    C1313556   2.030   6.196   6.096 -0.3885  0.0032 -0.1279
  127OSM   H13A13557   2.117   6.138   6.122  1.7787  0.6379 -4.8137
  127OSM   H13B13558   2.031   6.174   5.990  2.8537 -1.1594  0.0446
  127OSM   H13C13559   1.940   6.169   6.148 -0.8151 -1.1655 -1.4128
  127OSM    C1213560   2.089   6.343   6.280  0.2562 -0.6107 -0.0873
  127OSM   H12A13561   2.169   6.274   6.302 -0.2083 -1.1176  0.0592
  127OSM   H12B13562   1.998   6.310   6.328 -0.1837 -0.7932 -1.0363
  127OSM    C1113563   2.126   6.488   6.335  0.8570  0.2324  0.6015
  127OSM   H11A13564   2.121   6.479   6.445 -0.4569  0.6895  0.5969
  127OSM   H11B13565   2.053   6.571   6.325 -1.2905 -1.6809 -0.5541
  127OSM      P13566   2.379   6.502   6.378 -0.0324 -0.3154  0.3190
  127OSM    O1313567   2.480   6.438   6.291  0.1645  0.3477  0.4061
  127OSM    O1413568   2.421   6.633   6.437 -0.2034  0.6815 -0.1765
  127OSM    O1113569   2.339   6.395   6.494 -0.1760 -0.1001  0.3234
  127OSM    O1213570   2.251   6.531   6.295 -0.7357  0.7189  0.2500
  127OSM    C1S13571   2.451   6.354   6.579  0.5392  0.1629 -0.2516
  127OSM    H1S13572   2.495   6.437   6.639 -0.3617  0.0522  0.5977
  127OSM    H1T13573   2.539   6.323   6.520  1.5686  2.5346 -0.0879
  127OSM     NF13574   2.521   6.215   6.764 -0.2014  0.3005 -0.0852
  127OSM    HNF13575   2.599   6.159   6.739  0.5981  0.7019  1.4349
  127OSM    C2S13576   2.406   6.239   6.680 -0.5321  0.1203  0.8299
  127OSM    H2S13577   2.333   6.280   6.752  2.0705  1.6279  2.7852
  127OSM    C3S13578   2.357   6.117   6.608 -0.6830 -0.2155 -0.3293
  127OSM    H3S13579   2.440   6.074   6.548 -0.0357 -0.4071  0.6917
  127OSM     O313580   2.247   6.142   6.518  0.3763  0.4555 -0.0620
  127OSM    HO313581   2.234   6.237   6.510 -0.7168  0.2071 -1.5415
  127OSM    C4S13582   2.313   6.013   6.708 -1.0342 -0.1585 -0.0463
  127OSM    H4S13583   2.248   6.056   6.785 -0.4225  1.7412 -0.5534
  127OSM    C5S13584   2.354   5.882   6.715  0.1334 -0.2095  0.6679
  127OSM    H5S13585   2.410   5.846   6.627  0.2231  0.5392  0.4170
  127OSM    C6S13586   2.329   5.771   6.817  0.3427 -0.0426  0.0521
  127OSM    H6S13587   2.294   5.679   6.765  1.3571  0.0895 -0.9118
  127OSM    H6T13588   2.241   5.796   6.880 -0.2694 -0.4642 -0.6194
  127OSM    C7S13589   2.452   5.732   6.902  0.6263  0.2924  0.4017
  127OSM    H7S13590   2.532   5.711   6.828 -1.3820  2.9559 -2.7892
  127OSM    H7T13591   2.447   5.636   6.958  3.1163 -0.5734 -0.6936
  127OSM    C8S13592   2.503   5.853   6.991 -0.2862  0.2634  0.3426
  127OSM    H8S13593   2.489   5.945   6.931  0.5427  0.1720 -0.0021
  127OSM    H8T13594   2.610   5.835   7.014  0.4053  2.8383 -0.5700
  127OSM    C9S13595   2.440   5.860   7.127  0.9700 -0.1317  0.3146
  127OSM    H9S13596   2.407   5.758   7.156 -0.6900 -0.1966 -1.6295
  127OSM    H9T13597   2.344   5.915   7.121  2.1387  2.2644  1.7219
  127OSM   C10S13598   2.528   5.932   7.237 -0.1591 -0.0874  0.3158
  127OSM   H10S13599   2.555   6.037   7.214 -0.5908 -0.0715 -0.1536
  127OSM   H10T13600   2.626   5.879   7.243  0.1278  0.5233  1.2094
  127OSM   C11S13601   2.462   5.917   7.376  0.8637  0.5026  0.5491
  127OSM   H11S13602   2.351   5.922   7.364  0.5157 -1.3809  2.4295
  127OSM   H11T13603   2.491   5.999   7.445  1.9573  0.2619  0.3900
  127OSM   C12S13604   2.507   5.799   7.462  0.3595 -0.3904  0.1694
  127OSM   H12S13605   2.615   5.802   7.488 -0.1472 -0.3784  2.4684
  127OSM   H12T13606   2.479   5.715   7.395 -0.5100  0.6607 -0.8203
  127OSM   C13S13607   2.438   5.794   7.599  0.4764 -0.3832  0.5393
  127OSM   H13S13608   2.462   5.698   7.650  3.0657  0.0099  0.2291
  127OSM   H13T13609   2.330   5.804   7.575  0.3480 -1.0206  0.8376
  127OSM   C14S13610   2.484   5.893   7.707  0.5279 -0.5755  0.2459
  127OSM   H14S13611   2.462   5.999   7.684  0.5271 -0.8979 -1.3866
  127OSM   H14T13612   2.594   5.887   7.721  0.3211 -3.3864  1.3554
  127OSM   C15S13613   2.412   5.882   7.843 -0.1509 -0.3199  0.0505
  127OSM   H15S13614   2.435   5.786   7.894 -0.9122 -0.5942 -0.1075
  127OSM   H15T13615   2.302   5.887   7.829 -0.0347  1.2838 -0.4581
  127OSM   C16S13616   2.459   5.996   7.937  0.5431  0.0377 -0.8760
  127OSM   H16S13617   2.404   5.997   8.033  1.9111  1.5391 -0.0700
  127OSM   H16T13618   2.435   6.090   7.884 -0.7128  0.3268  0.1628
  127OSM   C17S13619   2.610   6.008   7.972  0.4216  0.7178 -0.7486
  127OSM   H17S13620   2.630   6.087   8.047  2.6781  1.5230 -2.1128
  127OSM   H17T13621   2.670   6.032   7.882  1.5630 -0.9774 -0.4855
  127OSM   C18S13622   2.679   5.879   8.030  0.4231 -0.2754 -0.3207
  127OSM   H18S13623   2.655   5.782   7.982  0.7175  0.3702 -1.8369
  127OSM   H18T13624   2.650   5.864   8.136  0.4219  0.1676 -0.2555
  127OSM   H18U13625   2.786   5.908   8.023  0.3570 -0.1585 -0.8824
  127OSM    C1F13626   2.549   6.282   6.875 -0.0100 -0.7346 -0.2491
  127OSM     OF13627   2.476   6.371   6.915  0.5239 -0.1110 -0.1477
  127OSM    C2F13628   2.679   6.244   6.951 -0.6245  0.0027  0.0614
  127OSM    H2F13629   2.740   6.193   6.874 -1.2867  0.3704 -0.7219
  127OSM    H2G13630   2.653   6.168   7.027 -3.0593  0.2572 -0.4622
  127OSM    C3F13631   2.755   6.369   7.008  0.4714  0.2988  0.4816
  127OSM    H3F13632   2.681   6.418   7.074  1.4716  0.7320  1.3119
  127OSM    H3G13633   2.781   6.431   6.919 -1.7673 -1.6888 -1.7024
  127OSM    C4F13634   2.878   6.341   7.087  0.6062  0.1853 -0.7845
  127OSM    H4F13635   2.904   6.431   7.146 -2.0431 -1.2632  2.9735
  127OSM    H4G13636   2.964   6.313   7.023  0.8954 -2.0193  0.4789
  127OSM    C5F13637   2.849   6.223   7.192  0.3406  0.2288  0.8548
  127OSM    H5F13638   2.843   6.123   7.143 -1.2665  0.6670  0.0587
  127OSM    H5G13639   2.754   6.248   7.244  0.3784  2.2097  0.0500
  127OSM    C6F13640   2.964   6.191   7.288  0.2729 -0.2817  0.4503
  127OSM    H6F13641   2.993   6.281   7.347 -1.9323  1.4385 -0.9356
  127OSM    H6G13642   3.050   6.161   7.224  0.0584 -0.8524  0.4207
  127OSM    C7F13643   2.925   6.088   7.386  0.0809  0.0631 -0.8556
  127OSM    H7F13644   3.009   6.056   7.451 -0.6662  3.1571  1.9006
  127OSM    H7G13645   2.900   5.996   7.330  0.2941  0.9290 -2.4417
  127OSM    C8F13646   2.803   6.122   7.478 -0.0581  0.0211  0.3616
  127OSM    H8F13647   2.706   6.092   7.433 -1.6656  2.3836  2.0218
  127OSM    H8G13648   2.805   6.233   7.483  0.0034  0.0116  0.5765
  127OSM    C9F13649   2.812   6.075   7.625  0.5751 -0.1275  0.7588
  127OSM    H9F13650   2.761   5.978   7.636 -0.8336  0.2811 -1.4774
  127OSM   C10F13651   2.858   6.148   7.734 -0.3419 -0.4030 -0.0787
  127OSM   H10F13652   2.857   6.098   7.832 -1.4973 -0.0810  0.0914
  127OSM   C11F13653   2.932   6.288   7.724 -0.0421 -0.4788 -0.0618
  127OSM   H11F13654   2.968   6.302   7.620  0.7141  2.9689  0.5377
  127OSM   H11G13655   3.025   6.278   7.785  1.0853 -0.0357 -1.6350
  127OSM   C12F13656   2.844   6.409   7.758 -0.1326  0.1467  0.4116
  127OSM   H12F13657   2.764   6.432   7.685  0.6260  0.7112 -0.2537
  127OSM   H12G13658   2.905   6.501   7.775 -0.0150  0.3159 -0.8343
  127OSM   C13F13659   2.772   6.377   7.895  0.3016 -0.5919  0.4296
  127OSM   H13F13660   2.701   6.292   7.887 -1.1533  0.6310 -0.2466
  127OSM   H13G13661   2.694   6.454   7.916 -0.2571 -0.9787 -0.1881
  127OSM   C14F13662   2.860   6.361   8.021  0.1537  0.1508  0.1140
  127OSM   H14F13663   2.907   6.453   8.061  1.2354 -0.0792 -0.5999
  127OSM   H14G13664   2.935   6.282   7.999 -0.3722 -0.6035  0.9652
  127OSM   C15F13665   2.772   6.319   8.138  0.6774 -0.2938 -0.2765
  127OSM   H15F13666   2.682   6.274   8.090  0.8610 -0.1437 -0.7719
  127OSM   H15G13667   2.731   6.406   8.193  0.0002 -0.8374  0.0935
  127OSM   C16F13668   2.837   6.214   8.227  0.8086  0.5819  0.8011
  127OSM   H16F13669   2.917   6.276   8.274 -1.4906  2.8027  2.0812
  127OSM   H16G13670   2.860   6.119   8.175 -0.5374  0.4126  0.4706
  127OSM   C17F13671   2.749   6.166   8.343 -0.2772 -0.7531 -0.6821
  127OSM   H17F13672   2.812   6.098   8.404  0.8723  0.2145 -0.7642
  127OSM   H17G13673   2.667   6.100   8.308 -0.2768 -1.6687  0.9643
  127OSM   C18F13674   2.689   6.278   8.425 -0.4428  0.1140  0.1703
  127OSM   H18F13675   2.772   6.337   8.471  0.0845 -0.7415  0.3513
  127OSM   H18G13676   2.626   6.237   8.506 -1.4208  1.7751  0.2998
  127OSM   H18H13677   2.624   6.344   8.364 -0.0936  0.4193  0.1194
  128OSM      N13678   4.478   1.499   5.845 -0.3411  0.2924 -0.5904
  128OSM    C1513679   4.463   1.348   5.846 -0.4666  0.3623  0.6303
  128OSM   H15A13680   4.472   1.311   5.745 -2.4633  2.9134 -0.5935
  128OSM   H15B13681   4.367   1.317   5.885 -1.3014 -0.5568 -1.9532
  128OSM   H15C13682   4.537   1.296   5.905  1.1490  1.4026 -0.3949
  128OSM    C1413683   4.604   1.537   5.778  0.5415 -0.5410 -0.5778
  128OSM   H14A13684   4.688   1.497   5.832  2.0759  2.2310 -0.7099
  128OSM   H14B13685   4.612   1.645   5.774  0.2260 -0.4543  0.6621
  128OSM   H14C13686   4.598   1.492   5.680 -3.4756 -4.2179  1.0449
  128OSM    C1313687   4.368   1.560   5.769 -0.1281 -0.0872  0.6000
  128OSM   H13A13688   4.280   1.555   5.831 -1.4312 -0.0794 -1.1753
  128OSM   H13B13689   4.347   1.495   5.686 -0.7203 -0.8655  1.3466
  128OSM   H13C13690   4.389   1.663   5.743  0.5931 -0.4522 -0.3402
  128OSM    C1213691   4.469   1.552   5.991 -0.1819 -0.3053 -0.3225
  128OSM   H12A13692   4.484   1.659   5.994  0.6184 -0.4136 -0.2757
  128OSM   H12B13693   4.558   1.514   6.038  1.3213 -0.7176 -3.2577
  128OSM    C1113694   4.339   1.528   6.082  0.5826 -0.0408  0.3463
  128OSM   H11A13695   4.378   1.515   6.185 -0.3625  1.5795  0.9453
  128OSM   H11B13696   4.299   1.428   6.054  0.7663 -0.4426  1.4532
  128OSM      P13697   4.290   1.775   6.137  0.0911  0.0781  0.1936
  128OSM    O1313698   4.426   1.802   6.092  0.9619  0.4126 -0.8277
  128OSM    O1413699   4.191   1.880   6.100 -0.1260  0.0920 -0.3305
  128OSM    O1113700   4.291   1.755   6.297 -0.5588  0.2401 -0.1681
  128OSM    O1213701   4.247   1.641   6.072  0.1342 -0.0647  0.2888
  128OSM    C1S13702   4.179   1.682   6.354  0.5241 -0.2035 -0.2028
  128OSM    H1S13703   4.173   1.580   6.309 -1.2025 -1.0784  1.8153
  128OSM    H1T13704   4.079   1.728   6.337  0.2847 -0.7917 -0.4396
  128OSM     NF13705   4.071   1.572   6.535  0.7512  0.2449 -0.0445
  128OSM    HNF13706   3.993   1.615   6.581  1.0218  1.9768 -1.1371
  128OSM    C2S13707   4.184   1.659   6.509 -0.0062  0.0272 -1.0336
  128OSM    H2S13708   4.279   1.610   6.538  0.1988  1.9021  1.8796
  128OSM    C3S13709   4.171   1.791   6.584  0.6896 -0.6429 -0.1491
  128OSM    H3S13710   4.082   1.833   6.534  1.6300  1.6062 -0.0725
  128OSM     O313711   4.264   1.899   6.553  0.2185  0.0159  1.0720
  128OSM    HO313712   4.317   1.868   6.480  3.1901  0.8611  2.7332
  128OSM    C4S13713   4.160   1.771   6.729 -0.0870  0.4048 -0.5389
  128OSM    H4S13714   4.057   1.763   6.765  0.0611 -1.5357 -0.4441
  128OSM    C5S13715   4.256   1.753   6.826 -0.1517 -0.6146 -0.4708
  128OSM    H5S13716   4.359   1.744   6.790 -0.2557  0.8495 -1.2137
  128OSM    C6S13717   4.210   1.734   6.972  0.4681 -0.2105 -0.0015
  128OSM    H6S13718   4.261   1.640   6.999 -2.9479 -1.8079  1.4855
  128OSM    H6T13719   4.105   1.698   6.981  0.4495 -0.1362  0.0825
  128OSM    C7S13720   4.240   1.840   7.072 -0.1956  0.2742 -0.0504
  128OSM    H7S13721   4.175   1.927   7.051  1.7106  2.3416  2.0458
  128OSM    H7T13722   4.345   1.875   7.066  1.2177 -3.4808  0.1495
  128OSM    C8S13723   4.221   1.784   7.211 -0.4489 -0.8950  0.0983
  128OSM    H8S13724   4.294   1.702   7.229 -1.8940 -2.1464  0.4749
  128OSM    H8T13725   4.129   1.723   7.207 -1.1226  0.1467 -1.1005
  128OSM    C9S13726   4.240   1.887   7.328 -0.1444  0.9134 -0.3646
  128OSM    H9S13727   4.152   1.955   7.322  0.9524  2.2752 -4.0809
  128OSM    H9T13728   4.335   1.945   7.322  0.2731  0.2490 -0.1864
  128OSM   C10S13729   4.229   1.815   7.473  0.1022 -0.7029 -0.1546
  128OSM   H10S13730   4.316   1.746   7.473  1.4997  0.9454 -1.7417
  128OSM   H10T13731   4.133   1.759   7.470 -1.1492  1.3435 -1.1814
  128OSM   C11S13732   4.211   1.918   7.592 -0.1337  0.5182 -0.7151
  128OSM   H11S13733   4.118   1.971   7.561  1.3295  4.0822  0.4005
  128OSM   H11T13734   4.297   1.989   7.591 -1.1515  1.9317  1.9509
  128OSM   C12S13735   4.194   1.849   7.734 -0.0695  0.0609  0.4095
  128OSM   H12S13736   4.270   1.769   7.742 -0.8052 -0.8655 -1.2776
  128OSM   H12T13737   4.095   1.799   7.740 -0.2341  0.3619  0.2590
  128OSM   C13S13738   4.216   1.942   7.847 -0.0686 -1.0015  0.2839
  128OSM   H13S13739   4.304   2.004   7.819 -0.6332 -0.7308 -0.9695
  128OSM   H13T13740   4.237   1.885   7.940 -0.7160  0.4698  1.3677
  128OSM   C14S13741   4.078   2.022   7.874 -0.0454  0.4430  0.0104
  128OSM   H14S13742   4.004   1.943   7.897  0.8877 -0.3365  0.4286
  128OSM   H14T13743   4.050   2.080   7.784 -1.3631 -1.7883 -1.0868
  128OSM   C15S13744   4.077   2.103   8.003 -0.1463 -0.2792  0.1028
  128OSM   H15S13745   4.153   2.184   8.001  0.2073 -0.6023  0.3234
  128OSM   H15T13746   4.104   2.040   8.090  1.8281 -0.4854 -0.5911
  128OSM   C16S13747   3.943   2.170   8.030  0.0416  0.1163  0.0620
  128OSM   H16S13748   3.872   2.097   8.074  1.0251 -0.0136  1.5371
  128OSM   H16T13749   3.898   2.206   7.935 -0.0105 -3.5229 -1.4466
  128OSM   C17S13750   3.948   2.298   8.123  0.0274  0.1634 -0.1432
  128OSM   H17S13751   3.844   2.334   8.135 -0.5471 -0.3022 -2.9086
  128OSM   H17T13752   4.004   2.370   8.060 -2.1972  0.3490 -2.0400
  128OSM   C18S13753   4.027   2.277   8.250  0.8713 -0.6434 -0.2258
  128OSM   H18S13754   4.017   2.369   8.312 -0.0492 -0.3570 -0.7822
  128OSM   H18T13755   4.132   2.249   8.227  0.6405 -1.0923 -0.7501
  128OSM   H18U13756   3.974   2.201   8.312  0.7995 -0.7176 -0.3783
  128OSM    C1F13757   4.063   1.446   6.510  0.3554  0.7786  0.4633
  128OSM     OF13758   4.164   1.386   6.475  0.3144  0.3721 -0.5965
  128OSM    C2F13759   3.932   1.375   6.541 -0.2532 -0.7299 -0.3718
  128OSM    H2F13760   3.905   1.308   6.457 -0.5809  0.7300 -1.4583
  128OSM    H2G13761   3.854   1.453   6.553  1.9281  1.5993 -0.4216
  128OSM    C3F13762   3.943   1.299   6.676  0.1265 -0.4066 -0.3936
  128OSM    H3F13763   3.994   1.202   6.655  1.1278  0.2644 -1.1675
  128OSM    H3G13764   3.843   1.279   6.721  1.6299 -0.5743  3.2224
  128OSM    C4F13765   4.025   1.377   6.791  0.0239  0.6487  0.1995
  128OSM    H4F13766   3.979   1.474   6.818 -0.1681  0.7438 -0.4711
  128OSM    H4G13767   4.125   1.397   6.747 -0.3387  1.3646 -0.3072
  128OSM    C5F13768   4.032   1.306   6.925  0.4912 -0.5964 -0.1914
  128OSM    H5F13769   4.057   1.198   6.919 -3.2740 -1.7931  1.9124
  128OSM    H5G13770   3.926   1.300   6.960 -0.4456 -3.2038 -2.9837
  128OSM    C6F13771   4.129   1.380   7.024 -0.5540 -0.3772 -0.6236
  128OSM    H6F13772   4.091   1.484   7.025 -2.9866 -1.1954 -0.5439
  128OSM    H6G13773   4.230   1.372   6.980 -0.5650  0.0370 -0.7226
  128OSM    C7F13774   4.133   1.325   7.165  0.6442 -0.2924 -0.0854
  128OSM    H7F13775   4.160   1.219   7.144 -0.0756 -0.4810 -0.0763
  128OSM    H7G13776   4.034   1.327   7.214  0.5381  1.4474 -0.3023
  128OSM    C8F13777   4.243   1.392   7.259 -0.0732 -0.2231 -0.2961
  128OSM    H8F13778   4.187   1.422   7.350  0.4122  1.9379 -0.6476
  128OSM    H8G13779   4.272   1.482   7.201  1.4564 -0.4248  0.0984
  128OSM    C9F13780   4.372   1.311   7.272  0.0307  0.2473  0.2490
  128OSM    H9F13781   4.424   1.311   7.175  0.9586  1.8130  0.7069
  128OSM   C10F13782   4.420   1.242   7.373 -0.5711  0.2436 -0.2265
  128OSM   H10F13783   4.512   1.183   7.356 -2.2742 -2.5414 -0.4865
  128OSM   C11F13784   4.358   1.235   7.512 -0.5780  0.6072  0.3818
  128OSM   H11F13785   4.304   1.139   7.521 -0.8988  0.7344 -0.0990
  128OSM   H11G13786   4.279   1.313   7.525 -0.5943  0.3667  1.8473
  128OSM   C12F13787   4.462   1.248   7.631  0.0743  0.1983 -0.3499
  128OSM   H12F13788   4.530   1.334   7.613  1.3436 -0.9712 -1.3515
  128OSM   H12G13789   4.528   1.159   7.637 -1.4349 -0.9087  0.4232
  128OSM   C13F13790   4.397   1.254   7.768  0.0481  0.0065  0.1396
  128OSM   H13F13791   4.323   1.336   7.756 -2.6846 -2.3919 -0.4711
  128OSM   H13G13792   4.476   1.286   7.840 -0.3618  1.7800 -0.1591
  128OSM   C14F13793   4.328   1.123   7.811 -0.1542  0.4302  0.1042
  128OSM   H14F13794   4.410   1.051   7.833 -0.2525  0.0602 -0.6966
  128OSM   H14G13795   4.269   1.085   7.724  0.7166 -3.6577  1.0809
  128OSM   C15F13796   4.239   1.128   7.938 -0.4313 -0.1008  0.2828
  128OSM   H15F13797   4.205   1.029   7.973 -1.1965  1.1999  3.5410
  128OSM   H15G13798   4.143   1.176   7.911 -0.6330 -1.2040 -1.0798
  128OSM   C16F13799   4.294   1.205   8.054 -0.8578  0.1751 -0.5475
  128OSM   H16F13800   4.295   1.310   8.018 -0.9604 -0.2685 -1.9406
  128OSM   H16G13801   4.402   1.180   8.059 -0.9186 -0.0222 -0.1789
  128OSM   C17F13802   4.223   1.198   8.188  0.3286  0.1284 -0.2383
  128OSM   H17F13803   4.137   1.269   8.184  0.8695  0.7882 -0.2669
  128OSM   H17G13804   4.288   1.239   8.267 -0.8358  0.7874  0.4073
  128OSM   C18F13805   4.162   1.070   8.249  0.8837 -0.1896  0.2462
  128OSM   H18F13806   4.249   1.001   8.249  0.2414 -1.0342 -0.0359
  128OSM   H18G13807   4.085   1.045   8.173  0.6788  2.3067 -0.4445
  128OSM   H18H13808   4.120   1.076   8.352 -0.3447 -0.9061 -0.1887
  129OSM      N13809   1.412   0.124   6.575 -0.3397  0.3778 -0.4139
  129OSM    C1513810   1.486   0.017   6.653 -1.2451  0.4692  0.5912
  129OSM   H15A13811   1.466   0.034   6.758  2.6333 -1.4491  1.8160
  129OSM   H15B13812   1.594   0.020   6.645 -1.2674  1.0541  0.4322
  129OSM   H15C13813   1.452  -0.078   6.617 -0.3291 -0.0391  1.0405
  129OSM    C1413814   1.266   0.110   6.601  0.2803  0.6995  0.4444
  129OSM   H14A13815   1.199   0.177   6.548  0.1897  0.1286 -0.1862
  129OSM   H14B13816   1.248   0.120   6.707  1.1135  0.6586  0.5960
  129OSM   H14C13817   1.234   0.010   6.575 -1.8121  1.0947  1.3141
  129OSM    C1313818   1.441   0.262   6.617 -0.0642  0.1727  0.1658
  129OSM   H13A13819   1.414   0.284   6.720 -0.4209  2.8718 -0.4160
  129OSM   H13B13820   1.378   0.336   6.569  1.2479  0.3347 -1.3804
  129OSM   H13C13821   1.541   0.295   6.596  1.2235 -1.8243  2.6472
  129OSM    C1213822   1.446   0.117   6.425  0.0601 -0.5252  0.3644
  129OSM   H12A13823   1.418   0.212   6.381  0.7001 -0.4985 -0.0037
  129OSM   H12B13824   1.386   0.043   6.373  0.6847 -0.4929 -0.4169
  129OSM    C1113825   1.595   0.084   6.379  0.1825  0.5018  0.3388
  129OSM   H11A13826   1.669   0.140   6.440  0.0945 -1.5171  2.4715
  129OSM   H11B13827   1.614   0.115   6.274 -0.1344 -1.0109 -0.1898
  129OSM      P13828   1.739  -0.125   6.337  0.4530  0.6294  0.0457
  129OSM    O1313829   1.701  -0.167   6.198 -0.8085 -0.4242 -0.0989
  129OSM    O1413830   1.857  -0.031   6.354 -0.5280 -0.1968  0.2873
  129OSM    O1113831   1.746  -0.251   6.436  0.3861 -0.1834 -0.0799
  129OSM    O1213832   1.611  -0.059   6.393 -0.2088 -0.8560 -0.6100
  129OSM    C1S13833   1.775  -0.237   6.573 -0.2039  0.7153 -0.6028
  129OSM    H1S13834   1.718  -0.157   6.626  1.8261  0.6082  1.9378
  129OSM    H1T13835   1.884  -0.214   6.577 -0.3871  1.4962  0.4346
  129OSM     NF13836   1.757  -0.340   6.795  0.2806  0.1680 -0.2191
  129OSM    HNF13837   1.848  -0.350   6.835 -0.3374 -0.4408  1.1359
  129OSM    C2S13838   1.747  -0.372   6.654 -0.3325  0.4444 -0.9508
  129OSM    H2S13839   1.646  -0.408   6.627  0.8422 -1.6414 -2.8749
  129OSM    C3S13840   1.845  -0.477   6.608  0.0739 -0.1982 -0.2796
  129OSM    H3S13841   1.944  -0.427   6.608 -0.5970  1.1954 -0.9646
  129OSM     O313842   1.814  -0.528   6.479  0.2007  0.1302  0.1597
  129OSM    HO313843   1.727  -0.494   6.458 -0.1117 -1.1906 -0.8532
  129OSM    C4S13844   1.838  -0.609   6.687 -0.0783 -0.9642 -0.0123
  129OSM    H4S13845   1.744  -0.658   6.661 -1.5513  3.0032 -3.3447
  129OSM    C5S13846   1.930  -0.657   6.763  0.2296 -0.5098 -0.3528
  129OSM    H5S13847   2.024  -0.602   6.774 -0.4070  0.1908  1.9969
  129OSM    C6S13848   1.922  -0.789   6.836 -0.2577 -0.1885  0.0602
  129OSM    H6S13849   2.011  -0.852   6.816  0.6560  0.0082  3.0278
  129OSM    H6T13850   1.826  -0.842   6.817 -0.9340  0.3441  1.7543
  129OSM    C7S13851   1.940  -0.763   6.986  0.6809  0.3634 -0.2031
  129OSM    H7S13852   1.843  -0.734   7.032 -0.4689 -1.5715 -1.2703
  129OSM    H7T13853   2.020  -0.689   7.005 -0.0598  1.7455 -2.0977
  129OSM    C8S13854   1.982  -0.899   7.054  0.3486  0.7877 -0.2646
  129OSM    H8S13855   2.091  -0.903   7.031  0.9403 -1.7992  2.3692
  129OSM    H8T13856   1.923  -0.980   7.006 -0.5545  0.2155  1.7281
  129OSM    C9S13857   1.941  -0.917   7.201  0.5079 -0.0925  0.3484
  129OSM    H9S13858   1.947  -1.027   7.219 -0.1162 -0.1282  0.3712
  129OSM    H9T13859   1.841  -0.882   7.233  0.1075 -1.8265  1.1258
  129OSM   C10S13860   2.055  -0.856   7.286 -0.4774  0.4179 -0.1326
  129OSM   H10S13861   2.070  -0.747   7.271  0.8941  0.5288  1.6288
  129OSM   H10T13862   2.147  -0.912   7.256 -0.0256  1.2079 -0.2361
  129OSM   C11S13863   2.012  -0.876   7.430  0.5065 -0.1894 -0.1955
  129OSM   H11S13864   2.045  -0.979   7.455  0.7665  0.3191  1.7092
  129OSM   H11T13865   1.904  -0.870   7.456  0.8391  2.4109  0.8464
  129OSM   C12S13866   2.074  -0.767   7.525  0.4855  0.0036  0.2896
  129OSM   H12S13867   2.033  -0.667   7.499  0.8082  0.0838  0.0760
  129OSM   H12T13868   2.183  -0.753   7.503 -0.2126  2.8951 -2.0466
  129OSM   C13S13869   2.053  -0.795   7.673 -0.5290  0.1023  0.1423
  129OSM   H13S13870   2.105  -0.890   7.700 -0.4883  0.4516  1.3383
  129OSM   H13T13871   1.947  -0.800   7.703 -0.3789  2.1525  1.1992
  129OSM   C14S13872   2.099  -0.690   7.777  0.0153  0.0393 -0.1177
  129OSM   H14S13873   2.050  -0.594   7.748  0.1964 -0.2048 -1.3045
  129OSM   H14T13874   2.210  -0.688   7.772  0.0593 -2.3676 -1.7709
  129OSM   C15S13875   2.042  -0.730   7.914 -0.0203 -0.2134  0.2488
  129OSM   H15S13876   2.085  -0.829   7.936  1.4995  0.3436 -0.1142
  129OSM   H15T13877   1.931  -0.732   7.920  0.0437  0.2712  1.8837
  129OSM   C16S13878   2.085  -0.638   8.033  0.4881  0.4662  0.0598
  129OSM   H16S13879   2.048  -0.535   8.015 -2.3681 -0.1048  2.0384
  129OSM   H16T13880   2.196  -0.634   8.024  0.6171 -1.0672  0.6251
  129OSM   C17S13881   2.031  -0.680   8.168 -0.6382 -0.3251  0.2358
  129OSM   H17S13882   2.067  -0.774   8.214  1.6648 -0.0454 -0.8621
  129OSM   H17T13883   1.926  -0.700   8.136 -1.0217  1.3887  0.3000
  129OSM   C18S13884   2.048  -0.572   8.280  1.2242 -0.7448  0.0983
  129OSM   H18S13885   1.987  -0.608   8.366  0.1464 -0.5452 -0.5587
  129OSM   H18T13886   2.010  -0.472   8.249  3.1875  0.2515  0.7485
  129OSM   H18U13887   2.154  -0.554   8.305  1.4199  2.8105 -2.5040
  129OSM    C1F13888   1.660  -0.286   6.874  0.0537 -0.7470 -0.3711
  129OSM     OF13889   1.553  -0.252   6.828  0.2866 -0.2979  0.4337
  129OSM    C2F13890   1.691  -0.273   7.019 -0.0334 -0.1032  0.4496
  129OSM    H2F13891   1.630  -0.195   7.070  2.2523  1.3177  1.1810
  129OSM    H2G13892   1.795  -0.235   7.022 -0.6106  1.6914 -0.6092
  129OSM    C3F13893   1.702  -0.412   7.088  0.1965  0.0019 -0.4344
  129OSM    H3F13894   1.799  -0.452   7.051  0.5064 -1.1508  1.4421
  129OSM    H3G13895   1.621  -0.485   7.072  0.1899 -0.1343  0.1928
  129OSM    C4F13896   1.727  -0.389   7.237 -0.0656 -0.3763  0.6028
  129OSM    H4F13897   1.633  -0.352   7.282 -2.4353 -0.0680 -4.0114
  129OSM    H4G13898   1.805  -0.313   7.258 -1.1089  0.9195 -0.1091
  129OSM    C5F13899   1.769  -0.520   7.314  0.3048 -0.0640 -0.7364
  129OSM    H5F13900   1.877  -0.543   7.305  0.3784 -1.2669  2.0615
  129OSM    H5G13901   1.717  -0.604   7.263 -0.2431  1.0461 -2.0828
  129OSM    C6F13902   1.740  -0.516   7.466 -0.0851 -0.1676 -0.2340
  129OSM    H6F13903   1.759  -0.621   7.495  3.1206  0.5993  0.8318
  129OSM    H6G13904   1.634  -0.491   7.487  0.3684  0.8454  1.0168
  129OSM    C7F13905   1.835  -0.419   7.537 -0.0376  0.5016 -0.3507
  129OSM    H7F13906   1.813  -0.318   7.497  0.6663  0.6588 -0.3466
  129OSM    H7G13907   1.937  -0.453   7.510  0.0734 -1.1769  1.8582
  129OSM    C8F13908   1.828  -0.421   7.689 -0.3980  0.8196  0.5423
  129OSM    H8F13909   1.916  -0.381   7.743  1.0995 -1.7430  0.2212
  129OSM    H8G13910   1.821  -0.531   7.705 -1.0177  0.7420 -0.1801
  129OSM    C9F13911   1.702  -0.356   7.724  0.5658  0.1197  0.4813
  129OSM    H9F13912   1.638  -0.314   7.645 -0.1648 -1.3588  0.2474
  129OSM   C10F13913   1.659  -0.362   7.853  0.2541  0.0872 -0.8240
  129OSM   H10F13914   1.579  -0.295   7.890  1.3065  0.3221  1.1452
  129OSM   C11F13915   1.734  -0.421   7.968  0.0075 -0.0263  0.5861
  129OSM   H11F13916   1.809  -0.498   7.937 -0.1210 -1.3826  3.2716
  129OSM   H11G13917   1.667  -0.478   8.036  1.4896 -0.5314  1.7012
  129OSM   C12F13918   1.821  -0.316   8.037 -0.2620  0.1655  0.2157
  129OSM   H12F13919   1.888  -0.274   7.960 -1.4825  0.5036 -0.6906
  129OSM   H12G13920   1.878  -0.376   8.111 -0.3417  0.2108  0.3151
  129OSM   C13F13921   1.751  -0.202   8.112 -0.1584 -1.1797  0.1815
  129OSM   H13F13922   1.707  -0.137   8.033  0.3922 -0.5310  0.4029
  129OSM   H13G13923   1.831  -0.137   8.153 -2.2858  1.0503  1.0507
  129OSM   C14F13924   1.646  -0.241   8.213 -0.4920 -0.7877 -0.3610
  129OSM   H14F13925   1.567  -0.306   8.169  0.2758 -0.8645 -1.6885
  129OSM   H14G13926   1.607  -0.141   8.242 -2.2894 -0.3200 -3.8480
  129OSM   C15F13927   1.703  -0.299   8.341 -0.3281  0.2042  0.0228
  129OSM   H15F13928   1.766  -0.220   8.387  0.3551 -0.5217  0.3561
  129OSM   H15G13929   1.772  -0.384   8.321 -0.3195 -0.1765  1.5335
  129OSM   C16F13930   1.603  -0.338   8.447 -0.1427 -0.1541  0.1117
  129OSM   H16F13931   1.551  -0.434   8.425  3.3796 -1.5960 -3.1152
  129OSM   H16G13932   1.536  -0.250   8.449  1.7862  1.4150 -0.7070
  129OSM   C17F13933   1.674  -0.352   8.590  0.4424 -0.3503  0.5500
  129OSM   H17F13934   1.589  -0.383   8.655 -0.3829  0.7482  0.0325
  129OSM   H17G13935   1.709  -0.250   8.618 -2.4807  0.3370  2.1597
  129OSM   C18F13936   1.795  -0.446   8.597 -0.4049  0.6429 -0.1490
  129OSM   H18F13937   1.882  -0.410   8.538  0.2587  0.2854  0.5972
  129OSM   H18G13938   1.780  -0.541   8.542  0.3561  0.0310  0.6719
  129OSM   H18H13939   1.825  -0.471   8.701  1.7201 -0.9486 -1.0590
  130OSM      N13940   4.910   1.963   6.327 -0.7538  0.1375  0.3050
  130OSM    C1513941   4.940   1.819   6.324 -0.3089 -0.1366 -0.4141
  130OSM   H15A13942   5.009   1.803   6.242 -0.2059  0.0273 -0.3605
  130OSM   H15B13943   4.849   1.763   6.317 -1.0569  0.8756  0.7542
  130OSM   H15C13944   4.990   1.783   6.413  1.7626  2.0838 -0.5781
  130OSM    C1413945   4.786   1.990   6.414 -0.4699 -0.2491  0.0196
  130OSM   H14A13946   4.701   1.956   6.357 -1.9146  2.5187  0.3478
  130OSM   H14B13947   4.770   2.095   6.431  0.2943 -0.0609 -0.3599
  130OSM   H14C13948   4.795   1.942   6.510 -1.8510  1.9699  1.3305
  130OSM    C1313949   5.027   2.047   6.392 -0.5341  0.0609 -0.1674
  130OSM   H13A13950   5.059   1.994   6.480 -2.3764  1.7701  1.6631
  130OSM   H13B13951   4.975   2.137   6.422 -1.8309 -1.1118  1.3030
  130OSM   H13C13952   5.100   2.064   6.315 -0.3931 -1.3138 -0.3586
  130OSM    C1213953   4.889   2.011   6.185 -0.5075 -0.0266  0.0512
  130OSM   H12A13954   4.858   2.114   6.193  1.8077  0.6560  0.8321
  130OSM   H12B13955   4.813   1.952   6.134 -0.9574  0.3280  0.3102
  130OSM    C1113956   5.005   2.005   6.080 -0.1999  0.0566  0.3375
  130OSM   H11A13957   5.082   2.078   6.112 -2.1257  2.7466 -0.7407
  130OSM   H11B13958   4.960   2.039   5.984 -0.1186 -1.4014 -0.2366
  130OSM      P13959   5.186   1.833   6.018  0.1555  0.1133 -0.4914
  130OSM    O1313960   5.181   1.734   5.906 -0.2141 -0.1552  0.0954
  130OSM    O1413961   5.267   1.958   5.999  0.9961  0.6581  0.0761
  130OSM    O1113962   5.236   1.747   6.150  0.3917 -0.3061  0.0620
  130OSM    O1213963   5.044   1.871   6.064  0.7835 -0.0919  0.4105
  130OSM    C1S13964   5.298   1.814   6.262  0.2478 -0.4202  0.5211
  130OSM    H1S13965   5.225   1.874   6.321  0.5550  0.7922 -0.3021
  130OSM    H1T13966   5.377   1.884   6.229  0.5027 -0.6142  0.7201
  130OSM     NF13967   5.419   1.796   6.480  0.4104  0.5060 -0.0045
  130OSM    HNF13968   5.508   1.836   6.460  0.0009  0.1206 -3.2490
  130OSM    C2S13969   5.366   1.720   6.363  0.5792 -0.0396  0.3725
  130OSM    H2S13970   5.284   1.653   6.396  0.2326  0.9471  1.5922
  130OSM    C3S13971   5.478   1.627   6.310  0.0081 -0.4497 -0.2363
  130OSM    H3S13972   5.562   1.696   6.288  0.1275 -0.2709  0.7269
  130OSM     O313973   5.444   1.569   6.184  0.0218 -0.0204 -0.3573
  130OSM    HO313974   5.369   1.626   6.163 -1.1877 -0.2048  2.9753
  130OSM    C4S13975   5.533   1.522   6.407  0.2944 -0.7688 -0.3874
  130OSM    H4S13976   5.617   1.569   6.461 -0.4404  1.8322 -1.3223
  130OSM    C5S13977   5.486   1.402   6.439  0.3250  0.0571 -0.0318
  130OSM    H5S13978   5.402   1.361   6.381  0.4945 -2.9244  1.6513
  130OSM    C6S13979   5.541   1.307   6.537 -0.0077  0.9614  0.7808
  130OSM    H6S13980   5.570   1.215   6.482  1.8821  1.3657  1.0207
  130OSM    H6T13981   5.440   1.281   6.575 -0.4575  0.0118 -0.9692
  130OSM    C7S13982   5.656   1.347   6.627  0.0550  0.1266 -0.2369
  130OSM    H7S13983   5.629   1.440   6.681  0.7486 -0.9513  2.1150
  130OSM    H7T13984   5.743   1.369   6.562  0.1077  0.4491 -0.0608
  130OSM    C8S13985   5.706   1.246   6.734  1.2930  0.0098 -0.3660
  130OSM    H8S13986   5.801   1.272   6.786  0.4395  0.2498  1.1082
  130OSM    H8T13987   5.731   1.142   6.701 -1.3916 -0.5103 -1.0248
  130OSM    C9S13988   5.602   1.230   6.846  0.1517  0.5634  0.3901
  130OSM    H9S13989   5.501   1.191   6.822 -0.1674  1.1804  0.7048
  130OSM    H9T13990   5.577   1.332   6.882 -0.1079  1.9274 -3.2323
  130OSM   C10S13991   5.658   1.150   6.967 -0.1684 -0.7398 -0.3572
  130OSM   H10S13992   5.760   1.186   6.991  0.0364 -0.7363 -1.2364
  130OSM   H10T13993   5.658   1.045   6.932 -0.3383 -0.0839 -2.4485
  130OSM   C11S13994   5.570   1.149   7.092  0.4009  0.1086  0.1381
  130OSM   H11S13995   5.474   1.100   7.065 -0.8631  1.2009  2.3787
  130OSM   H11T13996   5.552   1.255   7.117  0.2375  0.3264 -0.8590
  130OSM   C12S13997   5.622   1.070   7.213  0.4132 -0.2566 -0.5032
  130OSM   H12S13998   5.726   1.105   7.228  1.0127 -1.9890 -0.4173
  130OSM   H12T13999   5.625   0.959   7.204  0.2667 -0.2208 -1.0117
  130OSM   C13S14000   5.547   1.100   7.339 -0.0166  0.1926 -0.3097
  130OSM   H13S14001   5.439   1.114   7.316  0.0007 -0.4086 -0.7772
  130OSM   H13T14002   5.574   1.199   7.383  0.8119  0.2444 -0.9010
  130OSM   C14S14003   5.556   0.999   7.456  0.5541  0.1851 -0.9067
  130OSM   H14S14004   5.661   0.968   7.472 -0.1798 -1.9940 -0.0450
  130OSM   H14T14005   5.502   0.906   7.430  0.0051 -0.3102  1.7407
  130OSM   C15S14006   5.495   1.069   7.585 -0.8760 -0.0461 -0.4563
  130OSM   H15S14007   5.400   1.123   7.566 -0.7775  0.1494 -0.3941
  130OSM   H15T14008   5.567   1.150   7.613 -0.9662 -0.3996  0.8658
  130OSM   C16S14009   5.469   0.963   7.700  0.4013  0.4715 -0.5119
  130OSM   H16S14010   5.543   0.880   7.698  0.5579  0.6275 -2.0438
  130OSM   H16T14011   5.376   0.912   7.666  1.3388 -0.8761 -1.1510
  130OSM   C17S14012   5.457   1.036   7.833 -0.2347 -0.3522 -0.7159
  130OSM   H17S14013   5.404   0.966   7.901 -0.2918  1.8250  1.6721
  130OSM   H17T14014   5.403   1.132   7.819  2.4235  1.7158  1.8082
  130OSM   C18S14015   5.585   1.082   7.899  0.1657  0.9183 -0.0868
  130OSM   H18S14016   5.549   1.148   7.981  2.2249  1.0144  0.8003
  130OSM   H18T14017   5.644   1.154   7.838 -0.7756  1.9596  0.2017
  130OSM   H18U14018   5.651   1.004   7.942 -1.1242 -0.3515 -0.3368
  130OSM    C1F14019   5.336   1.850   6.574 -0.5937 -0.1433  0.5847
  130OSM     OF14020   5.212   1.837   6.553  0.1402 -0.1033 -0.1548
  130OSM    C2F14021   5.395   1.935   6.684 -0.2397 -0.1777  0.6176
  130OSM    H2F14022   5.406   2.040   6.649 -0.9161 -0.3034  0.0163
  130OSM    H2G14023   5.495   1.896   6.713  1.0413  2.5368  0.2386
  130OSM    C3F14024   5.295   1.937   6.806 -0.2170 -0.2687 -1.0168
  130OSM    H3F14025   5.256   1.834   6.824 -1.1789  0.4667  1.3218
  130OSM    H3G14026   5.211   2.005   6.781  1.2535  2.6220  1.2547
  130OSM    C4F14027   5.353   1.987   6.936 -0.4245  0.5096 -0.6679
  130OSM    H4F14028   5.348   2.098   6.934 -2.2494  0.5077  0.6229
  130OSM    H4G14029   5.455   1.943   6.932 -1.2929 -1.9773  1.4564
  130OSM    C5F14030   5.279   1.948   7.071  0.0785 -0.0582  0.0566
  130OSM    H5F14031   5.272   1.837   7.065 -0.0258 -0.0816  0.5196
  130OSM    H5G14032   5.173   1.981   7.084 -0.4356 -1.4139 -0.4633
  130OSM    C6F14033   5.355   1.976   7.202 -0.2007  0.1301  0.5002
  130OSM    H6F14034   5.355   2.086   7.217  2.7725  0.3784 -0.6075
  130OSM    H6G14035   5.455   1.933   7.182 -0.1309  0.9431 -0.9731
  130OSM    C7F14036   5.301   1.904   7.324  0.7124  0.9215  0.0504
  130OSM    H7F14037   5.318   1.795   7.319 -1.3078  0.5488  0.6306
  130OSM    H7G14038   5.190   1.905   7.323  0.5542 -2.9120 -0.0236
  130OSM    C8F14039   5.354   1.952   7.462 -0.8500  0.9766 -0.9350
  130OSM    H8F14040   5.452   2.002   7.451 -0.1021  0.5388  2.5745
  130OSM    H8G14041   5.368   1.865   7.530 -4.5035  0.7669 -0.2257
  130OSM    C9F14042   5.266   2.045   7.534  0.5903 -0.2564 -0.6485
  130OSM    H9F14043   5.247   2.143   7.489 -0.9740 -0.5204 -0.6387
  130OSM   C10F14044   5.224   2.041   7.661  0.4370  0.3298 -0.1208
  130OSM   H10F14045   5.140   2.107   7.688  0.5373  0.4905 -0.1948
  130OSM   C11F14046   5.247   1.944   7.772  0.1011 -0.3847  0.2361
  130OSM   H11F14047   5.345   1.895   7.754 -1.3332 -2.6186 -2.0794
  130OSM   H11G14048   5.172   1.864   7.783  1.2904 -1.3442  1.6919
  130OSM   C12F14049   5.257   2.013   7.906 -0.2070 -1.0977  1.2143
  130OSM   H12F14050   5.226   2.120   7.909 -1.9892 -1.5940  1.6076
  130OSM   H12G14051   5.356   1.998   7.954  0.3250 -1.2931  0.0923
  130OSM   C13F14052   5.158   1.954   8.007  0.2767  0.0537 -0.4930
  130OSM   H13F14053   5.194   1.851   8.022  3.1077  1.0184 -0.0547
  130OSM   H13G14054   5.058   1.960   7.960 -0.4794  1.5802  1.1630
  130OSM   C14F14055   5.131   2.021   8.145  0.3664  0.6073  0.7851
  130OSM   H14F14056   5.231   2.037   8.191  0.6238 -1.0701  0.8607
  130OSM   H14G14057   5.084   1.946   8.213  1.2995 -0.1829  0.5731
  130OSM   C15F14058   5.065   2.158   8.129  0.5772  0.1220  0.1485
  130OSM   H15F14059   4.968   2.159   8.074  0.3291 -0.3085  0.5738
  130OSM   H15G14060   5.141   2.225   8.084  0.3365 -0.6871 -1.5662
  130OSM   C16F14061   5.035   2.222   8.266 -0.2058  0.0701 -0.3891
  130OSM   H16F14062   5.129   2.235   8.324  1.4420 -1.5308 -2.5341
  130OSM   H16G14063   4.966   2.155   8.322 -2.2751  2.8820  0.6562
  130OSM   C17F14064   4.947   2.343   8.255 -0.3898  0.0155  0.1459
  130OSM   H17F14065   4.863   2.342   8.182  0.4377  1.1388 -0.8571
  130OSM   H17G14066   5.013   2.425   8.220 -0.2903 -0.5484 -1.0513
  130OSM   C18F14067   4.891   2.383   8.395  0.5780  0.4810  0.2481
  130OSM   H18F14068   4.840   2.297   8.443  2.6107 -2.2276 -2.1509
  130OSM   H18G14069   4.817   2.465   8.392  0.2484  0.1606 -0.4755
  130OSM   H18H14070   4.976   2.408   8.462  2.1764 -0.2043 -1.4519
  131OSM      N14071   1.737   4.322   6.011  0.2490  0.1645 -0.3443
  131OSM    C1514072   1.633   4.261   6.104  0.4337 -0.8260  0.8616
  131OSM   H15A14073   1.683   4.208   6.183 -0.5881 -0.0735  2.0529
  131OSM   H15B14074   1.582   4.186   6.046  0.4123  0.6069 -1.0758
  131OSM   H15C14075   1.569   4.327   6.161 -1.0245  0.5164 -2.0944
  131OSM    C1414076   1.813   4.206   5.949 -0.3790  0.3253  0.1540
  131OSM   H14A14077   1.753   4.148   5.882 -1.0454 -0.0922  1.0872
  131OSM   H14B14078   1.858   4.137   6.019 -2.0331  0.1823  1.1373
  131OSM   H14C14079   1.894   4.247   5.890 -0.4727  2.0279  1.1207
  131OSM    C1314080   1.657   4.401   5.910 -0.1095  0.3363 -0.2882
  131OSM   H13A14081   1.721   4.440   5.833  0.2215 -0.9015 -0.6624
  131OSM   H13B14082   1.609   4.487   5.955 -1.5890 -0.2086 -0.7543
  131OSM   H13C14083   1.576   4.338   5.877 -1.2116 -0.8576  3.9647
  131OSM    C1214084   1.826   4.416   6.089 -0.5426  0.2400 -0.2080
  131OSM   H12A14085   1.895   4.365   6.155 -0.2240  1.3324  0.3109
  131OSM   H12B14086   1.756   4.470   6.151 -1.5817  0.0667 -1.1900
  131OSM    C1114087   1.910   4.521   6.016 -0.2766 -0.0948  0.6733
  131OSM   H11A14088   1.964   4.578   6.094 -1.1758  0.5326  0.8517
  131OSM   H11B14089   1.847   4.596   5.963 -1.0598 -1.1396  0.0919
  131OSM      P14090   2.146   4.426   5.935 -0.1733 -0.1439  0.0340
  131OSM    O1314091   2.164   4.277   5.938  0.0864  0.4528  0.6006
  131OSM    O1414092   2.218   4.502   5.828  0.1428  0.2600 -0.0455
  131OSM    O1114093   2.183   4.499   6.067 -0.1803  0.2112  0.3364
  131OSM    O1214094   1.989   4.463   5.910 -0.5912  0.5118  0.9944
  131OSM    C1S14095   2.167   4.438   6.195  0.4642  0.9704 -0.2595
  131OSM    H1S14096   2.140   4.330   6.188 -0.3404  1.1381  0.1138
  131OSM    H1T14097   2.076   4.479   6.244 -0.7207 -1.0575 -0.6413
  131OSM     NF14098   2.247   4.412   6.418 -0.2538 -0.5615 -0.3121
  131OSM    HNF14099   2.219   4.474   6.491 -0.2016 -0.1181 -0.6703
  131OSM    C2S14100   2.279   4.461   6.285 -0.5001  0.2752 -0.1925
  131OSM    H2S14101   2.371   4.412   6.245 -0.7937  0.1265 -0.7008
  131OSM    C3S14102   2.314   4.614   6.285 -0.5371 -0.1117  0.3682
  131OSM    H3S14103   2.217   4.668   6.276 -0.1414  0.4874 -0.4692
  131OSM     O314104   2.401   4.648   6.176 -0.4633 -0.0537 -0.4848
  131OSM    HO314105   2.386   4.572   6.120 -1.9759 -1.0130  1.0998
  131OSM    C4S14106   2.390   4.650   6.412 -0.1435 -0.5998  0.1300
  131OSM    H4S14107   2.493   4.613   6.409  0.3820  0.8141 -0.2143
  131OSM    C5S14108   2.330   4.721   6.511 -0.4400 -0.2494  0.5932
  131OSM    H5S14109   2.227   4.758   6.504 -0.2974 -0.1163 -1.2284
  131OSM    C6S14110   2.412   4.751   6.636  0.2350  0.2477  0.6783
  131OSM    H6S14111   2.406   4.862   6.645  2.6250  0.3341  1.8908
  131OSM    H6T14112   2.522   4.761   6.625  0.0497  2.0691  0.1487
  131OSM    C7S14113   2.367   4.675   6.758 -0.5410 -0.4385 -0.2802
  131OSM    H7S14114   2.368   4.566   6.736  0.2333 -0.6520  0.7543
  131OSM    H7T14115   2.261   4.697   6.783 -0.2695  0.2875  0.2772
  131OSM    C8S14116   2.442   4.723   6.884 -0.4183  0.6676  0.2797
  131OSM    H8S14117   2.411   4.824   6.919  1.4079  1.9828 -1.6441
  131OSM    H8T14118   2.551   4.730   6.862 -0.8618 -0.6233 -2.8310
  131OSM    C9S14119   2.414   4.623   7.009  0.2513 -0.0849 -0.2599
  131OSM    H9S14120   2.461   4.523   7.007 -0.8393 -0.8067  3.4538
  131OSM    H9T14121   2.306   4.598   7.007 -0.4979  2.6569  0.4933
  131OSM   C10S14122   2.432   4.702   7.141 -0.1606 -0.2290 -0.0796
  131OSM   H10S14123   2.388   4.804   7.143 -0.5494 -0.3815 -0.6381
  131OSM   H10T14124   2.541   4.718   7.156 -0.2833 -0.7686  1.5342
  131OSM   C11S14125   2.391   4.623   7.270  0.0384 -0.5028 -1.1181
  131OSM   H11S14126   2.444   4.527   7.285  0.3201 -0.8548 -3.8537
  131OSM   H11T14127   2.282   4.604   7.261  0.2460 -2.4804 -0.0550
  131OSM   C12S14128   2.410   4.704   7.395 -0.0885 -0.0747  0.0084
  131OSM   H12S14129   2.366   4.806   7.383  0.9183  0.6053  1.7790
  131OSM   H12T14130   2.519   4.714   7.413 -0.2142  0.6585  0.4179
  131OSM   C13S14131   2.355   4.622   7.513 -0.5733 -0.5061  0.0903
  131OSM   H13S14132   2.405   4.523   7.505  0.6965  0.1519 -0.3943
  131OSM   H13T14133   2.244   4.621   7.505 -0.7135  1.1297  1.3317
  131OSM   C14S14134   2.391   4.693   7.650 -0.1242 -0.6940  0.1075
  131OSM   H14S14135   2.334   4.787   7.633  2.3924  0.8628 -0.1968
  131OSM   H14T14136   2.501   4.707   7.657 -0.3383  0.8289  0.8437
  131OSM   C15S14137   2.335   4.617   7.765 -0.0197  0.1585 -0.5804
  131OSM   H15S14138   2.402   4.531   7.786  0.0451  0.6384  1.3847
  131OSM   H15T14139   2.240   4.569   7.734 -1.1896 -0.1189  2.9821
  131OSM   C16S14140   2.314   4.706   7.893  0.3081  0.4659 -0.6668
  131OSM   H16S14141   2.233   4.780   7.876  0.6554  0.9817 -0.1176
  131OSM   H16T14142   2.407   4.762   7.914  0.3252  0.0412  0.4644
  131OSM   C17S14143   2.276   4.621   8.018 -0.2381 -0.5492 -0.5857
  131OSM   H17S14144   2.341   4.532   8.007 -0.5308 -1.1365  1.9132
  131OSM   H17T14145   2.174   4.575   8.021 -0.8516  0.7993  1.3018
  131OSM   C18S14146   2.314   4.683   8.151  0.8720 -0.3938 -1.2490
  131OSM   H18S14147   2.408   4.743   8.145 -0.1202  1.3665 -0.1230
  131OSM   H18T14148   2.326   4.599   8.222 -0.0828 -0.7452 -1.4941
  131OSM   H18U14149   2.233   4.746   8.192  1.1751 -0.9567  0.2686
  131OSM    C1F14150   2.242   4.283   6.439  0.8841  0.4325  0.3675
  131OSM     OF14151   2.279   4.204   6.355  0.1050  0.7843 -0.0927
  131OSM    C2F14152   2.186   4.235   6.574 -0.2017  0.6129 -0.1862
  131OSM    H2F14153   2.256   4.152   6.599 -0.3500  0.4730 -0.2393
  131OSM    H2G14154   2.081   4.199   6.574 -0.1483  0.4480  0.2102
  131OSM    C3F14155   2.210   4.339   6.684  0.4975  0.3054  0.8894
  131OSM    H3F14156   2.152   4.426   6.646 -0.1706 -0.5772 -0.1881
  131OSM    H3G14157   2.319   4.359   6.686  0.3411  2.0895 -2.3814
  131OSM    C4F14158   2.174   4.299   6.827 -0.1221 -0.6052 -0.3022
  131OSM    H4F14159   2.069   4.264   6.839  0.5072 -2.3282  0.4886
  131OSM    H4G14160   2.196   4.385   6.894 -1.8572  0.4453 -0.9966
  131OSM    C5F14161   2.265   4.184   6.871 -0.3824 -0.7678  0.1818
  131OSM    H5F14162   2.370   4.218   6.858 -0.7216  0.0305 -0.5370
  131OSM    H5G14163   2.243   4.091   6.815 -2.5066 -0.1721 -0.0428
  131OSM    C6F14164   2.252   4.147   7.018 -0.0300  0.3332  0.0052
  131OSM    H6F14165   2.295   4.045   7.025 -2.5509 -0.7592  1.1141
  131OSM    H6G14166   2.143   4.151   7.040  0.1012  0.2356  0.6722
  131OSM    C7F14167   2.321   4.240   7.116  0.5768 -0.5585  0.2571
  131OSM    H7F14168   2.271   4.339   7.114 -0.4222 -1.0519 -1.1353
  131OSM    H7G14169   2.427   4.243   7.083  0.2070  0.9741 -0.9236
  131OSM    C8F14170   2.310   4.188   7.258 -0.5816 -0.2312 -0.5844
  131OSM    H8F14171   2.344   4.082   7.250  1.2456  0.3029 -0.5177
  131OSM    H8G14172   2.209   4.186   7.303 -0.7571 -3.1928 -0.9266
  131OSM    C9F14173   2.413   4.257   7.349 -0.6099  0.2215  0.3523
  131OSM    H9F14174   2.475   4.334   7.301 -0.0276 -1.6726 -2.1476
  131OSM   C10F14175   2.436   4.224   7.479 -0.3799  0.9864  0.2205
  131OSM   H10F14176   2.511   4.279   7.539 -0.6012  1.6198 -0.0736
  131OSM   C11F14177   2.348   4.118   7.544  0.6123 -0.5290 -0.0612
  131OSM   H11F14178   2.412   4.047   7.601 -1.1139 -0.6470  1.8398
  131OSM   H11G14179   2.283   4.068   7.470  0.2937 -0.4812  0.1873
  131OSM   C12F14180   2.258   4.183   7.659 -0.0690  0.3275 -0.3935
  131OSM   H12F14181   2.211   4.098   7.713 -0.5033  0.0193 -1.2367
  131OSM   H12G14182   2.180   4.247   7.611 -0.3035  1.3384  1.2541
  131OSM   C13F14183   2.328   4.258   7.775 -0.0822  0.2042 -0.2606
  131OSM   H13F14184   2.250   4.313   7.831  1.8267 -0.5275  3.4258
  131OSM   H13G14185   2.396   4.332   7.727  0.1830  0.7805  0.9673
  131OSM   C14F14186   2.393   4.160   7.874 -0.7421  0.5603 -0.0448
  131OSM   H14F14187   2.465   4.094   7.821  0.5101  2.1879 -0.4527
  131OSM   H14G14188   2.317   4.085   7.903 -0.0556 -0.0022  0.3330
  131OSM   C15F14189   2.452   4.217   7.995  0.3580  0.0997 -0.0334
  131OSM   H15F14190   2.392   4.203   8.087 -2.1828  3.5937 -0.9224
  131OSM   H15G14191   2.447   4.328   7.995  0.0061  0.1085  1.5796
  131OSM   C16F14192   2.601   4.186   8.034 -0.5472  0.6651 -0.2383
  131OSM   H16F14193   2.667   4.186   7.945 -1.8087  1.0285 -1.1883
  131OSM   H16G14194   2.600   4.077   8.057 -1.6766  0.6945 -0.0911
  131OSM   C17F14195   2.655   4.254   8.157  0.5393  0.0488  0.6133
  131OSM   H17F14196   2.754   4.210   8.184  0.3985 -0.9311 -0.4076
  131OSM   H17G14197   2.587   4.239   8.244 -1.6315 -1.7572 -1.2615
  131OSM   C18F14198   2.685   4.397   8.128  0.4776  0.2191  0.1913
  131OSM   H18F14199   2.765   4.402   8.051  0.2836  0.5111  0.0055
  131OSM   H18G14200   2.729   4.452   8.213  1.4496 -2.4889  1.5720
  131OSM   H18H14201   2.604   4.460   8.086  1.0734 -0.0839 -1.5198
  132OSM      N14202   5.634   0.193   6.294  0.4291 -0.1601 -0.0743
  132OSM    C1514203   5.696   0.294   6.386 -0.0072  0.4546 -0.9247
  132OSM   H15A14204   5.711   0.252   6.484  1.1612  0.4828 -1.0794
  132OSM   H15B14205   5.633   0.378   6.414  0.4321  1.1383 -1.9506
  132OSM   H15C14206   5.791   0.331   6.351  0.7491 -0.4264  0.1166
  132OSM    C1414207   5.730   0.081   6.272  0.6886  0.4019 -0.1230
  132OSM   H14A14208   5.693   0.021   6.190 -1.3295  1.5492 -0.1001
  132OSM   H14B14209   5.745   0.019   6.359 -3.1546  0.2004  0.5522
  132OSM   H14C14210   5.825   0.127   6.248  1.1677 -1.0897 -1.2843
  132OSM    C1314211   5.511   0.138   6.363  0.4596  0.1220  1.3058
  132OSM   H13A14212   5.453   0.087   6.288  4.1621 -1.4663 -0.7698
  132OSM   H13B14213   5.460   0.220   6.411 -2.5910 -0.8499 -0.0818
  132OSM   H13C14214   5.548   0.060   6.429 -0.1519  0.9479  2.6722
  132OSM    C1214215   5.603   0.255   6.157  0.0300 -0.4615 -0.1003
  132OSM   H12A14216   5.548   0.177   6.104 -1.0107  0.3851 -0.3123
  132OSM   H12B14217   5.689   0.274   6.094 -1.0514 -0.1884 -1.5723
  132OSM    C1114218   5.512   0.383   6.143  0.0763  0.0870 -0.0983
  132OSM   H11A14219   5.408   0.363   6.177 -0.0431  2.1272  0.8324
  132OSM   H11B14220   5.511   0.403   6.034  0.3798 -1.1647 -0.3545
  132OSM      P14221   5.494   0.615   6.258  0.4442 -0.0934 -0.0657
  132OSM    O1314222   5.567   0.673   6.370 -0.0269  0.3669 -0.4084
  132OSM    O1414223   5.468   0.694   6.135  0.3938  0.1129  0.2063
  132OSM    O1114224   5.353   0.557   6.316 -1.3144  0.0777  0.4108
  132OSM    O1214225   5.575   0.487   6.216 -0.0571 -0.4492  0.1205
  132OSM    C1S14226   5.351   0.463   6.421  0.0525 -0.4747  1.1543
  132OSM    H1S14227   5.451   0.416   6.433  0.1544 -0.2065  1.3529
  132OSM    H1T14228   5.278   0.385   6.387  0.0159  0.1739 -0.3429
  132OSM     NF14229   5.316   0.417   6.661  0.2511 -0.7148 -0.9107
  132OSM    HNF14230   5.235   0.371   6.696 -0.8037  1.2801 -0.6146
  132OSM    C2S14231   5.295   0.515   6.556  0.8424  0.4779  0.7326
  132OSM    H2S14232   5.339   0.612   6.591  0.0657  1.3340 -0.6003
  132OSM    C3S14233   5.150   0.556   6.534  0.2773 -0.4269  0.9829
  132OSM    H3S14234   5.100   0.460   6.510 -0.1602 -0.1228  0.6624
  132OSM     O314235   5.127   0.643   6.421 -0.6981  0.3055  0.3534
  132OSM    HO314236   5.209   0.648   6.371 -0.8525 -3.6602 -0.6118
  132OSM    C4S14237   5.084   0.621   6.651  0.0059  0.5359 -0.1983
  132OSM    H4S14238   5.145   0.702   6.693 -0.0882  0.0913  0.8341
  132OSM    C5S14239   4.966   0.589   6.709 -0.3721  0.4654  0.5030
  132OSM    H5S14240   4.902   0.510   6.665 -1.5250  1.2726  0.6883
  132OSM    C6S14241   4.918   0.655   6.832 -0.2879 -0.1610 -0.2233
  132OSM    H6S14242   4.906   0.578   6.912 -3.4379 -1.2953 -1.5967
  132OSM    H6T14243   4.814   0.689   6.817 -1.2001 -3.0735 -1.4114
  132OSM    C7S14244   5.004   0.759   6.899 -0.1560 -1.1893 -0.2241
  132OSM    H7S14245   4.942   0.818   6.971  0.6770 -0.4037 -0.1363
  132OSM    H7T14246   5.058   0.833   6.837 -1.0322 -0.5408 -0.2301
  132OSM    C8S14247   5.114   0.690   6.988 -0.2271  0.0285  0.1643
  132OSM    H8S14248   5.174   0.627   6.919 -1.4282  1.0320 -1.9087
  132OSM    H8T14249   5.046   0.620   7.041 -0.4038 -1.9324 -2.4158
  132OSM    C9S14250   5.203   0.782   7.075  0.4198  0.1587 -0.8650
  132OSM    H9S14251   5.128   0.835   7.138  2.0035  0.5987  0.7110
  132OSM    H9T14252   5.248   0.848   6.997 -0.6458 -0.7449 -2.3144
  132OSM   C10S14253   5.306   0.717   7.168 -0.1353  0.0685  0.0500
  132OSM   H10S14254   5.366   0.802   7.206 -1.8547  0.7348  1.3806
  132OSM   H10T14255   5.382   0.667   7.104  0.6666 -0.0344  1.0686
  132OSM   C11S14256   5.266   0.630   7.286 -0.1036  0.1343  0.1855
  132OSM   H11S14257   5.357   0.575   7.319  0.5343  0.8468 -0.3470
  132OSM   H11T14258   5.176   0.564   7.279 -0.8844  1.2181 -0.1635
  132OSM   C12S14259   5.225   0.721   7.400 -0.3213 -0.5941 -0.3121
  132OSM   H12S14260   5.161   0.805   7.366 -2.8013 -1.8788  0.8670
  132OSM   H12T14261   5.321   0.769   7.427  0.3824 -1.9199 -0.3545
  132OSM   C13S14262   5.162   0.650   7.524 -0.0488 -0.2987  0.1540
  132OSM   H13S14263   5.071   0.607   7.479  0.4647 -2.1443  0.7801
  132OSM   H13T14264   5.149   0.729   7.602  2.0049 -0.4903  0.7697
  132OSM   C14S14265   5.251   0.543   7.573 -0.0869 -0.0650 -0.0623
  132OSM   H14S14266   5.353   0.586   7.579 -0.5613  1.6677 -2.5457
  132OSM   H14T14267   5.254   0.452   7.509 -0.2948 -0.6370  0.7326
  132OSM   C15S14268   5.212   0.488   7.713  0.2133  0.0553  0.1489
  132OSM   H15S14269   5.259   0.389   7.731  0.4363  0.1101 -0.1248
  132OSM   H15T14270   5.101   0.479   7.709  0.1841 -0.2604  1.2200
  132OSM   C16S14271   5.240   0.584   7.830 -0.0013 -0.2603  1.1296
  132OSM   H16S14272   5.185   0.678   7.808 -1.1290 -1.3961 -1.2658
  132OSM   H16T14273   5.350   0.596   7.837  0.1372  0.0931 -0.9656
  132OSM   C17S14274   5.184   0.542   7.961 -0.3445 -0.2165 -0.0317
  132OSM   H17S14275   5.226   0.444   7.996 -1.3875 -1.3522 -1.8113
  132OSM   H17T14276   5.074   0.528   7.962 -0.2838 -0.7198  0.8309
  132OSM   C18S14277   5.211   0.649   8.071 -1.0077  0.4120  0.7781
  132OSM   H18S14278   5.313   0.632   8.112 -1.3470  0.4385  1.6659
  132OSM   H18T14279   5.144   0.646   8.159 -1.3380  1.7832  0.5953
  132OSM   H18U14280   5.201   0.745   8.016  0.3909 -1.0707 -2.3116
  132OSM    C1F14281   5.429   0.362   6.699  0.4666 -0.4619  0.0046
  132OSM     OF14282   5.529   0.406   6.654 -0.0234 -0.0968  0.7055
  132OSM    C2F14283   5.417   0.242   6.789 -0.0093 -0.1732 -0.8040
  132OSM    H2F14284   5.471   0.152   6.751  1.2475  0.7265 -1.2376
  132OSM    H2G14285   5.309   0.219   6.804  0.0270  0.3910  0.4286
  132OSM    C3F14286   5.478   0.273   6.929  0.1568 -0.7250  0.1263
  132OSM    H3F14287   5.415   0.347   6.983  0.0719 -0.8398  0.1849
  132OSM    H3G14288   5.581   0.315   6.923  0.5132 -1.3619  1.4317
  132OSM    C4F14289   5.477   0.158   7.036 -0.8339 -0.8796 -0.7084
  132OSM    H4F14290   5.550   0.077   7.015 -0.8102 -1.1056  0.2091
  132OSM    H4G14291   5.375   0.114   7.034 -0.6707 -1.5491  1.8523
  132OSM    C5F14292   5.502   0.204   7.182 -0.0656  0.1974 -0.1604
  132OSM    H5F14293   5.418   0.271   7.210 -0.0740  0.3969 -0.6599
  132OSM    H5G14294   5.601   0.253   7.184  0.2287 -0.3344 -1.2013
  132OSM    C6F14295   5.501   0.079   7.275 -0.4356  0.2452 -0.0362
  132OSM    H6F14296   5.601   0.031   7.282 -1.8850 -2.7086  3.2941
  132OSM    H6G14297   5.422   0.008   7.244 -1.1861  0.9278  0.2804
  132OSM    C7F14298   5.476   0.133   7.418 -0.5489  0.3569 -0.0647
  132OSM    H7F14299   5.372   0.172   7.419 -0.2578  1.2725  2.6540
  132OSM    H7G14300   5.538   0.223   7.435 -3.1566  2.1853  0.3216
  132OSM    C8F14301   5.490   0.040   7.539 -0.1524 -0.1257  0.4709
  132OSM    H8F14302   5.439  -0.055   7.513 -0.1068  0.0303 -0.1837
  132OSM    H8G14303   5.436   0.085   7.625  1.7688  2.7545  0.3376
  132OSM    C9F14304   5.632   0.009   7.581 -0.1754 -0.5581  0.4011
  132OSM    H9F14305   5.690  -0.054   7.512 -0.4658  0.3852 -0.7242
  132OSM   C10F14306   5.693   0.067   7.689 -0.4270  0.6833  0.6905
  132OSM   H10F14307   5.796   0.033   7.712 -0.2667 -1.0960 -2.2262
  132OSM   C11F14308   5.635   0.170   7.785  0.1324 -0.1941 -0.4011
  132OSM   H11F14309   5.572   0.248   7.737  1.2423  0.5993 -0.6157
  132OSM   H11G14310   5.713   0.234   7.832  0.3852  0.3166 -1.4638
  132OSM   C12F14311   5.554   0.106   7.902  0.4654 -0.4143  0.4569
  132OSM   H12F14312   5.608   0.017   7.941  1.7459 -0.8653 -2.1354
  132OSM   H12G14313   5.455   0.068   7.868 -0.3415  0.2777  1.9328
  132OSM   C13F14314   5.539   0.198   8.022 -0.4240 -0.1268 -0.4811
  132OSM   H13F14315   5.531   0.304   7.987 -0.6768  0.3764  1.0253
  132OSM   H13G14316   5.632   0.192   8.084  2.3802  1.7358 -4.0855
  132OSM   C14F14317   5.422   0.169   8.114  0.5658  0.5255 -0.8696
  132OSM   H14F14318   5.409   0.058   8.116  1.4867  0.4050 -1.2796
  132OSM   H14G14319   5.337   0.227   8.071 -0.1507  1.4394  1.6337
  132OSM   C15F14320   5.434   0.227   8.258 -0.4823  0.0694  0.1213
  132OSM   H15F14321   5.534   0.199   8.297 -0.9289  0.4979  1.6393
  132OSM   H15G14322   5.356   0.183   8.324 -1.2601  1.0515 -0.1327
  132OSM   C16F14323   5.407   0.382   8.269 -0.1644  0.1245 -0.4293
  132OSM   H16F14324   5.308   0.399   8.222 -0.1810 -0.6606 -0.7008
  132OSM   H16G14325   5.482   0.431   8.204 -0.5787 -0.4443 -1.3538
  132OSM   C17F14326   5.416   0.438   8.412 -0.7852 -0.2057 -0.8960
  132OSM   H17F14327   5.504   0.393   8.463 -0.9778  1.1870  0.7445
  132OSM   H17G14328   5.328   0.407   8.471 -1.1276 -1.7399 -2.1441
  132OSM   C18F14329   5.428   0.592   8.422  0.3425 -0.6000 -0.0559
  132OSM   H18F14330   5.433   0.627   8.528  1.6663  0.1927 -0.3546
  132OSM   H18G14331   5.338   0.638   8.377 -0.3201 -1.5882  0.2324
  132OSM   H18H14332   5.519   0.626   8.368  0.9031 -0.7286  0.7899
  133OSM      N14333   4.819   6.418   6.306  0.0314  0.4679 -0.2538
  133OSM    C1514334   4.820   6.352   6.436  0.4256 -0.2275  0.0858
  133OSM   H15A14335   4.782   6.427   6.504  1.4672 -0.0726  0.5239
  133OSM   H15B14336   4.918   6.339   6.481  0.5137  0.9853  0.2751
  133OSM   H15C14337   4.764   6.260   6.427  1.1172 -0.4264 -3.3874
  133OSM    C1414338   4.881   6.332   6.210  0.2193  0.7667 -0.0617
  133OSM   H14A14339   4.872   6.372   6.110 -0.5893  2.9890  0.8298
  133OSM   H14B14340   4.838   6.234   6.190  3.0512 -0.2737 -1.6875
  133OSM   H14C14341   4.984   6.307   6.228 -0.1078  0.4888  1.5812
  133OSM    C1314342   4.671   6.433   6.276 -0.4138  0.3165  0.1614
  133OSM   H13A14343   4.617   6.346   6.239  0.2127  0.2743 -0.6782
  133OSM   H13B14344   4.674   6.508   6.198  0.2285 -0.2948 -0.4118
  133OSM   H13C14345   4.630   6.463   6.371  1.1829 -1.6582  1.5347
  133OSM    C1214346   4.886   6.548   6.313  0.5784 -0.5543 -0.4840
  133OSM   H12A14347   4.866   6.598   6.219 -1.8522 -0.2707  0.1097
  133OSM   H12B14348   4.993   6.546   6.325  0.5384  2.0957  0.9255
  133OSM    C1114349   4.846   6.639   6.433  0.0987  0.2194 -0.2121
  133OSM   H11A14350   4.903   6.735   6.432  0.1763  0.1786  0.0585
  133OSM   H11B14351   4.890   6.598   6.527  2.0886  1.4810 -0.5242
  133OSM      P14352   4.632   6.779   6.391  0.4684 -0.0372  0.0120
  133OSM    O1314353   4.666   6.787   6.250 -0.0909  0.0485  0.3257
  133OSM    O1414354   4.486   6.767   6.425  0.0665 -0.5175 -0.8560
  133OSM    O1114355   4.708   6.892   6.475  0.1764 -0.1251 -0.0576
  133OSM    O1214356   4.703   6.657   6.449 -0.4601  0.6327  0.0538
  133OSM    C1S14357   4.660   6.941   6.592 -0.0836 -0.1918 -0.7406
  133OSM    H1S14358   4.562   6.898   6.621  1.4620 -1.8288  2.6008
  133OSM    H1T14359   4.647   7.052   6.595 -1.8826 -0.3874  1.4003
  133OSM     NF14360   4.673   6.939   6.850 -0.0833  0.0386  0.3920
  133OSM    HNF14361   4.694   7.027   6.891 -2.7821  2.0440 -2.0716
  133OSM    C2S14362   4.747   6.910   6.723 -0.3872 -0.0813 -0.6659
  133OSM    H2S14363   4.778   6.803   6.719  3.2634  0.8718 -2.0109
  133OSM    C3S14364   4.880   6.993   6.707 -0.0871 -0.3860  0.7826
  133OSM    H3S14365   4.879   7.102   6.689  1.0298 -0.1102  2.2601
  133OSM     O314366   4.951   6.942   6.596  0.2452  0.4008  0.0518
  133OSM    HO314367   4.883   6.901   6.541  0.3138  1.0083 -0.4914
  133OSM    C4S14368   4.973   6.965   6.822  0.0299  0.3680 -1.0081
  133OSM    H4S14369   5.017   6.864   6.823 -1.8241 -0.4901  0.4556
  133OSM    C5S14370   5.007   7.051   6.919  0.4308  0.1786 -0.0438
  133OSM    H5S14371   4.971   7.153   6.902 -2.6511 -0.7092  0.6533
  133OSM    C6S14372   5.093   7.014   7.038  0.6949 -0.2376 -0.1663
  133OSM    H6S14373   5.172   7.090   7.051  0.9470 -0.7246  1.2532
  133OSM    H6T14374   5.136   6.912   7.042  0.3890 -0.3339  3.4813
  133OSM    C7S14375   5.007   7.013   7.167  0.6659  0.2670  0.2108
  133OSM    H7S14376   4.932   6.931   7.155  0.8527  0.4211 -2.8272
  133OSM    H7T14377   4.946   7.103   7.188 -0.6472 -1.2980  3.8073
  133OSM    C8S14378   5.092   6.984   7.294 -0.4140  0.2600  0.2536
  133OSM    H8S14379   5.168   7.066   7.296 -0.0808 -0.0713  2.2310
  133OSM    H8T14380   5.153   6.893   7.277 -2.0719 -1.2264  1.9439
  133OSM    C9S14381   5.024   6.987   7.431 -0.2715 -0.6067  0.4937
  133OSM    H9S14382   4.937   6.918   7.435  1.0087 -2.3501 -0.3389
  133OSM    H9T14383   4.981   7.089   7.442  2.5761  0.5674  1.7120
  133OSM   C10S14384   5.114   6.967   7.555 -0.2433  0.3570 -0.5169
  133OSM   H10S14385   5.156   7.064   7.589 -0.2484  1.1893 -2.7248
  133OSM   H10T14386   5.188   6.885   7.554 -2.2139 -1.5853  1.3854
  133OSM   C11S14387   5.013   6.936   7.672  0.2829  0.2964 -0.0878
  133OSM   H11S14388   4.970   6.835   7.653  0.3738  0.2060  0.1906
  133OSM   H11T14389   4.943   7.022   7.671 -0.2597 -0.1249  0.8582
  133OSM   C12S14390   5.080   6.933   7.802 -0.8012 -0.3009 -0.1948
  133OSM   H12S14391   5.140   7.026   7.814 -0.3309 -0.8894  2.9651
  133OSM   H12T14392   5.158   6.856   7.823 -0.4605  0.5671  2.0210
  133OSM   C13S14393   4.988   6.934   7.918  0.1860 -0.2277 -0.2863
  133OSM   H13S14394   4.946   6.833   7.939 -0.3173  0.4352  2.3240
  133OSM   H13T14395   4.888   6.983   7.909 -0.5937 -0.8306  3.4518
  133OSM   C14S14396   5.052   6.980   8.048 -0.2358  0.0859  0.9261
  133OSM   H14S14397   5.101   7.079   8.035  0.5812 -0.3650  0.4435
  133OSM   H14T14398   5.128   6.900   8.065 -1.7661 -1.7384 -0.3712
  133OSM   C15S14399   4.955   6.988   8.165 -0.1516  0.0986 -0.2136
  133OSM   H15S14400   4.906   6.896   8.202  2.8032 -1.0025  1.2605
  133OSM   H15T14401   4.873   7.060   8.143  1.8304  2.6291  0.1203
  133OSM   C16S14402   5.023   7.054   8.287  0.6090  0.6101 -0.1178
  133OSM   H16S14403   5.078   7.143   8.250  0.7213  1.5165  2.1039
  133OSM   H16T14404   5.089   6.978   8.334 -1.4655 -0.0795  1.8818
  133OSM   C17S14405   4.917   7.100   8.394 -0.2998  0.1754  0.2998
  133OSM   H17S14406   4.831   7.147   8.342 -1.1238 -1.7390 -0.1512
  133OSM   H17T14407   4.965   7.181   8.454 -0.8822  0.0044  1.0104
  133OSM   C18S14408   4.868   6.982   8.481  0.1826 -0.0838 -0.1106
  133OSM   H18S14409   4.801   6.910   8.430 -0.3171  0.7352 -0.6488
  133OSM   H18T14410   4.818   7.019   8.574  1.0725  2.1194 -0.4568
  133OSM   H18U14411   4.953   6.916   8.506 -0.6425 -0.3260  2.4093
  133OSM    C1F14412   4.570   6.874   6.893  0.7275 -0.3320  0.0142
  133OSM     OF14413   4.524   6.782   6.827  0.0904  0.0810 -0.6270
  133OSM    C2F14414   4.521   6.910   7.030 -0.8370 -0.3906 -0.6507
  133OSM    H2F14415   4.416   6.875   7.037 -1.6444  1.7522 -1.2771
  133OSM    H2G14416   4.520   7.020   7.042 -0.4739 -0.0965 -2.8069
  133OSM    C3F14417   4.616   6.854   7.132 -0.1510 -0.4060  0.2019
  133OSM    H3F14418   4.710   6.912   7.129 -0.2387 -0.3059 -1.5130
  133OSM    H3G14419   4.636   6.746   7.113 -1.3836 -0.5231 -0.5457
  133OSM    C4F14420   4.550   6.848   7.273  0.5933  0.0085  0.1062
  133OSM    H4F14421   4.455   6.790   7.274 -0.1604  1.1846 -0.7689
  133OSM    H4G14422   4.517   6.951   7.301 -0.7535 -0.8570  1.9690
  133OSM    C5F14423   4.638   6.805   7.387 -0.0335 -0.0587  0.2845
  133OSM    H5F14424   4.722   6.876   7.371  0.0944 -0.1535  0.5184
  133OSM    H5G14425   4.683   6.703   7.379  1.0980  0.1660  2.7717
  133OSM    C6F14426   4.568   6.827   7.519 -0.8256 -0.8165 -0.0813
  133OSM    H6F14427   4.470   6.776   7.509 -1.5673  0.8278 -1.9227
  133OSM    H6G14428   4.539   6.933   7.536 -1.0329 -0.8169 -0.4240
  133OSM    C7F14429   4.647   6.783   7.646  0.0885  0.5152  0.1260
  133OSM    H7F14430   4.725   6.860   7.666  1.5665 -0.9635  0.2908
  133OSM    H7G14431   4.706   6.694   7.617  0.6828  1.4873 -1.8774
  133OSM    C8F14432   4.556   6.767   7.773 -0.1275 -1.2426 -0.8353
  133OSM    H8F14433   4.469   6.705   7.743 -0.6719  0.0437 -2.0282
  133OSM    H8G14434   4.521   6.865   7.813  1.5947 -0.7859 -0.3789
  133OSM    C9F14435   4.651   6.707   7.866 -0.9428  0.0737 -0.4582
  133OSM    H9F14436   4.725   6.638   7.823  1.3556  1.4486  1.0168
  133OSM   C10F14437   4.669   6.734   7.998  0.2206  0.5577  0.9141
  133OSM   H10F14438   4.742   6.674   8.054  0.3010  0.7782  1.0468
  133OSM   C11F14439   4.579   6.828   8.077  0.4717  0.4829 -0.3997
  133OSM   H11F14440   4.491   6.859   8.017 -0.0205  1.6379  0.8727
  133OSM   H11G14441   4.634   6.917   8.115 -1.4809  1.5738  0.0111
  133OSM   C12F14442   4.509   6.752   8.194  0.1914  0.4021 -0.0128
  133OSM   H12F14443   4.459   6.661   8.156  2.4433 -0.4738 -0.9818
  133OSM   H12G14444   4.426   6.812   8.239 -0.6660  0.1229 -1.1710
  133OSM   C13F14445   4.608   6.715   8.306 -0.7190 -0.6913 -0.1231
  133OSM   H13F14446   4.620   6.805   8.370 -2.1371  2.1404 -3.5108
  133OSM   H13G14447   4.702   6.669   8.268 -1.1750  0.0633 -2.2800
  133OSM   C14F14448   4.558   6.611   8.406  0.1255 -0.5887 -0.1646
  133OSM   H14F14449   4.554   6.521   8.341  1.2206 -1.0020  0.3161
  133OSM   H14G14450   4.459   6.641   8.445  1.0275  1.1823  0.8964
  133OSM   C15F14451   4.654   6.563   8.518  0.3514  0.1925  0.4644
  133OSM   H15F14452   4.753   6.527   8.484  0.7799  1.0248  0.8014
  133OSM   H15G14453   4.599   6.479   8.567  0.6961 -0.5935 -0.4463
  133OSM   C16F14454   4.685   6.662   8.630 -0.6071  0.7209  0.3527
  133OSM   H16F14455   4.598   6.718   8.670  1.0021  1.4112  3.1501
  133OSM   H16G14456   4.743   6.751   8.599 -1.2985  1.7481  1.8833
  133OSM   C17F14457   4.747   6.597   8.752  0.3501  0.3088  0.7982
  133OSM   H17F14458   4.848   6.556   8.727  0.7061  0.6822  1.5934
  133OSM   H17G14459   4.677   6.515   8.778 -0.0602 -0.2889 -1.8647
  133OSM   C18F14460   4.761   6.701   8.864  0.0702 -0.4049  0.9812
  133OSM   H18F14461   4.811   6.793   8.830 -1.4028 -0.0906 -0.4739
  133OSM   H18G14462   4.813   6.656   8.951 -0.1902  1.6001  2.2359
  133OSM   H18H14463   4.662   6.739   8.899  0.3373  0.7856  0.4951
  134OSM      N14464   5.699   2.432   6.047  0.2256 -0.1025  0.2233
  134OSM    C1514465   5.747   2.565   5.997  0.2726  0.3798  0.4888
  134OSM   H15A14466   5.693   2.585   5.906 -1.7191 -1.2884  1.2163
  134OSM   H15B14467   5.851   2.564   5.968  0.2861 -3.3610  0.1754
  134OSM   H15C14468   5.726   2.629   6.081  0.4535 -2.5106  2.9469
  134OSM    C1414469   5.563   2.445   6.092  0.3209  0.7909 -0.0037
  134OSM   H14A14470   5.499   2.443   6.005 -3.0585 -1.5170  2.2800
  134OSM   H14B14471   5.556   2.534   6.152  0.5497  0.3753  0.6465
  134OSM   H14C14472   5.530   2.367   6.158  0.7862  2.3149  2.1219
  134OSM    C1314473   5.720   2.323   5.944 -0.5726 -0.0557 -0.2216
  134OSM   H13A14474   5.824   2.298   5.925 -1.0526 -1.3257 -1.3005
  134OSM   H13B14475   5.670   2.348   5.852  1.0519 -0.2085 -1.1867
  134OSM   H13C14476   5.679   2.231   5.983  0.3039 -2.0461 -3.5460
  134OSM    C1214477   5.798   2.398   6.160  0.1156 -0.2258  0.0460
  134OSM   H12A14478   5.895   2.424   6.121  0.4187  0.0356  0.9475
  134OSM   H12B14479   5.776   2.294   6.180 -1.3512 -0.2891 -1.6140
  134OSM    C1114480   5.784   2.484   6.287  0.4503  0.7502 -0.4659
  134OSM   H11A14481   5.826   2.423   6.371 -0.2620 -0.1969 -0.7815
  134OSM   H11B14482   5.680   2.486   6.326 -0.3626 -2.1784 -2.1357
  134OSM      P14483   5.997   2.630   6.290  0.2477 -0.0518  0.0008
  134OSM    O1314484   6.067   2.550   6.186  0.0725  0.2836 -0.3203
  134OSM    O1414485   6.035   2.775   6.306  0.3869 -0.1239  0.3040
  134OSM    O1114486   6.030   2.560   6.430  0.0171  0.3249  0.6201
  134OSM    O1214487   5.844   2.615   6.272  0.2247 -0.2395  0.0966
  134OSM    C1S14488   5.999   2.631   6.548  0.6413  0.6032 -0.2986
  134OSM    H1S14489   5.898   2.677   6.537  1.1789  2.2209  1.1753
  134OSM    H1T14490   6.076   2.709   6.563  1.9031 -0.6954  0.2553
  134OSM     NF14491   5.950   2.603   6.782  0.1083 -0.0251  0.2499
  134OSM    HNF14492   6.021   2.627   6.848  0.0917 -2.3409  1.2351
  134OSM    C2S14493   5.989   2.530   6.660  0.3252  0.1706 -0.8394
  134OSM    H2S14494   5.910   2.454   6.643  0.7055 -0.8103  1.4545
  134OSM    C3S14495   6.123   2.454   6.683 -0.6335 -0.1677 -0.0218
  134OSM    H3S14496   6.199   2.531   6.706 -0.4148 -0.5438  0.5528
  134OSM     O314497   6.157   2.366   6.577 -0.6854  0.4830 -0.1223
  134OSM    HO314498   6.112   2.397   6.498  0.2044  0.4025 -0.6818
  134OSM    C4S14499   6.127   2.376   6.815  0.2863  0.0252  0.1944
  134OSM    H4S14500   6.174   2.428   6.900  4.4284 -1.0652 -1.1686
  134OSM    C5S14501   6.083   2.254   6.827  0.5805 -0.2460  0.1431
  134OSM    H5S14502   6.046   2.201   6.738  3.6193  1.8546 -2.5525
  134OSM    C6S14503   6.086   2.176   6.949 -0.4205  0.5747  0.0377
  134OSM    H6S14504   6.155   2.090   6.938  1.5157  2.2667 -2.0682
  134OSM    H6T14505   5.982   2.141   6.966 -1.4229  1.0799 -3.9772
  134OSM    C7S14506   6.133   2.239   7.084 -0.1725 -0.0738  0.5098
  134OSM    H7S14507   6.068   2.329   7.088 -2.6525 -1.6475 -0.9852
  134OSM    H7T14508   6.242   2.259   7.080  0.1909 -1.7343 -3.5030
  134OSM    C8S14509   6.107   2.157   7.216  0.5303 -0.5457  0.7799
  134OSM    H8S14510   6.188   2.082   7.214  0.8878 -0.1952  1.5163
  134OSM    H8T14511   6.003   2.120   7.208  0.7252 -0.8267 -0.8855
  134OSM    C9S14512   6.126   2.239   7.338  0.7197 -0.1702  0.6197
  134OSM    H9S14513   6.053   2.322   7.335  0.2599 -0.5624 -2.7037
  134OSM    H9T14514   6.234   2.266   7.347  0.5428  0.7217  0.1745
  134OSM   C10S14515   6.098   2.168   7.473  0.4782  0.2978  0.2673
  134OSM   H10S14516   6.162   2.079   7.491 -0.8761 -0.6570  0.5263
  134OSM   H10T14517   6.000   2.119   7.458 -0.1863  1.8313 -0.6158
  134OSM   C11S14518   6.096   2.273   7.584  0.1197  0.1282 -0.0173
  134OSM   H11S14519   6.032   2.355   7.545  3.0524  1.2963 -2.7636
  134OSM   H11T14520   6.200   2.312   7.578  0.4084 -0.3026  1.6402
  134OSM   C12S14521   6.072   2.224   7.722  0.2436  0.5566  0.2006
  134OSM   H12S14522   6.136   2.135   7.735  0.1147  0.3177 -0.7810
  134OSM   H12T14523   5.965   2.206   7.747  0.7054 -0.9549  1.2159
  134OSM   C13S14524   6.105   2.337   7.824  0.1977 -0.2033 -0.5079
  134OSM   H13S14525   6.045   2.419   7.779 -1.2808 -1.3814 -0.7924
  134OSM   H13T14526   6.211   2.368   7.817 -0.7983  3.6335 -0.5033
  134OSM   C14S14527   6.069   2.318   7.970  0.5058 -0.0554 -0.0368
  134OSM   H14S14528   6.123   2.231   8.014 -0.6890 -0.3784  0.8342
  134OSM   H14T14529   5.964   2.283   7.973  0.1127  0.8552 -2.0792
  134OSM   C15S14530   6.080   2.446   8.056  0.5491 -0.2950 -0.4590
  134OSM   H15S14531   6.000   2.515   8.021  0.5568  0.4343  0.9242
  134OSM   H15T14532   6.177   2.497   8.037  1.2870 -0.3586  2.5743
  134OSM   C16S14533   6.070   2.408   8.205 -0.9584  0.1778  0.1385
  134OSM   H16S14534   6.166   2.367   8.241 -0.9303  0.8761  0.8650
  134OSM   H16T14535   5.990   2.332   8.218 -0.3997 -0.3206  0.7130
  134OSM   C17S14536   6.046   2.516   8.309  0.0757 -0.3640  0.2102
  134OSM   H17S14537   6.017   2.481   8.410  1.1911 -0.7994  0.3937
  134OSM   H17T14538   5.961   2.577   8.270  0.2448  0.4513  1.0669
  134OSM   C18S14539   6.168   2.605   8.336 -0.1378 -0.3789  0.5509
  134OSM   H18S14540   6.134   2.702   8.376 -1.1033 -0.3494 -0.3047
  134OSM   H18T14541   6.226   2.628   8.244 -1.2054  1.8676  0.3712
  134OSM   H18U14542   6.236   2.548   8.403 -0.8277 -1.0657  0.6857
  134OSM    C1F14543   5.828   2.663   6.793 -0.6629 -0.0593 -0.5018
  134OSM     OF14544   5.731   2.630   6.723 -0.1106  0.5749 -0.7302
  134OSM    C2F14545   5.827   2.774   6.897 -0.1329  0.1432  0.0274
  134OSM    H2F14546   5.759   2.857   6.869 -0.9975 -0.8531 -0.9685
  134OSM    H2G14547   5.932   2.804   6.912 -0.4709  1.1671  0.4099
  134OSM    C3F14548   5.764   2.719   7.025  0.0202  0.1575 -0.0568
  134OSM    H3F14549   5.825   2.637   7.069 -0.9477 -0.7682 -0.4193
  134OSM    H3G14550   5.674   2.667   6.989  2.7012 -2.7792 -3.2454
  134OSM    C4F14551   5.740   2.828   7.127  0.1944  0.2507 -0.1479
  134OSM    H4F14552   5.701   2.925   7.088 -0.1939 -0.5253 -1.7461
  134OSM    H4G14553   5.838   2.858   7.171 -0.1438  0.7177  0.3110
  134OSM    C5F14554   5.639   2.772   7.231  0.2299  0.2293  0.6661
  134OSM    H5F14555   5.678   2.674   7.265  0.9391 -0.3454 -1.6262
  134OSM    H5G14556   5.555   2.753   7.161  1.9938  2.3358 -2.2666
  134OSM    C6F14557   5.597   2.860   7.351 -0.0014  0.6240 -0.3265
  134OSM    H6F14558   5.525   2.801   7.412 -0.8413  0.4074 -1.4958
  134OSM    H6G14559   5.549   2.954   7.317  0.7607  0.6378 -1.3903
  134OSM    C7F14560   5.718   2.900   7.436  0.2401  0.0137  0.7292
  134OSM    H7F14561   5.690   2.984   7.503  1.4909  1.9358 -1.0721
  134OSM    H7G14562   5.797   2.943   7.372  1.3499 -1.2847  1.1989
  134OSM    C8F14563   5.776   2.777   7.511 -0.4589 -0.0479 -0.4497
  134OSM    H8F14564   5.862   2.809   7.574 -1.1299  0.6267  0.1447
  134OSM    H8G14565   5.817   2.723   7.423  2.3262  1.0186  0.1195
  134OSM    C9F14566   5.680   2.699   7.600 -0.3229  0.0832  0.3773
  134OSM    H9F14567   5.608   2.641   7.540 -2.1952  2.0796  0.5738
  134OSM   C10F14568   5.699   2.673   7.734 -1.1512  0.0243  0.0334
  134OSM   H10F14569   5.626   2.619   7.797  0.7928 -2.6425  0.1560
  134OSM   C11F14570   5.809   2.736   7.816  0.3983 -0.4107  0.2789
  134OSM   H11F14571   5.809   2.845   7.797 -2.6748  0.0773  2.3383
  134OSM   H11G14572   5.904   2.682   7.798 -1.2498 -3.8575  1.0568
  134OSM   C12F14573   5.774   2.713   7.963  0.2647 -0.1016  0.3079
  134OSM   H12F14574   5.869   2.751   8.007  1.0519  0.3011 -1.6600
  134OSM   H12G14575   5.762   2.605   7.986 -0.0372 -0.0996  0.1576
  134OSM   C13F14576   5.642   2.779   8.016  0.3028  0.3494 -0.1147
  134OSM   H13F14577   5.554   2.729   7.972 -0.3146  0.6434  0.7582
  134OSM   H13G14578   5.646   2.888   7.995  1.4159  0.3581  0.0953
  134OSM   C14F14579   5.617   2.776   8.168  0.5904  0.4474 -0.4505
  134OSM   H14F14580   5.702   2.818   8.225  0.1900  1.3433 -0.4957
  134OSM   H14G14581   5.608   2.671   8.204  0.6846  0.7715  0.5342
  134OSM   C15F14582   5.502   2.857   8.226  0.7796 -0.3866  0.6779
  134OSM   H15F14583   5.512   2.859   8.336  4.9812  1.8718  0.4653
  134OSM   H15G14584   5.402   2.815   8.204 -0.2980  3.2674 -2.5732
  134OSM   C16F14585   5.488   3.002   8.190  0.0914  0.1295 -0.7130
  134OSM   H16F14586   5.442   3.020   8.090 -0.8047 -2.5999 -0.8740
  134OSM   H16G14587   5.594   3.034   8.180  0.1740 -0.4894 -2.0684
  134OSM   C17F14588   5.433   3.090   8.305 -0.0265  0.3989 -0.2582
  134OSM   H17F14589   5.371   3.028   8.372 -0.9170  0.5505 -0.9253
  134OSM   H17G14590   5.359   3.164   8.269  0.7827  3.0995  3.0247
  134OSM   C18F14591   5.539   3.173   8.377 -0.4297  0.1418 -0.2248
  134OSM   H18F14592   5.488   3.226   8.461  2.1975 -1.3898  2.5435
  134OSM   H18G14593   5.573   3.255   8.312  0.3520  0.2148  0.2661
  134OSM   H18H14594   5.630   3.123   8.415  0.3953  0.2242 -2.0053
  135OSM      N14595   6.042   1.955   6.291 -0.6517  0.2133  0.0715
  135OSM    C1514596   6.180   2.019   6.303 -0.8915  0.0729  0.0493
  135OSM   H15A14597   6.234   2.009   6.210  0.6884  1.1185  0.8050
  135OSM   H15B14598   6.235   1.977   6.386  0.4375  0.7162 -0.4730
  135OSM   H15C14599   6.186   2.126   6.319 -0.9657 -0.1259  1.5393
  135OSM    C1414600   5.977   2.012   6.173  0.3580  0.1715  0.9019
  135OSM   H14A14601   6.034   2.020   6.082 -2.2060  1.3708 -0.7058
  135OSM   H14B14602   5.966   2.117   6.196 -0.4894  0.1366  0.6841
  135OSM   H14C14603   5.881   1.967   6.151  0.3981 -0.7397  2.4055
  135OSM    C1314604   6.068   1.810   6.277 -0.2351 -0.4903  0.4743
  135OSM   H13A14605   6.067   1.754   6.369 -3.1601 -0.9918  0.2446
  135OSM   H13B14606   6.149   1.775   6.215 -0.1712  0.4160  0.0183
  135OSM   H13C14607   5.981   1.764   6.233 -0.6297  1.8507 -1.4263
  135OSM    C1214608   5.970   1.976   6.425  0.3500  0.2308 -0.4613
  135OSM   H12A14609   6.024   1.940   6.511  1.3627  1.3243 -0.6042
  135OSM   H12B14610   5.880   1.917   6.418  0.7433 -0.2567 -1.7022
  135OSM    C1114611   5.908   2.123   6.440 -0.4450  1.1115 -0.2215
  135OSM   H11A14612   5.994   2.190   6.418  0.1816  0.2621 -0.4425
  135OSM   H11B14613   5.877   2.139   6.545 -1.0464  1.3096 -0.4241
  135OSM      P14614   5.655   2.079   6.371 -0.1368  0.1101  0.0734
  135OSM    O1314615   5.566   2.141   6.267  0.4093  0.2422  0.0240
  135OSM    O1414616   5.664   1.926   6.360 -0.1544 -1.1908  0.1316
  135OSM    O1114617   5.624   2.124   6.516  0.5607 -0.1037  0.1744
  135OSM    O1214618   5.799   2.144   6.354 -0.0331 -0.6058 -0.0431
  135OSM    C1S14619   5.587   2.256   6.551 -0.0731 -1.6301  0.1221
  135OSM    H1S14620   5.500   2.296   6.495  0.1318 -1.2471  0.0716
  135OSM    H1T14621   5.660   2.334   6.520 -1.6988 -0.3446 -0.5847
  135OSM     NF14622   5.542   2.427   6.732  0.3483 -0.4075 -0.3156
  135OSM    HNF14623   5.615   2.493   6.744  1.9550 -2.1016 -0.4296
  135OSM    C2S14624   5.566   2.284   6.708 -0.8897 -0.3784  0.8815
  135OSM    H2S14625   5.471   2.237   6.739 -1.1493  0.6229  1.6715
  135OSM    C3S14626   5.687   2.224   6.789  1.0068  0.1909 -0.0401
  135OSM    H3S14627   5.777   2.274   6.748  0.2882  0.2026 -1.7079
  135OSM     O314628   5.714   2.090   6.761 -0.0894  0.4315  0.0702
  135OSM    HO314629   5.657   2.076   6.685 -2.6501 -0.0580  1.9861
  135OSM    C4S14630   5.660   2.256   6.932 -0.7671  1.0178  0.1731
  135OSM    H4S14631   5.573   2.202   6.972  0.4473 -1.6110 -0.4972
  135OSM    C5S14632   5.732   2.329   7.015 -0.3734  0.3162 -0.1801
  135OSM    H5S14633   5.835   2.351   6.984 -0.0734 -1.4691 -0.5527
  135OSM    C6S14634   5.694   2.351   7.156  0.2542  0.5773 -0.8497
  135OSM    H6S14635   5.583   2.363   7.156  0.2190  0.2746 -0.0255
  135OSM    H6T14636   5.744   2.446   7.187 -0.0377  0.4455  0.0413
  135OSM    C7S14637   5.715   2.231   7.256 -0.7965 -0.3555  0.3791
  135OSM    H7S14638   5.822   2.212   7.279 -1.1170 -0.6697  1.6840
  135OSM    H7T14639   5.685   2.138   7.204 -0.1264  0.1558 -0.9637
  135OSM    C8S14640   5.633   2.240   7.385 -0.4097 -0.1877  0.4062
  135OSM    H8S14641   5.626   2.140   7.434 -2.8625 -1.2107 -1.7795
  135OSM    H8T14642   5.524   2.247   7.366 -0.4736  0.4264  0.9979
  135OSM    C9S14643   5.676   2.353   7.476  1.2325 -0.5755 -0.3029
  135OSM    H9S14644   5.632   2.449   7.443  0.1445 -1.9297 -3.1172
  135OSM    H9T14645   5.787   2.355   7.463  0.9911 -0.3866 -2.8362
  135OSM   C10S14646   5.653   2.314   7.624 -0.1993 -0.1546 -0.8096
  135OSM   H10S14647   5.707   2.379   7.697 -0.7005  0.7896 -1.2589
  135OSM   H10T14648   5.678   2.207   7.638  0.9718  0.0039 -1.5398
  135OSM   C11S14649   5.507   2.327   7.663 -0.4629  0.0567 -0.0463
  135OSM   H11S14650   5.440   2.276   7.589 -0.0743  1.3103 -1.3107
  135OSM   H11T14651   5.478   2.433   7.649  0.1560  0.2949  0.4659
  135OSM   C12S14652   5.469   2.284   7.804 -0.0523 -0.2194 -0.6032
  135OSM   H12S14653   5.490   2.175   7.806  0.1307 -0.1839  1.1190
  135OSM   H12T14654   5.359   2.298   7.810  0.1661  0.8235  2.2084
  135OSM   C13S14655   5.534   2.376   7.911  1.3472  1.5467 -0.1814
  135OSM   H13S14656   5.509   2.482   7.891 -1.3945  1.1260  0.6105
  135OSM   H13T14657   5.644   2.371   7.924  1.0792  0.8957  2.4991
  135OSM   C14S14658   5.483   2.332   8.057  0.4920  0.5938  0.4200
  135OSM   H14S14659   5.540   2.242   8.087 -2.2992 -0.2399  3.8180
  135OSM   H14T14660   5.375   2.309   8.048  0.9074 -1.8993  1.0750
  135OSM   C15S14661   5.491   2.445   8.161 -0.8014  0.8431  0.1479
  135OSM   H15S14662   5.428   2.522   8.113 -1.6361 -0.2237 -0.5383
  135OSM   H15T14663   5.595   2.482   8.148 -0.5342 -0.6160 -2.5468
  135OSM   C16S14664   5.438   2.419   8.300 -0.0225 -0.1548  0.4396
  135OSM   H16S14665   5.483   2.336   8.359  1.5094 -0.8315 -1.5459
  135OSM   H16T14666   5.329   2.402   8.287 -0.0866  0.9685 -0.6498
  135OSM   C17S14667   5.449   2.552   8.386  0.0624  0.4648 -0.0231
  135OSM   H17S14668   5.395   2.634   8.334 -0.7047 -0.1425 -0.1972
  135OSM   H17T14669   5.556   2.581   8.401 -0.8414  2.8364  2.6309
  135OSM   C18S14670   5.398   2.522   8.520 -0.6642  0.4251  0.5516
  135OSM   H18S14671   5.447   2.428   8.554 -1.1485  0.3268  1.0020
  135OSM   H18T14672   5.288   2.507   8.511 -0.5031  0.2513 -1.5559
  135OSM   H18U14673   5.420   2.604   8.592  0.0995  0.3419  0.4243
  135OSM    C1F14674   5.423   2.487   6.726  0.2799 -0.6424  0.4975
  135OSM     OF14675   5.324   2.415   6.694  0.0428 -0.6790  0.1407
  135OSM    C2F14676   5.416   2.637   6.759  0.0717  0.4304 -0.6790
  135OSM    H2F14677   5.401   2.696   6.666  1.1327 -0.2460 -1.3016
  135OSM    H2G14678   5.513   2.666   6.804  0.2195  1.2202 -1.4767
  135OSM    C3F14679   5.303   2.634   6.861  0.0342 -0.1585  0.6121
  135OSM    H3F14680   5.212   2.600   6.807  1.1367 -1.7044 -0.3332
  135OSM    H3G14681   5.303   2.740   6.896 -0.9138 -0.3054  1.0932
  135OSM    C4F14682   5.311   2.541   6.989  0.5418  0.0651 -0.2224
  135OSM    H4F14683   5.402   2.573   7.044  0.2824  0.7640 -0.1960
  135OSM    H4G14684   5.318   2.431   6.973  2.2331 -0.4302  3.0983
  135OSM    C5F14685   5.193   2.569   7.086 -0.3010  0.8941  0.2660
  135OSM    H5F14686   5.109   2.533   7.024 -0.1687 -0.9555  1.0896
  135OSM    H5G14687   5.200   2.678   7.105 -1.9323  1.5326 -2.3074
  135OSM    C6F14688   5.200   2.484   7.211 -0.1659  0.3898 -0.6349
  135OSM    H6F14689   5.211   2.379   7.176  1.4991  0.2082  0.3577
  135OSM    H6G14690   5.101   2.509   7.255  0.0028  2.1498 -1.1583
  135OSM    C7F14691   5.315   2.506   7.314  0.3133 -0.3426 -0.0133
  135OSM    H7F14692   5.387   2.569   7.257  0.1110 -0.3785 -0.3120
  135OSM    H7G14693   5.359   2.413   7.355  1.0590 -0.3406 -0.7816
  135OSM    C8F14694   5.280   2.593   7.434  0.5124  0.5693 -0.2096
  135OSM    H8F14695   5.244   2.690   7.393  1.9111  1.0157 -0.4100
  135OSM    H8G14696   5.378   2.612   7.482  1.3634 -1.6196 -1.0007
  135OSM    C9F14697   5.183   2.518   7.521 -0.1316  0.0998 -0.0910
  135OSM    H9F14698   5.097   2.475   7.467 -0.0364 -2.2070  1.4475
  135OSM   C10F14699   5.175   2.516   7.654 -0.2391 -0.0687 -0.4118
  135OSM   H10F14700   5.090   2.464   7.699  0.2547  1.3578  2.3853
  135OSM   C11F14701   5.265   2.574   7.760  0.3230 -0.0169 -0.2582
  135OSM   H11F14702   5.350   2.614   7.700  0.5075  0.2557  0.1871
  135OSM   H11G14703   5.298   2.492   7.827 -3.2232 -0.2540  1.4328
  135OSM   C12F14704   5.205   2.693   7.833 -0.5554  0.1525  0.6642
  135OSM   H12F14705   5.151   2.768   7.772 -1.8565 -1.2909 -0.0246
  135OSM   H12G14706   5.291   2.738   7.888  0.1956  1.0742 -1.1574
  135OSM   C13F14707   5.107   2.639   7.935  0.0219 -0.2332  0.1082
  135OSM   H13F14708   5.160   2.564   7.999  0.8027  0.2639  0.0587
  135OSM   H13G14709   5.015   2.592   7.894 -0.6700  1.5303 -0.4468
  135OSM   C14F14710   5.054   2.760   8.024  0.6158 -0.0645 -0.0793
  135OSM   H14F14711   5.002   2.831   7.956  2.8217  0.5653 -1.2297
  135OSM   H14G14712   5.145   2.812   8.061 -0.1393  0.1733  1.5368
  135OSM   C15F14713   4.971   2.715   8.143 -1.0800 -0.1205  0.4696
  135OSM   H15F14714   5.038   2.658   8.211  0.4710  1.0612 -0.0121
  135OSM   H15G14715   4.878   2.658   8.119 -0.7430  0.4107 -2.3875
  135OSM   C16F14716   4.925   2.840   8.220 -1.0365  0.2324  0.8081
  135OSM   H16F14717   4.855   2.902   8.160 -0.6403  0.0224  0.1327
  135OSM   H16G14718   5.020   2.896   8.233 -0.0328 -0.8909 -1.2779
  135OSM   C17F14719   4.854   2.813   8.354 -0.0228  0.8919  0.0536
  135OSM   H17F14720   4.858   2.907   8.413  0.3400 -0.3307  2.0442
  135OSM   H17G14721   4.894   2.730   8.415 -1.0459  0.7207  0.4953
  135OSM   C18F14722   4.711   2.762   8.341  0.0573 -0.5109 -1.1007
  135OSM   H18F14723   4.708   2.678   8.268 -0.1702  0.4668 -2.2423
  135OSM   H18G14724   4.657   2.850   8.299  2.1136 -0.1381 -3.1846
  135OSM   H18H14725   4.673   2.730   8.439  0.6600  0.5264 -0.5070
  136OSM      N14726   3.248   4.197   6.108  0.5512 -0.0908 -0.3027
  136OSM    C1514727   3.343   4.130   6.013  0.7854  0.0102  0.2845
  136OSM   H15A14728   3.444   4.122   6.050  1.7467 -1.0156 -2.3181
  136OSM   H15B14729   3.347   4.182   5.919  1.1811  1.3618  1.0140
  136OSM   H15C14730   3.305   4.030   5.999 -1.3403  0.7756  0.2767
  136OSM    C1414731   3.116   4.220   6.034 -0.4078 -0.4307  0.7334
  136OSM   H14A14732   3.126   4.268   5.937  1.2589 -0.6693  0.7574
  136OSM   H14B14733   3.048   4.275   6.096  1.0649  1.8215  0.4702
  136OSM   H14C14734   3.073   4.121   6.026  2.5338 -1.8161  0.7255
  136OSM    C1314735   3.221   4.107   6.223 -0.1386 -0.0252 -0.2401
  136OSM   H13A14736   3.138   4.140   6.283  0.7039 -1.2997  1.7391
  136OSM   H13B14737   3.310   4.098   6.284 -0.2187 -0.0285 -0.1231
  136OSM   H13C14738   3.194   4.007   6.193  2.1648 -1.6194  2.4817
  136OSM    C1214739   3.301   4.328   6.153 -0.2231 -0.2153 -0.5198
  136OSM   H12A14740   3.396   4.322   6.203 -1.2649  0.3422  1.6512
  136OSM   H12B14741   3.237   4.358   6.235 -0.5815 -2.3040  0.0149
  136OSM    C1114742   3.308   4.446   6.054 -0.1649  0.2700 -0.1569
  136OSM   H11A14743   3.329   4.398   5.956 -0.2908 -0.6968  0.2792
  136OSM   H11B14744   3.390   4.516   6.079 -0.3833  1.2302 -1.9411
  136OSM      P14745   3.094   4.592   6.137 -0.2083  0.2129  0.0261
  136OSM    O1314746   3.089   4.731   6.094  0.8335 -0.7236  0.6699
  136OSM    O1414747   2.965   4.524   6.163  0.2056  0.5492 -0.3041
  136OSM    O1114748   3.173   4.589   6.269  0.0315 -0.2832 -0.5880
  136OSM    O1214749   3.187   4.514   6.034 -0.5034 -0.1503 -0.2969
  136OSM    C1S14750   3.277   4.679   6.304 -0.1764 -0.9154  0.0620
  136OSM    H1S14751   3.267   4.786   6.275  2.3259 -0.8674 -0.8912
  136OSM    H1T14752   3.371   4.643   6.258  0.6048  1.9734 -0.8255
  136OSM     NF14753   3.364   4.786   6.517  0.4791 -0.0147  0.4202
  136OSM    HNF14754   3.456   4.763   6.547  0.1991  0.1319  1.4478
  136OSM    C2S14755   3.294   4.671   6.464 -0.1952  0.1819  0.1406
  136OSM    H2S14756   3.192   4.674   6.508 -0.3389  1.8431 -0.2565
  136OSM    C3S14757   3.363   4.526   6.497  0.4246 -0.0426  0.3953
  136OSM    H3S14758   3.457   4.514   6.439 -0.4510 -2.5754 -0.5996
  136OSM     O314759   3.283   4.414   6.443  0.4777  0.5039 -0.0291
  136OSM    HO314760   3.244   4.461   6.369 -0.8311  0.4828  0.6117
  136OSM    C4S14761   3.377   4.519   6.642 -0.5865 -0.0277 -0.2437
  136OSM    H4S14762   3.284   4.495   6.696 -0.1481 -2.7937 -0.5405
  136OSM    C5S14763   3.488   4.526   6.719 -0.1869  0.0379 -0.1103
  136OSM    H5S14764   3.581   4.545   6.664 -0.9110  0.5084 -1.2239
  136OSM    C6S14765   3.499   4.514   6.872 -0.1844 -0.1122  0.0028
  136OSM    H6S14766   3.601   4.553   6.891  0.1644 -0.8213 -0.3907
  136OSM    H6T14767   3.499   4.408   6.904  0.2434 -0.2924 -0.5922
  136OSM    C7S14768   3.397   4.593   6.952  0.2221 -0.1184 -0.7715
  136OSM    H7S14769   3.293   4.566   6.923  0.4646  0.0092 -1.8000
  136OSM    H7T14770   3.413   4.701   6.929 -0.1359  0.6403  2.1528
  136OSM    C8S14771   3.410   4.579   7.100 -0.3490  0.3216 -0.0330
  136OSM    H8S14772   3.422   4.479   7.147  1.1903  0.4619 -0.0735
  136OSM    H8T14773   3.309   4.609   7.135 -0.4892 -0.5472  0.3367
  136OSM    C9S14774   3.511   4.685   7.156 -0.4331  0.1085 -0.3465
  136OSM    H9S14775   3.503   4.789   7.117  1.4960  0.4010 -0.0501
  136OSM    H9T14776   3.614   4.646   7.143 -0.6267 -0.0741 -1.3639
  136OSM   C10S14777   3.493   4.714   7.308  0.0635 -0.5966 -0.4520
  136OSM   H10S14778   3.397   4.766   7.329  1.2547  0.7202  2.1984
  136OSM   H10T14779   3.566   4.788   7.347  0.1407  0.3850 -2.3501
  136OSM   C11S14780   3.467   4.592   7.401 -0.1162 -0.1948 -0.3750
  136OSM   H11S14781   3.559   4.530   7.404 -1.3072 -2.0016  0.7457
  136OSM   H11T14782   3.388   4.526   7.359 -0.7088 -0.0927  0.5545
  136OSM   C12S14783   3.433   4.624   7.551  0.2639 -0.1380  0.2934
  136OSM   H12S14784   3.465   4.728   7.574  0.2234 -0.3266  1.2211
  136OSM   H12T14785   3.501   4.565   7.615  1.9015  0.2564 -1.0184
  136OSM   C13S14786   3.288   4.628   7.595 -0.1137  0.5862 -0.1272
  136OSM   H13S14787   3.237   4.547   7.540  2.3349 -0.6244 -0.7588
  136OSM   H13T14788   3.235   4.717   7.555 -1.5201 -0.4254 -0.5691
  136OSM   C14S14789   3.262   4.624   7.751  0.6997  0.4602  0.5680
  136OSM   H14S14790   3.292   4.522   7.784 -0.8385 -0.2364 -0.0699
  136OSM   H14T14791   3.152   4.631   7.769  0.6730  0.6971  0.3116
  136OSM   C15S14792   3.335   4.717   7.840 -0.2074  0.2625  0.4406
  136OSM   H15S14793   3.306   4.823   7.828  1.0546  0.3872 -2.5546
  136OSM   H15T14794   3.446   4.718   7.827  0.0613  3.1963  2.0696
  136OSM   C16S14795   3.314   4.680   7.992 -0.4205 -0.1099 -0.7081
  136OSM   H16S14796   3.372   4.756   8.049  0.9514 -0.3671 -1.7053
  136OSM   H16T14797   3.353   4.578   8.012 -2.4326 -0.7628  0.1120
  136OSM   C17S14798   3.172   4.689   8.039 -0.2916  0.5384  0.2798
  136OSM   H17S14799   3.116   4.615   7.978  0.6012  2.4039 -3.0717
  136OSM   H17T14800   3.127   4.790   8.024 -0.6672  0.4009  0.4755
  136OSM   C18S14801   3.164   4.672   8.189 -0.5276  0.1023  0.3649
  136OSM   H18S14802   3.064   4.700   8.228 -1.2586 -2.1871  0.2867
  136OSM   H18T14803   3.231   4.745   8.239  0.7351 -1.1454  0.5426
  136OSM   H18U14804   3.196   4.571   8.222  1.2794  0.8452  0.9714
  136OSM    C1F14805   3.325   4.912   6.498 -0.1620  0.4945 -0.2454
  136OSM     OF14806   3.208   4.938   6.472  0.5074  1.0192 -0.4553
  136OSM    C2F14807   3.434   5.020   6.498 -0.0215  0.2850  0.5664
  136OSM    H2F14808   3.440   5.053   6.392 -1.3591 -3.1472 -0.7207
  136OSM    H2G14809   3.535   4.976   6.504  0.5468  1.4801  0.0840
  136OSM    C3F14810   3.413   5.129   6.601 -0.3020 -0.4299  0.4181
  136OSM    H3F14811   3.306   5.148   6.624 -0.6092 -2.4284  0.8344
  136OSM    H3G14812   3.463   5.216   6.553 -0.0587 -0.8605 -0.1237
  136OSM    C4F14813   3.476   5.087   6.736  0.5888  0.0031 -0.0977
  136OSM    H4F14814   3.577   5.043   6.727  1.0466  0.8978  0.5408
  136OSM    H4G14815   3.411   5.003   6.771  0.8479  0.4302  1.4634
  136OSM    C5F14816   3.456   5.198   6.845 -0.0691  0.1202 -0.5157
  136OSM    H5F14817   3.347   5.216   6.843  0.2307  2.2421  0.1794
  136OSM    H5G14818   3.512   5.288   6.812  1.3231 -0.8685 -0.9499
  136OSM    C6F14819   3.511   5.157   6.982 -0.1094 -0.0640  0.4408
  136OSM    H6F14820   3.621   5.145   6.971 -0.1489 -0.9002  0.8929
  136OSM    H6G14821   3.474   5.054   6.999 -0.0920 -0.2906 -0.8654
  136OSM    C7F14822   3.483   5.261   7.086 -0.7828  0.2777 -0.2832
  136OSM    H7F14823   3.378   5.297   7.089 -0.8599  0.1273 -1.1240
  136OSM    H7G14824   3.543   5.353   7.073 -2.4227  1.5308  0.5907
  136OSM    C8F14825   3.523   5.209   7.238 -0.3955 -0.1407  0.5390
  136OSM    H8F14826   3.499   5.299   7.298 -1.4096  0.4694 -0.7216
  136OSM    H8G14827   3.632   5.192   7.233 -0.4195 -0.9011  2.0786
  136OSM    C9F14828   3.439   5.091   7.270  0.3545  0.5362 -0.1691
  136OSM    H9F14829   3.461   4.994   7.222 -1.0278 -0.1454  0.4937
  136OSM   C10F14830   3.323   5.089   7.346  0.1152 -0.4028 -0.2640
  136OSM   H10F14831   3.284   4.993   7.382  0.2575 -0.2178  0.3904
  136OSM   C11F14832   3.263   5.209   7.420 -0.3156 -0.3068  0.1887
  136OSM   H11F14833   3.286   5.299   7.359 -0.2860 -0.0878  0.5202
  136OSM   H11G14834   3.312   5.203   7.519 -0.0248  0.9837  0.1401
  136OSM   C12F14835   3.102   5.208   7.426 -0.7177  0.3552 -0.5109
  136OSM   H12F14836   3.070   5.162   7.330 -1.3825 -1.6325  0.6113
  136OSM   H12G14837   3.065   5.313   7.431 -2.0901 -0.1626  1.0117
  136OSM   C13F14838   3.049   5.131   7.552  0.1584  0.3770 -1.0805
  136OSM   H13F14839   3.109   5.039   7.568  0.4330  0.9614  1.7746
  136OSM   H13G14840   2.943   5.103   7.537  0.2772  0.7577 -2.7857
  136OSM   C14F14841   3.057   5.208   7.681 -0.2224  0.3730  0.8604
  136OSM   H14F14842   2.966   5.254   7.726  1.8722  5.2239  0.6978
  136OSM   H14G14843   3.122   5.296   7.665 -0.2045  0.0696 -0.8553
  136OSM   C15F14844   3.137   5.124   7.785 -0.1379 -0.3901  0.1200
  136OSM   H15F14845   3.234   5.091   7.742  0.0247  0.5273 -0.2387
  136OSM   H15G14846   3.103   5.019   7.796  2.5661 -1.2269  1.3241
  136OSM   C16F14847   3.147   5.193   7.915 -0.9700  0.2320  0.2575
  136OSM   H16F14848   3.050   5.219   7.963 -2.1060 -1.0187 -1.2740
  136OSM   H16G14849   3.188   5.295   7.898  0.4665 -0.3091  0.3616
  136OSM   C17F14850   3.222   5.105   8.026 -0.2455  0.6763 -0.3496
  136OSM   H17F14851   3.332   5.110   8.018 -0.0374 -1.4355  0.4835
  136OSM   H17G14852   3.192   5.001   8.002 -0.0815  0.8517 -1.3206
  136OSM   C18F14853   3.188   5.142   8.169 -0.1766 -0.1945  0.2900
  136OSM   H18F14854   3.222   5.246   8.185  2.1725 -0.7312 -0.8487
  136OSM   H18G14855   3.241   5.067   8.233  2.3069  1.8307  0.7382
  136OSM   H18H14856   3.079   5.126   8.182  0.0451 -3.7887 -1.1078
  137OSM      N14857   0.729   0.659   6.496 -0.4210  0.3538  0.0118
  137OSM    C1514858   0.688   0.771   6.410  1.2348 -0.3282  0.2724
  137OSM   H15A14859   0.702   0.761   6.303 -0.7719 -0.9007  0.0208
  137OSM   H15B14860   0.746   0.857   6.441  1.0439 -0.1307  0.0918
  137OSM   H15C14861   0.582   0.787   6.424  0.8022 -2.1872 -0.6590
  137OSM    C1414862   0.867   0.625   6.480 -0.6026 -0.2216  0.6744
  137OSM   H14A14863   0.880   0.598   6.376 -4.9135  0.0118 -0.0966
  137OSM   H14B14864   0.893   0.540   6.541  2.9623 -1.1320 -1.7923
  137OSM   H14C14865   0.930   0.702   6.521 -1.5388  0.2481  1.2697
  137OSM    C1314866   0.717   0.703   6.648 -0.3471 -0.3394  1.2381
  137OSM   H13A14867   0.773   0.638   6.713 -0.0558 -2.5856 -1.0945
  137OSM   H13B14868   0.611   0.718   6.661 -0.5639 -1.0331  0.3083
  137OSM   H13C14869   0.768   0.798   6.658 -1.0691  0.3597 -1.0783
  137OSM    C1214870   0.637   0.542   6.477 -0.0198  0.6639 -0.1948
  137OSM   H12A14871   0.535   0.565   6.505 -1.3415 -1.5854 -2.6939
  137OSM   H12B14872   0.667   0.461   6.542  0.5220  0.5940 -0.5335
  137OSM    C1114873   0.623   0.478   6.337  0.3544 -0.7423  0.1005
  137OSM   H11A14874   0.565   0.550   6.276 -0.5215  1.1113  2.8868
  137OSM   H11B14875   0.551   0.394   6.350  0.6073 -0.9884 -0.0682
  137OSM      P14876   0.811   0.299   6.318 -0.2387 -0.2013  0.2872
  137OSM    O1314877   0.776   0.191   6.223  0.2580  0.6750  0.6829
  137OSM    O1414878   0.954   0.327   6.327  0.3607 -0.2436  0.2194
  137OSM    O1114879   0.754   0.264   6.461  0.1536 -0.0156  0.0059
  137OSM    O1214880   0.741   0.430   6.274  0.5277 -0.4124 -1.1256
  137OSM    C1S14881   0.827   0.175   6.551  0.3105  1.3717  0.1377
  137OSM    H1S14882   0.932   0.209   6.566  0.4482  0.1844  2.2080
  137OSM    H1T14883   0.837   0.071   6.513 -0.4496  0.2150  2.8454
  137OSM     NF14884   0.845   0.107   6.802 -1.0021  0.0287  0.0896
  137OSM    HNF14885   0.812   0.021   6.841  0.3551  0.9156  3.6044
  137OSM    C2S14886   0.771   0.181   6.698 -0.1013  0.3421 -0.5812
  137OSM    H2S14887   0.782   0.284   6.738  0.0230 -0.1065  0.5816
  137OSM    C3S14888   0.618   0.142   6.695 -0.1327  0.0216 -0.1919
  137OSM    H3S14889   0.598   0.036   6.669 -3.0909  0.5565 -0.3806
  137OSM     O314890   0.533   0.206   6.599  0.6349  0.0225 -0.3732
  137OSM    HO314891   0.587   0.227   6.523  0.8385  0.6377 -0.0646
  137OSM    C4S14892   0.565   0.164   6.837 -0.0878  0.3098  0.0995
  137OSM    H4S14893   0.570   0.272   6.861  1.7460  0.8639 -2.4027
  137OSM    C5S14894   0.496   0.070   6.909  0.3529  0.1929 -0.7672
  137OSM    H5S14895   0.486  -0.034   6.874 -1.9914 -0.1850  0.8098
  137OSM    C6S14896   0.427   0.083   7.040  0.9770 -0.4777 -0.0145
  137OSM    H6S14897   0.317   0.065   7.032  1.0704 -0.8280 -0.5725
  137OSM    H6T14898   0.426   0.189   7.071 -1.1851 -0.4477 -0.0288
  137OSM    C7S14899   0.499  -0.004   7.152  0.2536  0.5095  0.8988
  137OSM    H7S14900   0.603   0.035   7.146  1.1430 -1.8340  0.0170
  137OSM    H7T14901   0.496  -0.113   7.132 -2.2747  0.5508  0.7377
  137OSM    C8S14902   0.427   0.009   7.282 -0.2024  0.2197  0.5015
  137OSM    H8S14903   0.322  -0.025   7.280  0.2651 -1.3418  0.8087
  137OSM    H8T14904   0.432   0.112   7.322  0.1404  1.3272 -2.1340
  137OSM    C9S14905   0.505  -0.080   7.381 -0.1071  0.2470 -0.1891
  137OSM    H9S14906   0.605  -0.032   7.386  0.9977 -1.6159 -2.6060
  137OSM    H9T14907   0.525  -0.181   7.340  2.3020  1.4213 -2.1689
  137OSM   C10S14908   0.448  -0.089   7.524  0.9854  0.2743  0.0964
  137OSM   H10S14909   0.509  -0.160   7.585 -0.4291 -0.6208  0.5142
  137OSM   H10T14910   0.357  -0.148   7.502 -0.3206  1.9142  0.8700
  137OSM   C11S14911   0.424   0.041   7.607 -0.3735 -0.5444 -0.2283
  137OSM   H11S14912   0.357   0.112   7.554  0.6653  0.8303  0.2534
  137OSM   H11T14913   0.523   0.091   7.607  0.0199 -1.2666 -1.3460
  137OSM   C12S14914   0.363  -0.003   7.739 -0.8205  0.2482 -0.2671
  137OSM   H12S14915   0.294  -0.088   7.722 -2.8631  1.8647 -0.4027
  137OSM   H12T14916   0.300   0.079   7.780  0.5968  1.5273 -0.5385
  137OSM   C13S14917   0.449  -0.051   7.857 -0.5014 -0.3720  0.0931
  137OSM   H13S14918   0.487  -0.151   7.828 -2.1333 -0.5794 -1.5017
  137OSM   H13T14919   0.382  -0.055   7.946  0.6079 -4.2682  0.9483
  137OSM   C14S14920   0.563   0.038   7.902 -0.2126 -0.0199  0.2520
  137OSM   H14S14921   0.518   0.134   7.935 -1.9529 -1.0454  1.0304
  137OSM   H14T14922   0.639   0.065   7.826 -2.6296  0.5912 -2.0793
  137OSM   C15S14923   0.638  -0.027   8.024 -0.0847 -0.4101 -0.2333
  137OSM   H15S14924   0.677  -0.129   8.005  1.5892  0.2863 -0.7812
  137OSM   H15T14925   0.568  -0.035   8.110  0.7327  1.1381  0.6291
  137OSM   C16S14926   0.756   0.061   8.072  0.0425 -0.3076 -0.0719
  137OSM   H16S14927   0.717   0.158   8.110  2.7188  0.6165  0.5189
  137OSM   H16T14928   0.820   0.066   7.981 -0.0034  0.6313 -0.0626
  137OSM   C17S14929   0.844  -0.003   8.181 -0.3268 -0.4102 -0.3604
  137OSM   H17S14930   0.939   0.056   8.179  0.4374 -1.6090 -0.3005
  137OSM   H17T14931   0.854  -0.106   8.141 -2.4596 -0.7088 -0.2559
  137OSM   C18S14932   0.759   0.000   8.313 -0.0007  0.2113  0.6924
  137OSM   H18S14933   0.705   0.097   8.323  2.0326  1.4552  0.1839
  137OSM   H18T14934   0.817  -0.007   8.407  0.9946  1.2912  0.1921
  137OSM   H18U14935   0.689  -0.086   8.309 -0.0018  0.2496 -2.2378
  137OSM    C1F14936   0.960   0.143   6.843 -0.6912 -0.1141  1.0206
  137OSM     OF14937   1.025   0.233   6.788 -0.2269 -1.0077 -0.3616
  137OSM    C2F14938   0.998   0.070   6.970  0.5770 -0.3794  0.4924
  137OSM    H2F14939   0.949  -0.030   6.971 -1.4997  0.5908  0.3554
  137OSM    H2G14940   0.944   0.128   7.048 -2.7644 -0.0822 -1.8429
  137OSM    C3F14941   1.154   0.058   6.992 -0.7015  0.0100 -0.2033
  137OSM    H3F14942   1.184   0.123   7.077 -0.1890  0.5041 -0.7570
  137OSM    H3G14943   1.193   0.101   6.898 -1.9881  1.8415  0.0489
  137OSM    C4F14944   1.196  -0.089   6.993  0.0173  0.2185  0.3203
  137OSM    H4F14945   1.305  -0.098   6.975 -0.0170 -2.1012  0.8434
  137OSM    H4G14946   1.141  -0.140   6.912  1.3761 -1.4521  0.3823
  137OSM    C5F14947   1.159  -0.157   7.123 -0.5527 -0.0365 -0.1932
  137OSM    H5F14948   1.176  -0.266   7.110 -1.4621 -0.0438 -1.5642
  137OSM    H5G14949   1.049  -0.147   7.126 -0.6666 -1.3640  1.4994
  137OSM    C6F14950   1.246  -0.103   7.244 -0.3793  0.5758  0.2937
  137OSM    H6F14951   1.204  -0.149   7.336 -2.1620  1.0257 -0.2610
  137OSM    H6G14952   1.237   0.008   7.254 -1.2356  0.8299 -2.4771
  137OSM    C7F14953   1.401  -0.141   7.234 -0.3398  0.8905  0.4871
  137OSM    H7F14954   1.449  -0.080   7.155  1.2826 -0.8610  0.0299
  137OSM    H7G14955   1.406  -0.249   7.206  0.3565  1.1923 -0.6226
  137OSM    C8F14956   1.484  -0.120   7.360  0.8491  0.3927  0.2396
  137OSM    H8F14957   1.490  -0.011   7.384 -1.6689  0.3795  1.3596
  137OSM    H8G14958   1.587  -0.141   7.325  0.7653 -0.2780  0.3908
  137OSM    C9F14959   1.456  -0.219   7.470  0.0180 -0.3612 -0.3128
  137OSM    H9F14960   1.447  -0.327   7.455  0.4553 -1.1204  3.7845
  137OSM   C10F14961   1.398  -0.178   7.587  0.4307 -0.4633 -0.2959
  137OSM   H10F14962   1.378  -0.259   7.658 -0.8298 -0.9756 -1.2059
  137OSM   C11F14963   1.367  -0.036   7.623  0.2271 -0.0363 -0.0951
  137OSM   H11F14964   1.264  -0.012   7.591  1.0798  1.4157 -1.9025
  137OSM   H11G14965   1.431   0.036   7.568  1.6224 -0.8123  0.4412
  137OSM   C12F14966   1.388   0.011   7.772 -0.4122  0.5296  0.3182
  137OSM   H12F14967   1.373   0.121   7.780 -0.7419  0.4324  1.1176
  137OSM   H12G14968   1.487  -0.028   7.804 -0.7499  0.1694  0.9383
  137OSM   C13F14969   1.290  -0.049   7.874  0.4031 -1.1781 -0.7052
  137OSM   H13F14970   1.245  -0.138   7.826  0.4388 -1.1385 -0.8130
  137OSM   H13G14971   1.207   0.024   7.872  0.5410 -1.0055 -0.2390
  137OSM   C14F14972   1.351  -0.060   8.017  0.0419 -0.3417  0.2694
  137OSM   H14F14973   1.397   0.032   8.059  0.0400 -0.8655  1.4677
  137OSM   H14G14974   1.429  -0.138   8.019 -1.6681 -2.1175  1.6384
  137OSM   C15F14975   1.248  -0.093   8.128  0.1917  0.5471  0.2925
  137OSM   H15F14976   1.224  -0.199   8.104  0.4992  1.1478 -3.0512
  137OSM   H15G14977   1.167  -0.020   8.110 -0.3049 -0.5829 -2.6464
  137OSM   C16F14978   1.304  -0.085   8.271 -0.4831  0.1312  0.0636
  137OSM   H16F14979   1.398  -0.025   8.262 -1.0509  0.7318 -3.5381
  137OSM   H16G14980   1.325  -0.185   8.314 -0.4862  0.6231  1.2444
  137OSM   C17F14981   1.202  -0.018   8.355 -0.0913 -1.0407 -0.3032
  137OSM   H17F14982   1.131   0.043   8.296 -0.2786  0.9695  1.8276
  137OSM   H17G14983   1.240   0.050   8.434 -0.3137  0.0631 -1.1376
  137OSM   C18F14984   1.118  -0.122   8.430  0.3971  0.0599  0.1193
  137OSM   H18F14985   1.168  -0.169   8.517  0.5706  0.9000  0.4913
  137OSM   H18G14986   1.093  -0.207   8.364 -0.7180  1.1727 -0.9666
  137OSM   H18H14987   1.024  -0.082   8.473 -0.3398 -0.2454 -1.1528
  138OSM      N14988   1.386   3.659   5.941  0.3169 -0.4026  0.6543
  138OSM    C1514989   1.479   3.779   5.926  0.0795  0.6898  0.1743
  138OSM   H15A14990   1.448   3.841   5.843 -1.1108 -2.1367 -1.6409
  138OSM   H15B14991   1.574   3.730   5.907 -1.5110 -1.8781 -1.9217
  138OSM   H15C14992   1.478   3.831   6.020 -1.3195 -1.2077  1.2863
  138OSM    C1414993   1.395   3.589   5.811  0.1048 -0.0173  0.5887
  138OSM   H14A14994   1.328   3.629   5.736  0.3989  1.0765  0.8949
  138OSM   H14B14995   1.375   3.486   5.833 -0.4533  0.4977  2.7005
  138OSM   H14C14996   1.498   3.592   5.777  0.3428  1.7758  1.3441
  138OSM    C1314997   1.450   3.568   6.043 -0.3736 -0.3819 -0.6957
  138OSM   H13A14998   1.383   3.484   6.058  0.1805 -0.7978 -0.5168
  138OSM   H13B14999   1.458   3.621   6.137  2.1584 -2.0996  0.1468
  138OSM   H13C15000   1.547   3.536   6.010 -0.6218 -0.4612 -1.3699
  138OSM    C1215001   1.245   3.705   5.980  0.8917  0.0807  0.3196
  138OSM   H12A15002   1.167   3.631   5.979  1.8263 -0.9284 -0.6227
  138OSM   H12B15003   1.207   3.772   5.904  1.5791  0.8767  0.6551
  138OSM    C1115004   1.238   3.796   6.104  0.1479  0.5663  0.7775
  138OSM   H11A15005   1.294   3.736   6.178 -0.9521 -0.6905  0.6204
  138OSM   H11B15006   1.130   3.795   6.131  0.0678 -2.2717  0.6062
  138OSM      P15007   1.193   4.038   6.006 -0.0221 -0.1142 -0.1976
  138OSM    O1315008   1.285   4.123   5.930  0.0313 -0.1591  0.2270
  138OSM    O1415009   1.101   3.964   5.920 -0.3992  0.0708 -0.0380
  138OSM    O1115010   1.116   4.127   6.118 -0.2146  0.1776  0.3324
  138OSM    O1215011   1.286   3.933   6.078 -0.6489 -0.6698 -0.4397
  138OSM    C1S15012   1.166   4.132   6.251  0.2861 -0.1717 -0.0340
  138OSM    H1S15013   1.272   4.165   6.259 -0.1396  1.1961  0.1583
  138OSM    H1T15014   1.151   4.033   6.300  1.3452  0.4187  1.5453
  138OSM     NF15015   1.114   4.239   6.460  0.2197 -0.0190 -0.2392
  138OSM    HNF15016   1.046   4.196   6.519 -0.9406  0.3296 -1.3077
  138OSM    C2S15017   1.071   4.237   6.325 -0.5943  0.9712 -0.8259
  138OSM    H2S15018   1.088   4.334   6.274 -0.8117  1.9763  0.9443
  138OSM    C3S15019   0.918   4.206   6.312  0.3265 -0.0214 -0.4065
  138OSM    H3S15020   0.912   4.106   6.359 -0.1062  1.1285  2.1442
  138OSM     O315021   0.857   4.209   6.184 -0.3910  0.2322 -0.4183
  138OSM    HO315022   0.936   4.224   6.131 -0.5314  0.7996 -0.4743
  138OSM    C4S15023   0.835   4.290   6.408  0.1101 -0.0967 -0.1921
  138OSM    H4S15024   0.801   4.239   6.499  1.0129  0.4057  0.4327
  138OSM    C5S15025   0.798   4.420   6.390 -0.4771  0.4207  0.1851
  138OSM    H5S15026   0.824   4.467   6.294  1.7756  1.4628  1.2317
  138OSM    C6S15027   0.701   4.499   6.480 -0.0556 -0.0871  0.0885
  138OSM    H6S15028   0.610   4.533   6.426 -0.5854 -1.4772  0.0521
  138OSM    H6T15029   0.769   4.584   6.501  1.0436 -0.9568  0.1557
  138OSM    C7S15030   0.652   4.444   6.610 -0.4039 -0.4880  0.0427
  138OSM    H7S15031   0.735   4.456   6.682  0.9928  1.2734 -1.7579
  138OSM    H7T15032   0.622   4.338   6.596 -0.1427 -0.4097 -1.2518
  138OSM    C8S15033   0.539   4.536   6.666 -0.3576  0.1569 -0.5041
  138OSM    H8S15034   0.463   4.560   6.589 -0.9374 -3.1731 -1.1102
  138OSM    H8T15035   0.583   4.631   6.704 -0.2001  0.6602 -1.8824
  138OSM    C9S15036   0.459   4.473   6.776  0.3564  0.2359  0.2520
  138OSM    H9S15037   0.412   4.375   6.754 -0.7857  0.8843 -0.2585
  138OSM    H9T15038   0.370   4.538   6.782 -1.3684 -1.9383 -0.3933
  138OSM   C10S15039   0.524   4.463   6.917 -0.0431 -0.8566  0.1533
  138OSM   H10S15040   0.602   4.385   6.905  1.2041  0.4698 -0.5785
  138OSM   H10T15041   0.442   4.420   6.979 -1.4456 -0.5777 -1.4134
  138OSM   C11S15042   0.587   4.586   6.980 -0.5475 -0.2446 -0.3888
  138OSM   H11S15043   0.518   4.671   6.964  0.5523  1.0580  1.4082
  138OSM   H11T15044   0.687   4.611   6.940 -0.0690 -0.9591  0.3216
  138OSM   C12S15045   0.619   4.578   7.130  1.1044 -0.2823  0.4811
  138OSM   H12S15046   0.690   4.657   7.159  2.7244 -1.9548  1.2445
  138OSM   H12T15047   0.677   4.484   7.141  0.0780 -1.0426 -0.3123
  138OSM   C13S15048   0.499   4.571   7.217  0.0502 -0.3253 -0.8790
  138OSM   H13S15049   0.438   4.484   7.186  0.2921 -0.5254 -0.7868
  138OSM   H13T15050   0.435   4.661   7.200 -0.4374 -0.8366 -1.8275
  138OSM   C14S15051   0.532   4.573   7.362 -0.2068  0.1284 -0.3170
  138OSM   H14S15052   0.615   4.646   7.374 -0.5721  0.4669  0.1623
  138OSM   H14T15053   0.571   4.470   7.381  1.5897  0.9963  1.0036
  138OSM   C15S15054   0.412   4.593   7.458 -0.3192  0.4505  0.0106
  138OSM   H15S15055   0.328   4.532   7.418 -0.6294 -0.0741  1.3977
  138OSM   H15T15056   0.378   4.696   7.436  1.0797  0.4387 -2.6078
  138OSM   C16S15057   0.436   4.570   7.611  0.5566  0.4345 -0.7756
  138OSM   H16S15058   0.517   4.636   7.650 -0.0775  0.4412  0.5783
  138OSM   H16T15059   0.454   4.464   7.638 -3.4547  0.0284  0.8317
  138OSM   C17S15060   0.306   4.608   7.692 -0.0548  0.2607  0.8056
  138OSM   H17S15061   0.291   4.718   7.684 -1.2460  0.0157 -1.0137
  138OSM   H17T15062   0.322   4.591   7.800  0.6740 -0.5051  0.5922
  138OSM   C18S15063   0.183   4.538   7.637  0.2571 -0.2119 -0.3655
  138OSM   H18S15064   0.171   4.577   7.534  1.0832  1.0411 -0.0032
  138OSM   H18T15065   0.096   4.575   7.696  0.8820  0.7827 -0.0432
  138OSM   H18U15066   0.188   4.427   7.639 -0.5169 -0.2652  2.3458
  138OSM    C1F15067   1.241   4.268   6.499  0.4085  0.0024 -0.5158
  138OSM     OF15068   1.302   4.338   6.424 -0.3485 -0.5203 -0.0964
  138OSM    C2F15069   1.289   4.220   6.630 -0.4416 -0.1377  0.0310
  138OSM    H2F15070   1.389   4.178   6.608  1.1803  2.0736  2.5355
  138OSM    H2G15071   1.226   4.138   6.669 -0.2729  0.8389  2.5072
  138OSM    C3F15072   1.306   4.336   6.732 -0.9425  0.1383  0.0889
  138OSM    H3F15073   1.214   4.398   6.736 -0.4342  1.1184 -1.9272
  138OSM    H3G15074   1.377   4.411   6.692  0.5529 -0.5623  1.3221
  138OSM    C4F15075   1.361   4.281   6.873  0.1774  0.0767  0.0927
  138OSM    H4F15076   1.456   4.227   6.852 -0.4941 -0.9707 -0.3386
  138OSM    H4G15077   1.285   4.203   6.893  0.7326 -0.2907  0.8537
  138OSM    C5F15078   1.383   4.385   6.979  0.1195 -0.2435  0.0678
  138OSM    H5F15079   1.296   4.453   6.974 -2.0886 -2.9189 -0.3707
  138OSM    H5G15080   1.473   4.448   6.963 -0.6115  0.6019 -0.7442
  138OSM    C6F15081   1.400   4.327   7.115 -0.5265  0.0629  0.1668
  138OSM    H6F15082   1.481   4.253   7.099 -1.5818 -1.4885  1.6618
  138OSM    H6G15083   1.313   4.262   7.139  1.7614 -2.7541  1.3747
  138OSM    C7F15084   1.427   4.413   7.237  0.6092 -0.0342  0.0881
  138OSM    H7F15085   1.352   4.495   7.237  0.3259 -0.1641 -3.2230
  138OSM    H7G15086   1.521   4.467   7.213  1.1665 -0.3554  1.4442
  138OSM    C8F15087   1.446   4.341   7.378  0.2222  0.2769 -0.2021
  138OSM    H8F15088   1.526   4.397   7.430 -0.5715 -0.2722  1.6936
  138OSM    H8G15089   1.481   4.237   7.359  1.2214  1.0025 -2.8148
  138OSM    C9F15090   1.316   4.335   7.455  0.0036 -0.0163  0.1021
  138OSM    H9F15091   1.240   4.281   7.397 -0.3538 -0.5348  1.0274
  138OSM   C10F15092   1.293   4.379   7.579  0.0849  0.0131  0.4248
  138OSM   H10F15093   1.193   4.360   7.620 -0.8599  1.5668 -1.0103
  138OSM   C11F15094   1.401   4.438   7.671  0.3525 -0.0748  0.8406
  138OSM   H11F15095   1.406   4.548   7.656  0.3776 -0.0188  1.2439
  138OSM   H11G15096   1.503   4.394   7.662  0.9589  1.6035 -1.0622
  138OSM   C12F15097   1.355   4.419   7.808  0.4755  0.4007  0.5002
  138OSM   H12F15098   1.246   4.441   7.811  0.8208  2.8473 -1.6093
  138OSM   H12G15099   1.407   4.485   7.880  1.6561 -1.3735  1.3432
  138OSM   C13F15100   1.386   4.276   7.864 -0.1909 -0.4479  0.0687
  138OSM   H13F15101   1.495   4.270   7.889 -0.1278  1.3136  0.3541
  138OSM   H13G15102   1.343   4.207   7.789 -2.2053 -1.5544  2.1304
  138OSM   C14F15103   1.309   4.251   7.988  0.3049  0.2883  0.5444
  138OSM   H14F15104   1.202   4.237   7.962  0.8780 -3.2298 -0.3904
  138OSM   H14G15105   1.307   4.341   8.053 -3.1325  0.8989 -0.1918
  138OSM   C15F15106   1.356   4.119   8.058  0.3776 -0.3086  1.0923
  138OSM   H15F15107   1.465   4.113   8.077  0.3422  1.1120  1.8541
  138OSM   H15G15108   1.317   4.028   8.008  1.2322 -1.4841  2.4983
  138OSM   C16F15109   1.298   4.110   8.197  0.3539 -0.3735  1.1728
  138OSM   H16F15110   1.190   4.135   8.198  0.5258  1.0855 -1.9403
  138OSM   H16G15111   1.346   4.190   8.258 -1.4282  0.7185  1.2005
  138OSM   C17F15112   1.309   3.975   8.257 -0.0783 -0.1847 -0.4541
  138OSM   H17F15113   1.417   3.954   8.267 -0.2317  0.1318  2.8939
  138OSM   H17G15114   1.267   3.903   8.183 -0.6678 -0.1748 -0.1403
  138OSM   C18F15115   1.241   3.961   8.391  0.0476 -0.2531  0.4054
  138OSM   H18F15116   1.290   3.866   8.421  0.0288 -0.7832 -1.1254
  138OSM   H18G15117   1.130   3.960   8.386  0.0172  1.1005  0.5418
  138OSM   H18H15118   1.272   4.044   8.457  0.7167 -0.7669  0.7547
  139OSM      N15119   6.497   4.385   6.050 -0.4208  0.6312 -0.0333
  139OSM    C1515120   6.483   4.241   6.097  0.2786 -0.3443 -0.4102
  139OSM   H15A15121   6.559   4.215   6.169 -0.7749  0.9175  1.2253
  139OSM   H15B15122   6.503   4.180   6.010  0.5868 -0.3563 -0.3313
  139OSM   H15C15123   6.379   4.223   6.121 -0.0722  1.4635 -0.4538
  139OSM    C1415124   6.621   4.396   5.962 -0.2449 -0.6359 -0.0713
  139OSM   H14A15125   6.633   4.497   5.926 -1.5877 -0.3154  0.3273
  139OSM   H14B15126   6.636   4.322   5.884  1.1998 -0.7682  0.3109
  139OSM   H14C15127   6.708   4.388   6.025 -0.6222 -0.5843  0.4594
  139OSM    C1315128   6.381   4.415   5.962  0.7604  0.5590 -0.2239
  139OSM   H13A15129   6.288   4.393   6.011 -0.6303  3.5002 -1.2812
  139OSM   H13B15130   6.390   4.352   5.874 -0.7274  0.6384 -0.4686
  139OSM   H13C15131   6.372   4.517   5.925  0.0639  0.3016 -0.7936
  139OSM    C1215132   6.500   4.492   6.159  0.1248 -0.0196  0.3723
  139OSM   H12A15133   6.406   4.499   6.212  0.7795  1.1129  1.4307
  139OSM   H12B15134   6.506   4.583   6.101 -3.1032 -1.1888 -2.0817
  139OSM    C1115135   6.617   4.493   6.258 -0.0817  1.1428  0.0445
  139OSM   H11A15136   6.604   4.393   6.305 -3.7664  0.4333 -2.0715
  139OSM   H11B15137   6.615   4.564   6.343 -2.5433 -0.0902  1.1115
  139OSM      P15138   6.822   4.624   6.163  0.1429  0.3769 -0.3895
  139OSM    O1315139   6.908   4.610   6.045  0.3957  0.3669 -0.1194
  139OSM    O1415140   6.724   4.736   6.165  0.4424  0.0225 -0.2046
  139OSM    O1115141   6.913   4.621   6.290  0.8526 -0.1376  0.6755
  139OSM    O1215142   6.739   4.489   6.183  0.1958  0.2403 -0.5079
  139OSM    C1S15143   6.870   4.638   6.419 -0.3128  0.4249 -0.3734
  139OSM    H1S15144   6.822   4.547   6.461 -1.0928  2.1656  2.8930
  139OSM    H1T15145   6.791   4.716   6.419 -0.3615  0.4612 -3.0892
  139OSM     NF15146   6.940   4.694   6.653  0.1475  0.3502 -0.1882
  139OSM    HNF15147   6.939   4.783   6.699 -2.5141  0.0949  0.3883
  139OSM    C2S15148   6.986   4.687   6.518 -0.2387 -1.0794 -0.2348
  139OSM    H2S15149   7.061   4.607   6.503  0.3314 -0.1094 -3.1630
  139OSM    C3S15150   7.053   4.820   6.475 -0.2704 -0.4358  0.3304
  139OSM    H3S15151   6.986   4.908   6.468  4.5144  3.4871 -5.0008
  139OSM     O315152   7.082   4.830   6.336 -0.0836  0.0416  0.3345
  139OSM    HO315153   7.032   4.754   6.303 -0.4723  0.2671  0.3984
  139OSM    C4S15154   7.173   4.845   6.557  0.1596 -0.0055  0.3269
  139OSM    H4S15155   7.248   4.765   6.553 -0.3084 -0.5210  1.5683
  139OSM    C5S15156   7.190   4.949   6.642 -0.0018  0.5117  0.5873
  139OSM    H5S15157   7.106   5.020   6.642 -0.3635  0.1093 -0.5222
  139OSM    C6S15158   7.322   4.983   6.717  0.3629  0.2094  0.1411
  139OSM    H6S15159   7.364   5.079   6.681  3.3065 -1.3188 -0.8890
  139OSM    H6T15160   7.381   4.893   6.687  0.2272 -0.1507  0.9501
  139OSM    C7S15161   7.292   4.979   6.868 -0.0887  0.3353  0.4397
  139OSM    H7S15162   7.229   4.891   6.892  1.3130 -1.2515 -1.4410
  139OSM    H7T15163   7.241   5.075   6.892 -1.8306 -1.2529  3.8129
  139OSM    C8S15164   7.415   4.976   6.964 -0.1887  0.5268  0.4945
  139OSM    H8S15165   7.484   5.053   6.923 -0.3908 -0.7327 -2.4562
  139OSM    H8T15166   7.458   4.874   6.952  0.2832  0.8343 -0.5505
  139OSM    C9S15167   7.362   4.988   7.104 -1.0181  0.7562 -0.4035
  139OSM    H9S15168   7.284   4.913   7.131  1.2029 -2.4613 -2.1498
  139OSM    H9T15169   7.319   5.089   7.118  0.0343  1.1027  0.3798
  139OSM   C10S15170   7.485   4.969   7.196 -0.1606 -0.7207 -0.1094
  139OSM   H10S15171   7.560   5.047   7.171 -1.0968  0.3268  0.2538
  139OSM   H10T15172   7.537   4.874   7.172 -0.0501 -1.2708  2.0590
  139OSM   C11S15173   7.452   4.974   7.354 -0.4791  0.1328  0.2727
  139OSM   H11S15174   7.406   4.878   7.383 -2.3512  1.1076  0.6331
  139OSM   H11T15175   7.380   5.057   7.369 -0.7164 -0.4541  2.7469
  139OSM   C12S15176   7.574   5.014   7.436  0.2433 -0.3969 -0.1634
  139OSM   H12S15177   7.607   5.112   7.396 -1.0712  0.7822  1.5209
  139OSM   H12T15178   7.650   4.934   7.424 -0.4445 -1.4300  1.9142
  139OSM   C13S15179   7.553   5.057   7.581 -0.6792 -0.2848 -0.3069
  139OSM   H13S15180   7.489   5.148   7.586  0.7484  0.8131 -1.1997
  139OSM   H13T15181   7.656   5.059   7.623 -0.4857 -2.1709 -0.6281
  139OSM   C14S15182   7.484   4.951   7.659 -0.0566 -0.2405  0.0107
  139OSM   H14S15183   7.522   4.849   7.636 -1.2750 -0.5837 -0.5286
  139OSM   H14T15184   7.375   4.959   7.642 -0.1047  0.5671  0.6260
  139OSM   C15S15185   7.511   4.972   7.802 -1.3119 -0.7595  0.3735
  139OSM   H15S15186   7.494   5.080   7.823  0.4832 -0.5380  0.8301
  139OSM   H15T15187   7.618   4.948   7.819 -0.5819  1.3305 -0.8851
  139OSM   C16S15188   7.437   4.882   7.893  0.5184  0.1693 -0.0531
  139OSM   H16S15189   7.476   4.909   7.994  0.6755 -1.8329  0.4802
  139OSM   H16T15190   7.485   4.784   7.871 -0.9813 -0.4342 -0.7842
  139OSM   C17S15191   7.287   4.873   7.894 -0.4161 -0.3043  0.2593
  139OSM   H17S15192   7.241   4.837   7.800 -1.2342 -0.2125  0.6206
  139OSM   H17T15193   7.261   4.981   7.902  1.2670  0.0838  1.0959
  139OSM   C18S15194   7.231   4.788   8.014 -0.2870 -0.4270  0.0425
  139OSM   H18S15195   7.259   4.825   8.115  2.7470 -2.5167  0.1234
  139OSM   H18T15196   7.270   4.684   8.003  0.0344 -0.3247  0.1971
  139OSM   H18U15197   7.120   4.781   8.013 -0.2968 -0.5738  0.9311
  139OSM    C1F15198   6.900   4.581   6.718 -0.0863 -0.8723  0.5256
  139OSM     OF15199   6.924   4.468   6.675  0.0261 -0.2955 -0.1212
  139OSM    C2F15200   6.818   4.600   6.844  0.2234  0.0954  0.1455
  139OSM    H2F15201   6.714   4.622   6.811  0.4793 -1.9935 -2.3988
  139OSM    H2G15202   6.852   4.690   6.899 -1.2429  0.4594  0.5057
  139OSM    C3F15203   6.836   4.483   6.940 -0.1787  0.6426 -0.0716
  139OSM    H3F15204   6.943   4.469   6.968 -0.4507  1.0396  1.2638
  139OSM    H3G15205   6.786   4.394   6.898 -1.3577  1.6828 -0.9554
  139OSM    C4F15206   6.765   4.508   7.074 -0.5539 -0.3071 -0.9366
  139OSM    H4F15207   6.660   4.545   7.063 -1.4618 -2.5750 -0.4938
  139OSM    H4G15208   6.815   4.592   7.126 -0.6568  0.3337 -1.8352
  139OSM    C5F15209   6.762   4.384   7.159  0.2381  0.5552 -0.9847
  139OSM    H5F15210   6.836   4.310   7.122 -0.9202 -0.5341 -1.1659
  139OSM    H5G15211   6.668   4.328   7.144  0.3867  0.6920 -2.6207
  139OSM    C6F15212   6.797   4.413   7.301  0.0948  0.0750 -0.0301
  139OSM    H6F15213   6.899   4.450   7.326  0.0039  1.0329 -0.9959
  139OSM    H6G15214   6.792   4.311   7.346  0.1237 -0.3232 -0.9108
  139OSM    C7F15215   6.708   4.506   7.381 -0.1021 -0.5226 -0.1959
  139OSM    H7F15216   6.737   4.614   7.373 -0.0830 -0.5484 -0.5089
  139OSM    H7G15217   6.741   4.497   7.486  2.9194  1.1029 -0.8826
  139OSM    C8F15218   6.557   4.476   7.364 -0.0289 -0.3240  1.0722
  139OSM    H8F15219   6.556   4.368   7.391 -1.6589 -0.2469  1.4088
  139OSM    H8G15220   6.521   4.479   7.260  0.1852  0.0979  1.0063
  139OSM    C9F15221   6.473   4.565   7.444 -0.2111  0.1573 -0.9932
  139OSM    H9F15222   6.427   4.656   7.402  0.5452 -0.2976 -2.8771
  139OSM   C10F15223   6.445   4.538   7.572  0.5479  0.0429 -0.3947
  139OSM   H10F15224   6.365   4.604   7.609  0.2140 -1.0813  1.0040
  139OSM   C11F15225   6.484   4.423   7.655 -0.0117 -0.0445  0.4192
  139OSM   H11F15226   6.585   4.386   7.629 -0.5381 -2.5734  1.7376
  139OSM   H11G15227   6.417   4.336   7.640  0.5342 -0.2831 -0.7404
  139OSM   C12F15228   6.480   4.458   7.803 -0.5573  1.0392 -1.3259
  139OSM   H12F15229   6.497   4.362   7.855 -0.1368  1.1047 -1.3346
  139OSM   H12G15230   6.380   4.494   7.836 -0.2317 -0.3005  1.3732
  139OSM   C13F15231   6.575   4.562   7.859  0.2743 -0.3959  0.0416
  139OSM   H13F15232   6.568   4.651   7.793  1.8474 -2.5352 -3.2830
  139OSM   H13G15233   6.678   4.521   7.847  0.2925 -0.6175  0.8458
  139OSM   C14F15234   6.561   4.605   8.006  0.1391 -0.7558  0.6979
  139OSM   H14F15235   6.653   4.665   8.023 -0.0153 -0.2129 -0.3263
  139OSM   H14G15236   6.568   4.520   8.077  1.8354 -0.0872  1.3731
  139OSM   C15F15237   6.432   4.686   8.032 -0.0915 -0.0646 -0.3799
  139OSM   H15F15238   6.342   4.623   8.016 -1.0867  0.7350  1.6483
  139OSM   H15G15239   6.425   4.768   7.958  0.9074 -1.4752 -2.1237
  139OSM   C16F15240   6.419   4.752   8.173  0.4481  0.5399 -0.1860
  139OSM   H16F15241   6.316   4.791   8.187  0.8583  0.8475  2.5252
  139OSM   H16G15242   6.493   4.832   8.193  0.1745  0.2312  2.2739
  139OSM   C17F15243   6.442   4.653   8.293  0.1298  0.0572  0.5708
  139OSM   H17F15244   6.543   4.609   8.288  0.4105  0.5073  1.8945
  139OSM   H17G15245   6.361   4.577   8.294  1.0191 -0.9661 -1.4590
  139OSM   C18F15246   6.432   4.738   8.420  0.2629  0.0694  0.3090
  139OSM   H18F15247   6.444   4.681   8.514  0.4906 -0.5527 -0.0968
  139OSM   H18G15248   6.331   4.786   8.418 -0.2288 -0.9489  0.0630
  139OSM   H18H15249   6.517   4.810   8.418  2.0945 -1.9683  1.0649
  140OSM      N15250   0.453   5.151   6.113 -0.4296 -0.0246  0.1369
  140OSM    C1515251   0.336   5.057   6.134  0.4008 -0.2069  0.0052
  140OSM   H15A15252   0.296   5.046   6.034  0.5659 -1.5869  0.0801
  140OSM   H15B15253   0.265   5.113   6.193  1.1559  1.4748 -0.6255
  140OSM   H15C15254   0.374   4.966   6.176  2.1780  1.7967  3.1398
  140OSM    C1415255   0.533   5.095   5.999  0.3199 -0.8859 -0.1950
  140OSM   H14A15256   0.482   5.108   5.904  1.2063 -1.1944 -0.7262
  140OSM   H14B15257   0.549   4.989   6.013  2.3842 -0.3680  1.9620
  140OSM   H14C15258   0.628   5.145   5.994 -1.6592  3.7012  2.2220
  140OSM    C1315259   0.402   5.281   6.076  0.0172 -0.0090  0.4019
  140OSM   H13A15260   0.348   5.279   5.983 -1.0424 -0.4462  1.0086
  140OSM   H13B15261   0.484   5.351   6.066 -0.0838 -0.1397 -1.6699
  140OSM   H13C15262   0.351   5.327   6.160 -1.1356  0.2107 -0.3949
  140OSM    C1215263   0.531   5.157   6.246  0.1938  0.3921 -0.0338
  140OSM   H12A15264   0.632   5.171   6.209 -0.0192 -3.9056 -3.1130
  140OSM   H12B15265   0.529   5.057   6.287  0.6855  0.9374  1.3629
  140OSM    C1115266   0.490   5.252   6.364  0.0555 -0.3341 -0.5742
  140OSM   H11A15267   0.568   5.249   6.442 -0.5613 -0.1160  0.0635
  140OSM   H11B15268   0.405   5.197   6.411  1.6108 -1.8850  0.5438
  140OSM      P15269   0.533   5.516   6.366 -0.0106  0.0792  0.2988
  140OSM    O1315270   0.673   5.501   6.326  0.1514  0.7989  0.1754
  140OSM    O1415271   0.454   5.634   6.324  0.2556 -0.6331 -0.2150
  140OSM    O1115272   0.537   5.506   6.525  0.5512 -0.0915  0.2297
  140OSM    O1215273   0.449   5.385   6.329  0.1076 -0.3124 -0.0143
  140OSM    C1S15274   0.426   5.529   6.612  0.4348 -0.0874 -0.6300
  140OSM    H1S15275   0.339   5.469   6.579  0.2253  1.3315 -2.9016
  140OSM    H1T15276   0.384   5.632   6.607  0.3654 -0.0674  0.3238
  140OSM     NF15277   0.370   5.547   6.864  0.2061  0.6156  0.3119
  140OSM    HNF15278   0.409   5.623   6.916  1.7920 -0.8865  1.4648
  140OSM    C2S15279   0.462   5.496   6.763 -0.0930 -0.4137  0.1080
  140OSM    H2S15280   0.450   5.386   6.762 -2.3877 -0.2178 -0.8777
  140OSM    C3S15281   0.610   5.537   6.800 -0.0873 -0.3384  0.3999
  140OSM    H3S15282   0.630   5.646   6.803 -0.0174 -0.2477 -1.7256
  140OSM     O315283   0.709   5.479   6.715  0.1944  0.3357  0.2732
  140OSM    HO315284   0.648   5.450   6.646  0.0579  0.1618  0.4645
  140OSM    C4S15285   0.644   5.492   6.941 -0.9047  0.7294 -0.3822
  140OSM    H4S15286   0.630   5.573   7.015 -2.3616  1.2230 -1.1786
  140OSM    C5S15287   0.685   5.376   6.991 -0.1916 -0.3900 -0.0925
  140OSM    H5S15288   0.704   5.302   6.912 -2.3597 -0.3622 -0.7014
  140OSM    C6S15289   0.720   5.330   7.132 -0.7314 -0.4323  0.5027
  140OSM    H6S15290   0.826   5.299   7.139 -0.1613  1.6151  2.2398
  140OSM    H6T15291   0.673   5.231   7.153 -0.2003 -0.7718  0.1196
  140OSM    C7S15292   0.697   5.433   7.245  0.1133 -0.1031  0.2479
  140OSM    H7S15293   0.758   5.522   7.219 -2.1002  1.1345 -0.9716
  140OSM    H7T15294   0.750   5.403   7.338  0.6415  1.7867  0.6023
  140OSM    C8S15295   0.544   5.459   7.276  0.1505  0.0950 -0.0140
  140OSM    H8S15296   0.503   5.482   7.175  2.0015 -1.5964 -1.2127
  140OSM    H8T15297   0.539   5.549   7.341  0.2889  1.4336 -1.7661
  140OSM    C9S15298   0.468   5.333   7.325  0.0226 -0.4384 -0.0826
  140OSM    H9S15299   0.520   5.289   7.414 -2.2782  0.5167  1.8274
  140OSM    H9T15300   0.456   5.264   7.239 -1.7124  0.8350 -0.9198
  140OSM   C10S15301   0.323   5.373   7.368  0.5411  0.3323 -0.1997
  140OSM   H10S15302   0.253   5.287   7.359  1.6255 -0.4988 -0.9819
  140OSM   H10T15303   0.297   5.449   7.291  2.4906  0.5102 -0.7430
  140OSM   C11S15304   0.320   5.442   7.503 -0.1739  0.3132 -0.4293
  140OSM   H11S15305   0.229   5.505   7.502  0.2047  0.9828  1.6511
  140OSM   H11T15306   0.408   5.510   7.510 -1.7266  2.4845 -1.1032
  140OSM   C12S15307   0.317   5.349   7.628  0.1218  0.3637  1.5585
  140OSM   H12S15308   0.410   5.289   7.629  0.5972  1.0928  1.8632
  140OSM   H12T15309   0.235   5.273   7.626  1.6198 -1.3131  1.0325
  140OSM   C13S15310   0.316   5.420   7.762 -0.6268  0.4718 -0.5797
  140OSM   H13S15311   0.394   5.497   7.775  0.0966 -0.3580  0.0732
  140OSM   H13T15312   0.336   5.350   7.846 -2.6449  1.4415  0.8094
  140OSM   C14S15313   0.183   5.498   7.790  0.0003  0.0187 -0.0873
  140OSM   H14S15314   0.101   5.423   7.798  0.7847 -0.6312  2.8031
  140OSM   H14T15315   0.160   5.559   7.700 -0.6957 -3.3414 -2.3879
  140OSM   C15S15316   0.192   5.593   7.911 -0.3664  0.3383 -0.0128
  140OSM   H15S15317   0.092   5.638   7.932  0.5007  0.8171  3.9678
  140OSM   H15T15318   0.260   5.677   7.885 -0.2635 -0.0459 -1.0038
  140OSM   C16S15319   0.245   5.519   8.034  0.1941 -0.4110  0.1471
  140OSM   H16S15320   0.282   5.590   8.112  0.1196 -1.3039  1.0205
  140OSM   H16T15321   0.332   5.450   8.020 -0.8656 -1.7863  0.1188
  140OSM   C17S15322   0.139   5.431   8.107  0.3680  0.0176 -0.0599
  140OSM   H17S15323   0.178   5.383   8.199  0.2085  0.7798  0.4115
  140OSM   H17T15324   0.102   5.349   8.042 -1.1974 -0.0896  0.9197
  140OSM   C18S15325   0.016   5.513   8.154  0.2866  0.2153  0.3561
  140OSM   H18S15326  -0.045   5.553   8.070  0.9162  0.0723 -0.1797
  140OSM   H18T15327   0.051   5.600   8.213 -0.2576 -0.6560  2.0227
  140OSM   H18U15328  -0.055   5.455   8.217 -0.7797  1.4085  0.2884
  140OSM    C1F15329   0.241   5.506   6.880  0.2693 -0.7955  0.5140
  140OSM     OF15330   0.184   5.406   6.837 -0.2714  0.0697  0.3229
  140OSM    C2F15331   0.157   5.610   6.942  0.5299  0.2275 -0.0223
  140OSM    H2F15332   0.067   5.624   6.879 -1.3470  0.2970  2.5264
  140OSM    H2G15333   0.210   5.707   6.955 -1.2112  1.2756 -0.3777
  140OSM    C3F15334   0.101   5.573   7.079  0.1096  0.5975 -0.2015
  140OSM    H3F15335   0.183   5.572   7.155 -1.2415  2.2707  1.3813
  140OSM    H3G15336   0.043   5.480   7.064 -1.3066  1.4525 -0.2203
  140OSM    C4F15337  -0.006   5.669   7.137  0.1931  1.2197  0.4009
  140OSM    H4F15338  -0.097   5.677   7.073  2.0822 -0.1968 -2.6889
  140OSM    H4G15339   0.033   5.772   7.143 -0.7643  1.5436  1.6473
  140OSM    C5F15340  -0.060   5.636   7.281 -0.3066 -0.1129 -0.0120
  140OSM    H5F15341   0.019   5.589   7.343  0.2024  1.9230  0.9666
  140OSM    H5G15342  -0.146   5.566   7.283 -1.8806  1.6964 -0.6132
  140OSM    C6F15343  -0.102   5.762   7.348  0.1947  0.2527 -0.4948
  140OSM    H6F15344  -0.018   5.835   7.348 -0.3368  0.8641 -0.2113
  140OSM    H6G15345  -0.117   5.738   7.455  2.8282 -1.8111 -0.4697
  140OSM    C7F15346  -0.218   5.830   7.280  0.0803  0.5926  0.0940
  140OSM    H7F15347  -0.305   5.770   7.247  0.4580  1.1849 -2.1000
  140OSM    H7G15348  -0.177   5.866   7.184  0.9023  0.1071  0.2452
  140OSM    C8F15349  -0.273   5.953   7.357 -0.3640  0.8746  0.1142
  140OSM    H8F15350  -0.332   6.018   7.288 -1.5941  0.7152  0.9776
  140OSM    H8G15351  -0.183   6.009   7.392  2.3355 -3.6269  1.1046
  140OSM    C9F15352  -0.378   5.913   7.457  0.3905 -0.4335  0.3234
  140OSM    H9F15353  -0.479   5.904   7.415  1.0234  0.5314 -1.5504
  140OSM   C10F15354  -0.352   5.887   7.584 -0.0023 -0.5559  0.0939
  140OSM   H10F15355  -0.438   5.851   7.642  0.4584 -2.0326 -0.0694
  140OSM   C11F15356  -0.216   5.889   7.655  0.0024  0.7662  0.0810
  140OSM   H11F15357  -0.137   5.924   7.586 -0.9300  0.3751 -1.2289
  140OSM   H11G15358  -0.192   5.789   7.696  0.5621  0.6602 -0.4927
  140OSM   C12F15359  -0.213   5.983   7.776 -0.3949  0.2006  0.5746
  140OSM   H12F15360  -0.290   5.953   7.850 -0.8200 -1.6965 -0.5698
  140OSM   H12G15361  -0.222   6.092   7.752  2.2998  1.0468  2.9168
  140OSM   C13F15362  -0.079   5.983   7.840  0.3353  0.1023  0.4472
  140OSM   H13F15363   0.004   6.003   7.769  1.0581  0.4767  1.3670
  140OSM   H13G15364  -0.058   5.878   7.871  2.4788  0.8887  1.8694
  140OSM   C14F15365  -0.070   6.072   7.960 -0.2831  0.0363  0.2035
  140OSM   H14F15366  -0.164   6.053   8.016 -0.8517 -3.1181 -1.5725
  140OSM   H14G15367  -0.067   6.176   7.920 -0.4713 -0.6071 -1.5799
  140OSM   C15F15368   0.044   6.035   8.054 -0.0855 -0.1654 -0.2952
  140OSM   H15F15369   0.141   6.065   8.008 -0.8466 -0.5171 -2.2250
  140OSM   H15G15370   0.043   5.925   8.064  1.0240 -0.2795 -1.2064
  140OSM   C16F15371   0.019   6.094   8.196 -0.1390 -0.1350 -0.2421
  140OSM   H16F15372  -0.073   6.051   8.242  0.7521 -0.3080  1.4836
  140OSM   H16G15373   0.013   6.204   8.184  2.0691  0.2749  1.6233
  140OSM   C17F15374   0.139   6.069   8.292  0.3683  0.5691 -0.0945
  140OSM   H17F15375   0.234   6.094   8.240  1.2789 -0.1819  1.1687
  140OSM   H17G15376   0.137   5.964   8.328  0.8379 -0.7497 -3.4635
  140OSM   C18F15377   0.136   6.152   8.421 -0.5372  0.7334 -0.5918
  140OSM   H18F15378   0.048   6.118   8.480 -1.2278 -0.9138 -2.4662
  140OSM   H18G15379   0.133   6.261   8.397 -0.3452  0.6912 -0.8064
  140OSM   H18H15380   0.226   6.138   8.483 -0.6501  2.9409  0.1594
  141OSM      N15381   6.432   2.437   6.308  0.2815 -0.7843 -1.3541
  141OSM    C1515382   6.362   2.566   6.338 -0.7004 -0.1542  0.0299
  141OSM   H15A15383   6.372   2.654   6.277  1.8626  0.3832  1.0629
  141OSM   H15B15384   6.370   2.599   6.441 -2.4351 -1.9707  0.8232
  141OSM   H15C15385   6.257   2.542   6.329  0.0113 -2.7622 -3.6445
  141OSM    C1415386   6.378   2.384   6.186 -0.2353  0.3128 -0.1801
  141OSM   H14A15387   6.272   2.361   6.189 -0.0023 -0.7014  0.5575
  141OSM   H14B15388   6.429   2.294   6.154  0.0993  0.3349  0.2848
  141OSM   H14C15389   6.388   2.452   6.103 -2.1759  2.2132  1.0551
  141OSM    C1315390   6.577   2.476   6.289  0.7135  0.1810  0.3120
  141OSM   H13A15391   6.615   2.378   6.261 -1.9960 -0.5084 -1.3037
  141OSM   H13B15392   6.624   2.518   6.377  0.0118 -0.0476  0.7977
  141OSM   H13C15393   6.595   2.539   6.204  2.2552 -0.6866 -0.0473
  141OSM    C1215394   6.427   2.340   6.422 -0.1109 -0.0866  0.0651
  141OSM   H12A15395   6.330   2.294   6.426 -0.6297  0.9792  0.0134
  141OSM   H12B15396   6.443   2.399   6.511 -0.0740 -0.5611  0.3814
  141OSM    C1115397   6.527   2.227   6.423 -0.2309 -0.4748 -0.0296
  141OSM   H11A15398   6.520   2.168   6.516  1.5428  1.0156  1.1248
  141OSM   H11B15399   6.627   2.272   6.441 -1.6278  4.3558 -2.5568
  141OSM      P15400   6.579   2.016   6.273 -0.0680 -0.0431  0.0458
  141OSM    O1315401   6.486   1.925   6.208  0.2525 -0.5186  0.2101
  141OSM    O1415402   6.713   2.037   6.210 -0.0667  0.2611 -0.3112
  141OSM    O1115403   6.589   1.969   6.415 -0.5626 -0.9482  0.3537
  141OSM    O1215404   6.510   2.150   6.298 -0.0891 -0.5208 -0.3501
  141OSM    C1S15405   6.716   1.960   6.481  0.3583  0.8261 -1.3120
  141OSM    H1S15406   6.769   2.057   6.483  0.6356  0.6661 -0.6245
  141OSM    H1T15407   6.791   1.893   6.432 -1.5650 -1.1612 -1.7004
  141OSM     NF15408   6.833   1.943   6.690 -0.7729 -0.5357 -0.6689
  141OSM    HNF15409   6.884   1.860   6.710 -0.9541 -0.7791 -1.2256
  141OSM    C2S15410   6.705   1.924   6.632 -0.5248  0.4972  0.1644
  141OSM    H2S15411   6.635   2.003   6.668 -0.2749  0.6538  0.3058
  141OSM    C3S15412   6.649   1.775   6.653 -0.2143 -0.1906 -0.1575
  141OSM    H3S15413   6.721   1.709   6.600  0.3513  2.0173 -2.3183
  141OSM     O315414   6.513   1.759   6.602 -0.1082 -0.2016 -0.3145
  141OSM    HO315415   6.486   1.849   6.582 -1.5847 -0.9616 -2.0541
  141OSM    C4S15416   6.655   1.750   6.799  0.4464  0.2504 -0.6679
  141OSM    H4S15417   6.757   1.729   6.836  0.2730 -1.7543 -1.1972
  141OSM    C5S15418   6.551   1.746   6.887 -0.7207 -0.2749  0.0336
  141OSM    H5S15419   6.457   1.785   6.845 -0.1077  0.5016 -0.6512
  141OSM    C6S15420   6.558   1.738   7.036 -0.2322  0.7902 -0.9291
  141OSM    H6S15421   6.493   1.659   7.079  3.5604 -1.4337  1.3572
  141OSM    H6T15422   6.524   1.833   7.082 -2.6259 -0.9932  1.3284
  141OSM    C7S15423   6.700   1.717   7.093 -0.0889  1.0766 -0.7620
  141OSM    H7S15424   6.761   1.810   7.088  1.7561 -0.0411 -0.1704
  141OSM    H7T15425   6.747   1.634   7.036 -1.4184  1.4589 -2.4956
  141OSM    C8S15426   6.705   1.672   7.245 -0.0404  0.3947 -0.2811
  141OSM    H8S15427   6.813   1.652   7.262 -0.2601 -0.1642  0.4815
  141OSM    H8T15428   6.659   1.571   7.251  0.7910 -0.0523 -1.1696
  141OSM    C9S15429   6.652   1.781   7.333  0.1585 -0.2420 -0.5577
  141OSM    H9S15430   6.543   1.786   7.314 -0.7502 -0.3523  3.5774
  141OSM    H9T15431   6.698   1.882   7.328 -0.7687  0.1820 -0.6876
  141OSM   C10S15432   6.651   1.725   7.473  0.3449  0.1323 -1.2188
  141OSM   H10S15433   6.592   1.631   7.475 -0.6456  0.7520 -0.7807
  141OSM   H10T15434   6.597   1.799   7.534  1.7294  0.8668 -0.8400
  141OSM   C11S15435   6.788   1.710   7.536  0.6238 -0.0092  0.8289
  141OSM   H11S15436   6.851   1.801   7.531 -1.1124  1.3106  1.9519
  141OSM   H11T15437   6.842   1.634   7.475 -2.2912 -0.6238 -1.1937
  141OSM   C12S15438   6.790   1.655   7.679 -0.0322  0.1303  0.4713
  141OSM   H12S15439   6.744   1.553   7.680  0.0937  0.0402 -1.0028
  141OSM   H12T15440   6.720   1.718   7.739 -0.7491 -0.4209  0.2389
  141OSM   C13S15441   6.924   1.652   7.749  0.5190  0.7279 -0.6633
  141OSM   H13S15442   6.962   1.756   7.744 -2.0243  1.7100 -0.9648
  141OSM   H13T15443   6.987   1.587   7.684 -1.1451 -1.3455 -0.3157
  141OSM   C14S15444   6.919   1.618   7.901 -0.7608  0.1082 -0.2837
  141OSM   H14S15445   6.813   1.612   7.934 -0.2290  0.0474  1.5292
  141OSM   H14T15446   6.962   1.693   7.970 -0.5998  0.7201 -1.0503
  141OSM   C15S15447   7.000   1.492   7.933 -0.2206  0.2168 -0.1756
  141OSM   H15S15448   7.103   1.518   7.899  0.2970 -1.2860  0.1722
  141OSM   H15T15449   6.961   1.407   7.874  1.6330  0.9690 -2.6688
  141OSM   C16S15450   6.989   1.462   8.086 -0.0495 -0.0177  0.9373
  141OSM   H16S15451   6.884   1.446   8.119  0.8040 -1.3383  3.2896
  141OSM   H16T15452   7.029   1.551   8.139  2.9619 -0.7396  0.0632
  141OSM   C17S15453   7.051   1.332   8.130  0.0110  0.4904  0.6762
  141OSM   H17S15454   7.054   1.314   8.240 -0.8737  0.3926  0.6865
  141OSM   H17T15455   7.157   1.326   8.097 -0.3695  1.3556 -0.7900
  141OSM   C18S15456   6.973   1.206   8.079  0.1490  0.3309  0.7350
  141OSM   H18S15457   6.986   1.193   7.970 -0.2500 -0.5096  0.7750
  141OSM   H18T15458   6.864   1.230   8.082  0.3388  1.1464  2.2662
  141OSM   H18U15459   6.999   1.120   8.146  1.1104 -1.2237 -1.5198
  141OSM    C1F15460   6.891   2.062   6.729  0.5563 -0.0480  0.5007
  141OSM     OF15461   6.809   2.156   6.746 -0.5808  0.2601 -0.1977
  141OSM    C2F15462   7.038   2.075   6.755  1.3283 -0.3820  0.0457
  141OSM    H2F15463   7.079   2.062   6.652  1.4487  0.8530 -0.0749
  141OSM    H2G15464   7.072   1.991   6.818  0.9333 -2.2602 -2.1140
  141OSM    C3F15465   7.077   2.214   6.800 -0.4513  0.2799 -0.0190
  141OSM    H3F15466   7.048   2.302   6.739  2.4906  0.4978 -1.2895
  141OSM    H3G15467   7.188   2.216   6.787 -0.6251  2.2403 -1.7007
  141OSM    C4F15468   7.059   2.232   6.952 -0.5646 -0.2832  1.6389
  141OSM    H4F15469   7.111   2.147   7.002 -1.5866 -0.8689  1.7235
  141OSM    H4G15470   6.948   2.228   6.956 -0.7221 -0.9173 -1.3558
  141OSM    C5F15471   7.108   2.368   7.000 -0.5812 -0.7593  0.4571
  141OSM    H5F15472   7.054   2.441   6.937 -0.7264 -1.4209 -0.2068
  141OSM    H5G15473   7.216   2.387   6.983 -0.9535  1.2963  0.2379
  141OSM    C6F15474   7.084   2.406   7.150  0.2590  0.9295  0.4536
  141OSM    H6F15475   7.094   2.311   7.206 -3.3847 -0.1076 -0.3800
  141OSM    H6G15476   6.975   2.424   7.161 -0.2493  0.3093 -2.5597
  141OSM    C7F15477   7.164   2.518   7.204 -0.1649 -0.1639 -0.1008
  141OSM    H7F15478   7.154   2.602   7.133  0.1613 -0.0888 -0.0594
  141OSM    H7G15479   7.273   2.495   7.212 -0.1755 -0.1797  0.0053
  141OSM    C8F15480   7.119   2.543   7.348  0.3887  0.0246 -0.5168
  141OSM    H8F15481   7.186   2.613   7.402 -1.3757  1.4116 -0.0311
  141OSM    H8G15482   7.133   2.445   7.398 -0.5319  0.3952  0.5233
  141OSM    C9F15483   6.978   2.586   7.369  0.3037 -0.1635  0.4941
  141OSM    H9F15484   6.909   2.578   7.283  0.0578 -1.3981  0.7939
  141OSM   C10F15485   6.922   2.626   7.483 -0.3047  0.1789 -0.4793
  141OSM   H10F15486   6.816   2.652   7.489 -0.4409 -0.3848 -0.3885
  141OSM   C11F15487   6.998   2.617   7.615 -0.2418 -0.1978  0.4964
  141OSM   H11F15488   7.105   2.587   7.615 -0.1992 -0.0484  0.9043
  141OSM   H11G15489   6.955   2.534   7.676  1.6282  0.7414  3.2694
  141OSM   C12F15490   6.987   2.747   7.705  0.1759  0.2278 -0.3946
  141OSM   H12F15491   6.883   2.787   7.698  0.4065  0.5827 -2.4090
  141OSM   H12G15492   7.055   2.825   7.664  0.9665 -0.2127  0.0654
  141OSM   C13F15493   7.024   2.719   7.855 -0.3630 -1.4661  0.2914
  141OSM   H13F15494   7.060   2.817   7.894 -2.2102 -0.8276  0.5350
  141OSM   H13G15495   7.117   2.659   7.854  0.4083 -0.3562  1.8156
  141OSM   C14F15496   6.921   2.655   7.936 -0.6058  0.5969  0.3505
  141OSM   H14F15497   6.899   2.552   7.901  1.4958 -0.5635  2.1760
  141OSM   H14G15498   6.832   2.721   7.923  0.2526  1.6902 -0.1072
  141OSM   C15F15499   6.942   2.655   8.086  0.0384  0.3986  0.0139
  141OSM   H15F15500   6.957   2.757   8.128 -1.4023  0.7009 -0.1419
  141OSM   H15G15501   7.026   2.589   8.115 -0.8410 -0.2105  1.2601
  141OSM   C16F15502   6.825   2.593   8.158 -0.6404  0.9105  0.2638
  141OSM   H16F15503   6.813   2.492   8.115  0.2492  1.4759 -1.4197
  141OSM   H16G15504   6.741   2.656   8.120  0.1941  2.4169  0.8029
  141OSM   C17F15505   6.820   2.610   8.319  0.3840 -0.0385  0.2497
  141OSM   H17F15506   6.723   2.565   8.349  1.1871 -1.6908  0.5078
  141OSM   H17G15507   6.815   2.720   8.332 -2.2016  0.5659 -3.8610
  141OSM   C18F15508   6.938   2.551   8.396  0.2022  0.3761 -0.8263
  141OSM   H18F15509   6.932   2.553   8.507  0.3175  0.7385 -0.8245
  141OSM   H18G15510   7.037   2.590   8.366  0.4509 -0.5380 -1.2409
  141OSM   H18H15511   6.933   2.441   8.382  1.7685  0.0375  0.8170
  142OSM      N15512   5.390   3.010   6.075 -0.5460 -0.3459 -0.2393
  142OSM    C1515513   5.296   3.129   6.072  0.1584  0.1663 -0.0869
  142OSM   H15A15514   5.214   3.114   6.004 -0.8076  1.4797  0.7300
  142OSM   H15B15515   5.346   3.223   6.051 -0.8303  0.2429 -2.4028
  142OSM   H15C15516   5.259   3.138   6.173 -0.5531 -1.7508 -0.1351
  142OSM    C1415517   5.313   2.892   6.102  0.0991 -0.0846 -0.7586
  142OSM   H14A15518   5.242   2.850   6.033  1.8451 -2.5513 -1.2119
  142OSM   H14B15519   5.258   2.909   6.193 -0.0678  2.7838 -1.3118
  142OSM   H14C15520   5.385   2.814   6.122 -0.3175 -0.2074  0.3095
  142OSM    C1315521   5.466   3.005   5.946 -0.6597 -0.8294 -0.6045
  142OSM   H13A15522   5.543   2.929   5.944 -0.1847 -0.3345 -1.0649
  142OSM   H13B15523   5.515   3.100   5.937  0.4619 -1.3377 -0.0884
  142OSM   H13C15524   5.400   2.988   5.862 -2.6915 -1.3152  1.0050
  142OSM    C1215525   5.492   3.013   6.189 -0.5171 -0.1773 -0.4098
  142OSM   H12A15526   5.566   3.089   6.168 -0.5052 -0.0177  0.2049
  142OSM   H12B15527   5.547   2.920   6.198  3.0737  1.8480  0.6882
  142OSM    C1115528   5.431   3.038   6.329  0.7428  0.0384 -0.4490
  142OSM   H11A15529   5.508   3.019   6.406 -1.8701  0.0525  2.3459
  142OSM   H11B15530   5.348   2.967   6.348  0.9815 -0.8282 -2.3706
  142OSM      P15531   5.481   3.291   6.358 -0.2689 -0.2962 -0.2464
  142OSM    O1315532   5.599   3.280   6.270  0.0564 -0.0834  0.0456
  142OSM    O1415533   5.414   3.421   6.346  0.0938 -1.0475 -0.3293
  142OSM    O1115534   5.529   3.285   6.505  0.4009  0.0614 -0.8371
  142OSM    O1215535   5.378   3.166   6.346 -0.1454  0.6730 -0.2049
  142OSM    C1S15536   5.458   3.233   6.616  0.1338  0.2485 -0.1360
  142OSM    H1S15537   5.469   3.123   6.610 -0.5483  0.1866 -0.3672
  142OSM    H1T15538   5.353   3.269   6.625 -0.0407 -0.5791  1.7290
  142OSM     NF15539   5.444   3.186   6.859 -0.2030  0.2080  0.1023
  142OSM    HNF15540   5.373   3.246   6.896  0.4367  1.0636 -0.0120
  142OSM    C2S15541   5.519   3.250   6.758  0.4101  0.0991 -0.0560
  142OSM    H2S15542   5.622   3.209   6.761  0.3401 -0.0776 -0.0934
  142OSM    C3S15543   5.540   3.402   6.779  0.4824 -0.0054 -0.1230
  142OSM    H3S15544   5.451   3.464   6.756  1.2360  2.2601  2.6125
  142OSM     O315545   5.650   3.454   6.702  0.6862 -0.2990  0.6793
  142OSM    HO315546   5.643   3.405   6.620  0.8397  1.8317 -0.7156
  142OSM    C4S15547   5.562   3.436   6.924  0.5784 -0.0453 -0.0152
  142OSM    H4S15548   5.645   3.385   6.975  1.2996 -1.4244 -2.4490
  142OSM    C5S15549   5.483   3.525   6.992 -0.1691  0.5635 -0.3968
  142OSM    H5S15550   5.405   3.584   6.942  0.3833  1.6663  0.0231
  142OSM    C6S15551   5.500   3.565   7.137  0.1331  0.1846  0.0595
  142OSM    H6S15552   5.503   3.676   7.128  0.1682  0.1478 -0.3921
  142OSM    H6T15553   5.597   3.522   7.171  0.1685 -0.2186 -0.5507
  142OSM    C7S15554   5.386   3.507   7.230  0.1169 -0.0346  0.2812
  142OSM    H7S15555   5.383   3.396   7.221  1.0602  0.0306 -1.1101
  142OSM    H7T15556   5.288   3.536   7.186 -0.3806 -1.1392  0.5950
  142OSM    C8S15557   5.403   3.546   7.375  0.5886 -0.4886 -0.1576
  142OSM    H8S15558   5.399   3.657   7.383  0.6864 -0.4892 -0.1005
  142OSM    H8T15559   5.499   3.513   7.420  0.5698  0.4627  0.6178
  142OSM    C9S15560   5.299   3.482   7.476  0.2797 -0.8865  0.6896
  142OSM    H9S15561   5.294   3.375   7.447  0.3317 -1.0100  1.1282
  142OSM    H9T15562   5.197   3.519   7.451  0.0621 -3.1410 -2.2945
  142OSM   C10S15563   5.334   3.516   7.624 -0.9404  0.6787 -0.5665
  142OSM   H10S15564   5.379   3.616   7.643 -0.1777  0.1716  0.4577
  142OSM   H10T15565   5.417   3.446   7.650 -1.6415  0.4954  1.4015
  142OSM   C11S15566   5.210   3.514   7.718  0.1824  0.1059  0.4252
  142OSM   H11S15567   5.161   3.416   7.698  0.1654  0.1796  0.1066
  142OSM   H11T15568   5.140   3.595   7.688  1.4482  0.9835 -0.2629
  142OSM   C12S15569   5.248   3.547   7.866 -0.4810  0.0119 -0.5880
  142OSM   H12S15570   5.159   3.551   7.932 -0.5677 -1.5085 -0.5833
  142OSM   H12T15571   5.302   3.644   7.878  1.1952 -0.8576 -0.7161
  142OSM   C13S15572   5.349   3.453   7.930  1.0350  0.3276 -0.2563
  142OSM   H13S15573   5.372   3.380   7.849 -1.9265  0.9505 -1.7996
  142OSM   H13T15574   5.288   3.393   8.000  0.4501 -0.0544 -1.0696
  142OSM   C14S15575   5.480   3.520   7.979  0.1722  0.1402  0.0880
  142OSM   H14S15576   5.518   3.575   7.891  0.9094  2.1253  1.5658
  142OSM   H14T15577   5.555   3.439   7.990  1.4233  1.2310 -0.1330
  142OSM   C15S15578   5.456   3.593   8.107 -0.8667  0.5540  0.3701
  142OSM   H15S15579   5.373   3.666   8.094 -0.5613  0.8258 -0.0314
  142OSM   H15T15580   5.544   3.655   8.134 -0.8377  0.4764  0.4569
  142OSM   C16S15581   5.423   3.506   8.233 -0.6618 -0.5396  0.3115
  142OSM   H16S15582   5.497   3.422   8.230  2.1707  1.7677  1.3441
  142OSM   H16T15583   5.324   3.457   8.224 -0.9905  0.2060 -0.1613
  142OSM   C17S15584   5.442   3.575   8.368 -0.1617  0.0664 -0.1132
  142OSM   H17S15585   5.547   3.598   8.394  0.1933 -0.7868 -0.7531
  142OSM   H17T15586   5.417   3.506   8.451 -0.1648 -2.7252 -2.3048
  142OSM   C18S15587   5.367   3.701   8.379  0.2099  0.3717 -0.7445
  142OSM   H18S15588   5.420   3.784   8.327  0.2316  0.5857 -0.3834
  142OSM   H18T15589   5.344   3.737   8.481 -0.6197  0.5685 -0.9906
  142OSM   H18U15590   5.268   3.696   8.327  0.5738 -0.8075 -1.3579
  142OSM    C1F15591   5.447   3.050   6.880  0.3072 -0.1739 -0.6158
  142OSM     OF15592   5.512   2.977   6.810  0.0658 -0.4461  0.0801
  142OSM    C2F15593   5.362   2.993   6.988  0.0501  0.2121 -0.0885
  142OSM    H2F15594   5.401   2.892   7.011  2.2826  1.1422  0.5708
  142OSM    H2G15595   5.261   2.980   6.944 -0.7640  1.4217  1.3331
  142OSM    C3F15596   5.358   3.080   7.113  0.6268 -0.1685 -0.2373
  142OSM    H3F15597   5.307   3.172   7.077  1.7962  0.7520  0.3381
  142OSM    H3G15598   5.465   3.100   7.138  0.3804  0.2449  0.5157
  142OSM    C4F15599   5.284   3.017   7.225  0.1901 -0.5799  0.5404
  142OSM    H4F15600   5.327   2.917   7.243 -2.6294 -2.2056 -1.0136
  142OSM    H4G15601   5.182   2.979   7.200  0.6879 -3.2260  2.1571
  142OSM    C5F15602   5.294   3.112   7.348  0.1787 -0.1610  0.5951
  142OSM    H5F15603   5.252   3.212   7.325 -1.6538 -0.9507  0.3428
  142OSM    H5G15604   5.399   3.130   7.381  0.4387 -0.5598  0.0018
  142OSM    C6F15605   5.231   3.052   7.476 -0.3370  0.6102  0.1118
  142OSM    H6F15606   5.280   2.954   7.494 -2.2671 -0.5082 -0.4792
  142OSM    H6G15607   5.123   3.029   7.479 -0.3969  0.9240  0.3948
  142OSM    C7F15608   5.269   3.133   7.601 -0.4706  0.0104 -0.6300
  142OSM    H7F15609   5.213   3.229   7.599  1.1177  1.0260  1.0761
  142OSM    H7G15610   5.377   3.156   7.606  0.0778 -2.1505 -1.4896
  142OSM    C8F15611   5.252   3.069   7.744  0.5317  0.0357  0.6777
  142OSM    H8F15612   5.287   3.137   7.825 -0.9819  1.1663  0.4347
  142OSM    H8G15613   5.305   2.971   7.751  1.5286  0.5172 -0.0771
  142OSM    C9F15614   5.104   3.052   7.767 -0.4314 -0.0444  0.7209
  142OSM    H9F15615   5.056   2.997   7.685  2.1812 -1.7761  0.2295
  142OSM   C10F15616   5.029   3.099   7.864  0.0409 -0.0507 -0.3820
  142OSM   H10F15617   4.925   3.064   7.868 -0.0410  0.2562  3.0732
  142OSM   C11F15618   5.078   3.184   7.983 -0.3248  0.3148  0.3887
  142OSM   H11F15619   5.106   3.289   7.959  1.1808 -0.3313 -0.8961
  142OSM   H11G15620   5.167   3.130   8.022 -0.6082 -1.2312 -0.9816
  142OSM   C12F15621   4.979   3.193   8.102  0.7696  0.1600  0.0758
  142OSM   H12F15622   4.952   3.089   8.130  3.1183 -0.7084 -0.6050
  142OSM   H12G15623   4.885   3.238   8.065 -0.7575 -0.9316  2.3906
  142OSM   C13F15624   5.037   3.260   8.230  0.8620  0.0576  0.2096
  142OSM   H13F15625   5.069   3.365   8.211 -0.8089  0.7663  1.1073
  142OSM   H13G15626   5.126   3.206   8.267  1.4260  0.3102 -0.7372
  142OSM   C14F15627   4.937   3.266   8.343  0.5581 -0.0713 -0.1566
  142OSM   H14F15628   4.911   3.170   8.393 -1.1151  0.0859 -0.6535
  142OSM   H14G15629   4.839   3.307   8.311 -0.0295 -0.1429  1.4622
  142OSM   C15F15630   4.996   3.347   8.458 -0.0719 -0.4934 -0.1077
  142OSM   H15F15631   5.008   3.448   8.413 -0.9826 -0.3351 -0.0157
  142OSM   H15G15632   5.094   3.318   8.501 -0.4696  0.5419  1.6087
  142OSM   C16F15633   4.908   3.350   8.586 -0.3013  0.1898  0.0007
  142OSM   H16F15634   4.947   3.265   8.646 -1.0478  0.7262  1.2668
  142OSM   H16G15635   4.802   3.326   8.563 -0.2422 -0.4271  0.3443
  142OSM   C17F15636   4.943   3.476   8.670 -0.2263  0.0633  0.7453
  142OSM   H17F15637   5.051   3.494   8.647 -0.0638  1.1785  2.2015
  142OSM   H17G15638   4.945   3.443   8.776  2.9026 -1.0141  0.4630
  142OSM   C18F15639   4.849   3.591   8.649  0.0559 -0.6752  0.2176
  142OSM   H18F15640   4.875   3.656   8.563  1.4264  1.3933  2.0753
  142OSM   H18G15641   4.861   3.655   8.739 -1.1455 -0.6430  0.3740
  142OSM   H18H15642   4.744   3.552   8.647  0.3602 -1.5259  0.2902
  143OSM      N15643   0.897   5.791   6.069  0.0038  0.7207  0.0315
  143OSM    C1515644   0.825   5.907   6.015  0.6449  0.3044  0.1794
  143OSM   H15A15645   0.821   5.985   6.089  1.7946  1.9188 -1.3792
  143OSM   H15B15646   0.728   5.883   5.975  1.3573  0.4312 -1.7777
  143OSM   H15C15647   0.874   5.952   5.930  0.1263  1.7386  0.6092
  143OSM    C1415648   0.813   5.722   6.169 -0.2175 -0.1691  0.0753
  143OSM   H14A15649   0.748   5.784   6.228 -0.9554  0.8203 -1.7212
  143OSM   H14B15650   0.859   5.646   6.232 -0.2673  0.8108  1.3190
  143OSM   H14C15651   0.740   5.665   6.113  0.2618  0.2235 -0.9687
  143OSM    C1315652   0.920   5.687   5.965  0.6784 -0.3088 -0.2404
  143OSM   H13A15653   0.989   5.610   5.996  2.8562  1.3645 -0.5751
  143OSM   H13B15654   0.980   5.726   5.883  3.5661  0.4939  2.0643
  143OSM   H13C15655   0.833   5.644   5.919 -1.0114  0.8917  1.7029
  143OSM    C1215656   1.030   5.827   6.133  0.2795  0.5108  0.1883
  143OSM   H12A15657   1.006   5.864   6.232  1.3407 -0.3103  0.7766
  143OSM   H12B15658   1.090   5.903   6.084 -0.7294  2.3393  1.6360
  143OSM    C1115659   1.128   5.699   6.156  0.5884 -0.6537  0.7897
  143OSM   H11A15660   1.222   5.731   6.207 -0.6896  0.2489  2.7055
  143OSM   H11B15661   1.165   5.659   6.060  0.3192 -2.5475  1.4212
  143OSM      P15662   1.112   5.457   6.237  0.0288  0.0476 -0.1983
  143OSM    O1315663   1.046   5.379   6.343  0.2255  0.9560 -0.0265
  143OSM    O1415664   1.115   5.400   6.100 -0.1497  0.1398  0.1685
  143OSM    O1115665   1.260   5.483   6.287 -0.2004  0.1603  0.3706
  143OSM    O1215666   1.061   5.606   6.240 -0.3427 -0.4692 -1.2064
  143OSM    C1S15667   1.286   5.535   6.413 -0.6065 -0.0600  0.4041
  143OSM    H1S15668   1.205   5.591   6.464  0.4557  2.1230 -0.2072
  143OSM    H1T15669   1.370   5.606   6.398 -2.0264  1.6410  0.2601
  143OSM     NF15670   1.330   5.470   6.652 -0.2744  0.0214 -0.2752
  143OSM    HNF15671   1.415   5.492   6.700  0.2373  0.6999 -1.4682
  143OSM    C2S15672   1.343   5.429   6.514  0.0694  0.5537 -0.0942
  143OSM    H2S15673   1.280   5.341   6.490 -0.4816  0.7874  0.4650
  143OSM    C3S15674   1.495   5.395   6.473  0.2014 -0.5178  0.5749
  143OSM    H3S15675   1.549   5.491   6.482 -1.0518  0.2096  0.6185
  143OSM     O315676   1.510   5.373   6.339  0.0754  0.1118 -0.4507
  143OSM    HO315677   1.437   5.421   6.301  1.9514  3.4481 -0.2201
  143OSM    C4S15678   1.558   5.281   6.539 -0.5415  0.5342  0.2991
  143OSM    H4S15679   1.538   5.185   6.489 -0.2259  1.0442 -0.8533
  143OSM    C5S15680   1.654   5.279   6.631 -0.0636 -0.8357 -0.0871
  143OSM    H5S15681   1.696   5.376   6.662  2.3062 -1.0861 -2.1957
  143OSM    C6S15682   1.721   5.148   6.682 -0.9365 -0.2931 -0.6824
  143OSM    H6S15683   1.812   5.133   6.620 -1.0922 -0.2287 -0.9311
  143OSM    H6T15684   1.656   5.061   6.660  0.9188 -2.3176  1.3973
  143OSM    C7S15685   1.746   5.156   6.837 -0.2684  0.1170  0.7090
  143OSM    H7S15686   1.835   5.222   6.842 -0.4005  0.5270 -1.3339
  143OSM    H7T15687   1.782   5.055   6.868 -1.1522  0.1302  1.8289
  143OSM    C8S15688   1.628   5.204   6.932 -0.0792 -0.1097  0.1779
  143OSM    H8S15689   1.552   5.123   6.939 -1.0274  0.7962  0.6680
  143OSM    H8T15690   1.571   5.296   6.904 -0.6859 -0.7047 -0.5894
  143OSM    C9S15691   1.677   5.218   7.076  0.0943 -0.7662 -0.2561
  143OSM    H9S15692   1.740   5.308   7.082 -0.8690 -0.0861 -0.0257
  143OSM    H9T15693   1.725   5.125   7.113 -0.5712  0.1756  3.3747
  143OSM   C10S15694   1.552   5.234   7.177 -0.7611 -0.1768 -0.1497
  143OSM   H10S15695   1.492   5.142   7.197  1.1212 -1.1457  1.3141
  143OSM   H10T15696   1.488   5.313   7.131  0.1145 -0.5940 -2.1826
  143OSM   C11S15697   1.595   5.298   7.310  0.4246 -0.0492 -0.1292
  143OSM   H11S15698   1.639   5.394   7.275  1.6607 -0.4031  0.3916
  143OSM   H11T15699   1.685   5.248   7.351 -0.1851  0.2537  1.6943
  143OSM   C12S15700   1.483   5.325   7.404 -0.4625  0.2718  0.5103
  143OSM   H12S15701   1.442   5.225   7.430 -0.2509  0.0007 -0.1825
  143OSM   H12T15702   1.396   5.383   7.368 -1.7695 -0.8167  1.8329
  143OSM   C13S15703   1.536   5.395   7.530  0.5725 -0.2396  0.4572
  143OSM   H13S15704   1.460   5.466   7.569  0.9252 -0.2714  1.2201
  143OSM   H13T15705   1.631   5.446   7.506  0.2747  0.2943  0.3882
  143OSM   C14S15706   1.586   5.296   7.637  0.5484  0.2946  0.2874
  143OSM   H14S15707   1.662   5.228   7.592 -0.8495 -0.9807 -0.2640
  143OSM   H14T15708   1.508   5.226   7.673 -0.9223  0.6134 -2.0441
  143OSM   C15S15709   1.645   5.373   7.750  0.3454  0.6943  0.9920
  143OSM   H15S15710   1.713   5.448   7.704 -1.4413  1.0238 -1.3273
  143OSM   H15T15711   1.705   5.305   7.813  0.5726 -0.0549 -0.0044
  143OSM   C16S15712   1.545   5.441   7.844 -0.0489 -0.0147 -0.2472
  143OSM   H16S15713   1.463   5.374   7.880 -1.8862  1.6000 -1.2100
  143OSM   H16T15714   1.493   5.523   7.789  1.2297  0.7177 -0.4078
  143OSM   C17S15715   1.626   5.515   7.952 -0.8817 -0.1701  0.3779
  143OSM   H17S15716   1.713   5.567   7.905 -0.1211 -0.8340  1.0351
  143OSM   H17T15717   1.664   5.438   8.022  0.9153  0.1154 -0.2066
  143OSM   C18S15718   1.550   5.626   8.027  0.8093 -0.0290 -0.1787
  143OSM   H18S15719   1.626   5.686   8.080 -1.2105  0.1594  2.7130
  143OSM   H18T15720   1.479   5.585   8.101  0.9067 -0.8700 -0.5381
  143OSM   H18U15721   1.496   5.695   7.958 -0.9276 -0.7886  0.3573
  143OSM    C1F15722   1.218   5.482   6.709  0.7343 -0.4036 -0.2983
  143OSM     OF15723   1.122   5.435   6.663  0.7736 -0.0625  0.1791
  143OSM    C2F15724   1.217   5.536   6.853 -0.2059  0.6172 -0.0639
  143OSM    H2F15725   1.258   5.639   6.852 -2.8786  1.7581 -1.5932
  143OSM    H2G15726   1.280   5.470   6.916 -0.9589  0.0674  0.1315
  143OSM    C3F15727   1.077   5.544   6.914  0.2783  0.4941  0.5798
  143OSM    H3F15728   1.036   5.441   6.924 -0.3580  0.5246 -1.3123
  143OSM    H3G15729   1.007   5.580   6.836  0.3440 -0.7650 -0.0854
  143OSM    C4F15730   1.066   5.629   7.040  0.0071 -0.0392 -0.8043
  143OSM    H4F15731   0.965   5.608   7.081 -0.1256  2.6756  0.4623
  143OSM    H4G15732   1.078   5.737   7.016 -1.0607  0.4570  0.7941
  143OSM    C5F15733   1.158   5.591   7.151 -0.5983  0.5251  0.4048
  143OSM    H5F15734   1.262   5.628   7.135 -1.0122  1.0072 -1.3672
  143OSM    H5G15735   1.143   5.483   7.173 -1.7608  0.2592 -1.4391
  143OSM    C6F15736   1.121   5.671   7.281  0.1273  0.3039  0.0769
  143OSM    H6F15737   1.013   5.669   7.310  0.5468  2.6695  2.1775
  143OSM    H6G15738   1.148   5.778   7.268 -0.8748  0.6354  0.5651
  143OSM    C7F15739   1.195   5.630   7.408  0.9550  0.2021  0.2907
  143OSM    H7F15740   1.299   5.669   7.402  1.5234 -1.5386 -2.8460
  143OSM    H7G15741   1.187   5.520   7.419  0.8387  0.1698 -0.1033
  143OSM    C8F15742   1.127   5.697   7.532 -0.1613 -0.8734 -0.3146
  143OSM    H8F15743   1.020   5.668   7.543  0.6375 -3.0454  4.6765
  143OSM    H8G15744   1.132   5.808   7.526 -0.6887 -0.8555 -0.5210
  143OSM    C9F15745   1.190   5.645   7.658 -0.7487  0.1615  0.5667
  143OSM    H9F15746   1.225   5.542   7.639 -0.9816  0.3869 -1.1894
  143OSM   C10F15747   1.211   5.708   7.780 -0.6853 -0.4723 -0.0987
  143OSM   H10F15748   1.257   5.657   7.866  2.1899  1.5826 -0.2935
  143OSM   C11F15749   1.167   5.851   7.807  0.2685 -0.1234  0.6282
  143OSM   H11F15750   1.153   5.908   7.713 -0.7077  2.0117  1.9989
  143OSM   H11G15751   1.254   5.912   7.839 -0.7803  2.4108 -1.0248
  143OSM   C12F15752   1.056   5.880   7.905 -0.0357 -0.2250 -0.1014
  143OSM   H12F15753   0.958   5.860   7.858 -0.2040 -1.3288  0.6876
  143OSM   H12G15754   1.064   5.991   7.917  0.8522 -0.1112 -1.4619
  143OSM   C13F15755   1.051   5.810   8.041  0.4053 -0.0030 -1.2069
  143OSM   H13F15756   1.145   5.841   8.092  0.3528 -1.5017 -0.1222
  143OSM   H13G15757   1.060   5.700   8.031  1.5699  0.0351 -0.7065
  143OSM   C14F15758   0.922   5.842   8.117  0.7613  0.2700 -0.1408
  143OSM   H14F15759   0.830   5.793   8.079  1.0348 -0.5613  0.2653
  143OSM   H14G15760   0.912   5.953   8.118 -0.5244  0.1718 -0.3954
  143OSM   C15F15761   0.926   5.797   8.264  0.2792  0.9217  0.2716
  143OSM   H15F15762   0.884   5.882   8.323 -2.8682  0.0858 -0.5661
  143OSM   H15G15763   1.031   5.772   8.290  0.1757 -1.5568 -1.3795
  143OSM   C16F15764   0.828   5.676   8.299 -0.9127  0.4729 -0.3445
  143OSM   H16F15765   0.870   5.588   8.247  0.8456  0.6351  0.7214
  143OSM   H16G15766   0.730   5.688   8.247 -0.3696 -1.5947 -1.9827
  143OSM   C17F15767   0.819   5.655   8.450  0.1848 -0.7054 -0.1077
  143OSM   H17F15768   0.760   5.745   8.476  1.5407  1.2735 -3.2826
  143OSM   H17G15769   0.917   5.659   8.502 -1.1881  0.0051  2.5876
  143OSM   C18F15770   0.743   5.527   8.478  0.2348  0.0987 -0.0480
  143OSM   H18F15771   0.654   5.517   8.413  0.4646 -2.5969 -0.0707
  143OSM   H18G15772   0.706   5.534   8.583 -3.1248  0.5650 -1.1509
  143OSM   H18H15773   0.804   5.434   8.470 -0.7789 -0.7123  1.1174
  144OSM      N15774   0.430   4.150   5.790 -0.1384 -0.1922  0.0438
  144OSM    C1515775   0.567   4.094   5.776  0.4900  0.2875  0.3826
  144OSM   H15A15776   0.642   4.153   5.827  0.9261 -0.5014  0.6855
  144OSM   H15B15777   0.583   4.088   5.670 -1.2082 -1.5128  0.1779
  144OSM   H15C15778   0.574   3.994   5.817  0.0006 -0.3626 -1.0597
  144OSM    C1415779   0.411   4.282   5.720 -0.4155  0.0964 -0.1737
  144OSM   H14A15780   0.455   4.367   5.771 -0.4531  0.3912 -0.6284
  144OSM   H14B15781   0.305   4.301   5.713 -0.6613 -0.5537  1.3257
  144OSM   H14C15782   0.451   4.285   5.620 -0.4707 -0.4057 -0.2119
  144OSM    C1315783   0.324   4.057   5.743 -0.1354  0.2632 -0.6184
  144OSM   H13A15784   0.252   4.058   5.824  0.3338  0.6604 -0.2017
  144OSM   H13B15785   0.353   3.954   5.729 -1.4570 -0.3485  0.8373
  144OSM   H13C15786   0.277   4.093   5.653  0.6187  0.3329 -0.9865
  144OSM    C1215787   0.413   4.179   5.939  0.3942 -0.3715  0.5186
  144OSM   H12A15788   0.322   4.237   5.949  2.1002  2.1864  2.6514
  144OSM   H12B15789   0.479   4.252   5.983 -1.7611  1.3387  1.0684
  144OSM    C1115790   0.405   4.063   6.044 -0.3680  0.0915 -0.1161
  144OSM   H11A15791   0.434   4.090   6.148  1.9727 -0.5691 -0.5414
  144OSM   H11B15792   0.487   3.994   6.016  0.0617  0.2798  0.6433
  144OSM      P15793   0.147   4.079   6.090 -0.2608  0.3012  0.1291
  144OSM    O1315794   0.110   4.181   5.988 -0.0231 -0.2964  0.3803
  144OSM    O1415795   0.057   3.977   6.145 -0.3847  0.1942  0.1469
  144OSM    O1115796   0.213   4.153   6.223  0.7051  0.0607 -0.6714
  144OSM    O1215797   0.276   4.003   6.034 -0.0625 -0.2379 -0.1167
  144OSM    C1S15798   0.124   4.206   6.321  0.2592 -0.2918 -0.0561
  144OSM    H1S15799   0.017   4.189   6.295  0.0323  1.1742 -0.1669
  144OSM    H1T15800   0.139   4.316   6.325 -2.3279  0.1288 -0.1154
  144OSM     NF15801   0.054   4.222   6.561 -0.1755  0.2916  0.3063
  144OSM    HNF15802   0.074   4.310   6.603 -0.5306  0.8104 -0.5796
  144OSM    C2S15803   0.147   4.162   6.466 -0.4195 -0.3130  0.5275
  144OSM    H2S15804   0.138   4.051   6.469  0.3438 -0.5414 -2.5799
  144OSM    C3S15805   0.308   4.175   6.495  0.4648  0.3495  0.4092
  144OSM    H3S15806   0.326   4.284   6.505  0.0292  0.6939 -1.8903
  144OSM     O315807   0.393   4.130   6.390 -0.0743 -0.8180  0.3338
  144OSM    HO315808   0.327   4.120   6.320 -0.9789 -0.8123  1.1589
  144OSM    C4S15809   0.343   4.110   6.624  0.2960  0.3548 -0.0244
  144OSM    H4S15810   0.310   4.172   6.709  0.9161  0.1868  0.3470
  144OSM    C5S15811   0.399   3.992   6.648 -0.1849  0.1481  0.2555
  144OSM    H5S15812   0.441   3.919   6.578  0.9839 -0.9523  2.0047
  144OSM    C6S15813   0.433   3.947   6.790 -0.0986  0.3332 -0.0721
  144OSM    H6S15814   0.542   3.927   6.786  0.5212  3.4095 -0.5826
  144OSM    H6T15815   0.372   3.854   6.800 -1.4785  0.9857 -1.9286
  144OSM    C7S15816   0.400   4.032   6.913 -0.1973 -0.1083  0.5198
  144OSM    H7S15817   0.299   4.077   6.920 -0.3325 -0.4643  0.9383
  144OSM    H7T15818   0.474   4.115   6.905  1.3534 -1.3259  1.5297
  144OSM    C8S15819   0.423   3.961   7.045 -0.8127  0.6317  0.1084
  144OSM    H8S15820   0.530   3.935   7.059 -1.4090 -2.3620 -0.3416
  144OSM    H8T15821   0.366   3.866   7.052  1.0654 -0.5477  0.2209
  144OSM    C9S15822   0.381   4.045   7.163  1.0314 -0.9459  1.0160
  144OSM    H9S15823   0.274   4.072   7.150  1.5723  0.6097 -0.6456
  144OSM    H9T15824   0.424   4.147   7.150  0.7917 -0.5775  2.8599
  144OSM   C10S15825   0.391   3.991   7.300 -0.0759  0.4017 -0.1520
  144OSM   H10S15826   0.496   3.958   7.312 -0.7199 -0.8341  3.6478
  144OSM   H10T15827   0.348   3.889   7.304  2.0793 -0.5691 -0.7259
  144OSM   C11S15828   0.352   4.090   7.405 -0.0788  0.2924  0.0779
  144OSM   H11S15829   0.250   4.128   7.380 -0.4524  0.4363  1.7036
  144OSM   H11T15830   0.423   4.176   7.409  0.2360  0.4602 -4.2218
  144OSM   C12S15831   0.343   4.020   7.548  0.3350  0.3948  0.0685
  144OSM   H12S15832   0.434   3.968   7.585  0.1111  0.9594  1.4841
  144OSM   H12T15833   0.268   3.939   7.544  0.8762 -0.1191  0.1385
  144OSM   C13S15834   0.310   4.131   7.648  0.1598  0.8029 -0.1602
  144OSM   H13S15835   0.203   4.158   7.652  0.5662  2.6810 -0.7365
  144OSM   H13T15836   0.374   4.216   7.614  2.9573 -1.2996 -0.5709
  144OSM   C14S15837   0.346   4.092   7.796  0.0414  0.2079  0.3904
  144OSM   H14S15838   0.454   4.082   7.821 -0.9316 -0.8590  5.3673
  144OSM   H14T15839   0.302   3.992   7.814  0.5958  0.0878  1.1415
  144OSM   C15S15840   0.284   4.179   7.899  0.4712  0.2737 -0.7141
  144OSM   H15S15841   0.284   4.141   8.003 -0.8197  0.5318 -0.5998
  144OSM   H15T15842   0.176   4.171   7.874  1.0155 -2.9388 -2.5350
  144OSM   C16S15843   0.337   4.323   7.913  0.3236 -0.3398  0.0285
  144OSM   H16S15844   0.328   4.370   7.813 -1.5118  1.2153  0.8571
  144OSM   H16T15845   0.441   4.308   7.951  0.5853  1.0402 -0.0769
  144OSM   C17S15846   0.255   4.399   8.019  0.6388 -0.1197 -0.4236
  144OSM   H17S15847   0.308   4.490   8.054  2.1667 -1.0780 -0.1136
  144OSM   H17T15848   0.247   4.351   8.119  0.1469  1.5138  0.3584
  144OSM   C18S15849   0.104   4.436   7.986 -0.3442  0.2741 -0.4395
  144OSM   H18S15850   0.046   4.341   7.997  0.0921  0.1357  0.9695
  144OSM   H18T15851   0.093   4.487   7.889 -0.8141  1.3830  0.1777
  144OSM   H18U15852   0.061   4.505   8.061 -0.8230  2.0197 -2.2536
  144OSM    C1F15853  -0.080   4.186   6.565 -0.0528  0.5880 -0.3633
  144OSM     OF15854  -0.113   4.077   6.524  0.1682 -0.2041  0.0769
  144OSM    C2F15855  -0.183   4.281   6.618  0.0908 -0.6511 -0.3742
  144OSM    H2F15856  -0.257   4.279   6.535 -0.7719 -1.3092  0.3839
  144OSM    H2G15857  -0.148   4.385   6.636  0.0816 -0.6252 -0.5077
  144OSM    C3F15858  -0.250   4.235   6.753  0.1120 -0.3721 -0.6928
  144OSM    H3F15859  -0.172   4.178   6.808 -0.5848  0.1021  0.8386
  144OSM    H3G15860  -0.311   4.151   6.715  0.4232  0.1945 -2.5563
  144OSM    C4F15861  -0.325   4.332   6.840  0.2232 -0.6074 -0.4195
  144OSM    H4F15862  -0.418   4.365   6.789 -2.3541 -2.5906  2.6287
  144OSM    H4G15863  -0.259   4.420   6.861 -2.6977  1.1744  2.0776
  144OSM    C5F15864  -0.375   4.268   6.973  0.2489  0.4569  0.2498
  144OSM    H5F15865  -0.445   4.341   7.019  1.0059  1.2727  0.1329
  144OSM    H5G15866  -0.297   4.251   7.050  1.4028  2.3388 -0.4329
  144OSM    C6F15867  -0.459   4.140   6.944  0.2046 -0.3905 -0.5687
  144OSM    H6F15868  -0.401   4.059   6.896  2.9927  1.2737 -0.2047
  144OSM    H6G15869  -0.534   4.178   6.871 -0.3071  0.2081  0.2599
  144OSM    C7F15870  -0.544   4.078   7.060 -0.1802  0.1086 -0.1804
  144OSM    H7F15871  -0.592   3.987   7.020 -1.1887  1.5574 -2.4664
  144OSM    H7G15872  -0.623   4.153   7.083  0.0500  0.1538  0.4696
  144OSM    C8F15873  -0.456   4.048   7.184 -0.0681  0.2567  1.1775
  144OSM    H8F15874  -0.355   4.014   7.152 -0.0025  0.0085  1.6271
  144OSM    H8G15875  -0.498   3.964   7.244  0.0220 -0.9837 -0.4520
  144OSM    C9F15876  -0.458   4.170   7.277  0.0465  0.3899 -0.7109
  144OSM    H9F15877  -0.361   4.222   7.274  1.3965 -2.0129 -2.4300
  144OSM   C10F15878  -0.562   4.208   7.358  0.0126 -1.0553 -0.0989
  144OSM   H10F15879  -0.559   4.304   7.411 -0.8107 -0.9082 -0.3030
  144OSM   C11F15880  -0.702   4.150   7.369 -0.2311  0.5265  0.0601
  144OSM   H11F15881  -0.716   4.067   7.295 -0.8404  0.5502  0.1434
  144OSM   H11G15882  -0.767   4.240   7.363  0.9658  1.3445 -1.3246
  144OSM   C12F15883  -0.703   4.114   7.520  0.0827  0.1278  1.0181
  144OSM   H12F15884  -0.809   4.102   7.551  0.0706 -1.9268  0.3153
  144OSM   H12G15885  -0.669   4.199   7.582 -1.3187  0.3848  1.4867
  144OSM   C13F15886  -0.615   3.985   7.552  0.8034  0.0210 -0.5884
  144OSM   H13F15887  -0.509   4.008   7.528  0.4307  1.2785 -1.0758
  144OSM   H13G15888  -0.649   3.917   7.471  1.8902  1.4048 -2.2919
  144OSM   C14F15889  -0.629   3.928   7.697  0.3089  0.0919 -0.1249
  144OSM   H14F15890  -0.598   3.821   7.698 -0.1437 -0.0589 -1.0344
  144OSM   H14G15891  -0.738   3.935   7.717 -0.6813  2.1876 -4.7717
  144OSM   C15F15892  -0.554   4.012   7.796 -0.0133  0.0291  0.2767
  144OSM   H15F15893  -0.608   4.107   7.818  0.6018  0.7900 -1.2786
  144OSM   H15G15894  -0.463   4.050   7.744 -0.3397  3.1019  1.6869
  144OSM   C16F15895  -0.519   3.938   7.929  0.2106 -0.2363  0.9602
  144OSM   H16F15896  -0.422   3.887   7.908  0.1806 -0.1554  0.6124
  144OSM   H16G15897  -0.596   3.860   7.942 -1.1230  0.5145 -1.7466
  144OSM   C17F15898  -0.507   4.032   8.048  0.0683 -0.5570  0.3195
  144OSM   H17F15899  -0.595   4.100   8.044  0.6960  0.2198 -0.4234
  144OSM   H17G15900  -0.417   4.095   8.033 -0.7497  0.3180 -1.2188
  144OSM   C18F15901  -0.498   3.950   8.178 -0.0191 -0.1609 -0.0067
  144OSM   H18F15902  -0.478   4.020   8.263  0.9027 -2.8124  2.1051
  144OSM   H18G15903  -0.410   3.882   8.179  0.2777  0.2101  0.7984
  144OSM   H18H15904  -0.590   3.890   8.189  0.1871 -0.2950  1.1768
  145SAPE     N15905   5.059   0.980  10.272 -0.2196 -0.5191  0.5138
  145SAPE   HN115906   4.993   0.970  10.192 -1.0170  3.2370  0.5170
  145SAPE   HN215907   5.016   1.055  10.330 -0.7566  0.5859 -1.2343
  145SAPE   HN315908   5.147   1.022  10.236  0.6946  0.1271  3.2486
  145SAPE   C1215909   5.079   0.859  10.355 -0.0362 -0.0393  0.2276
  145SAPE  H12A15910   5.079   0.763  10.300  2.0666 -2.0539  3.4054
  145SAPE  H12B15911   4.995   0.861  10.428 -1.2488  0.8747 -1.1374
  145SAPE   C1115912   5.214   0.858  10.417 -0.0034  0.1369 -0.7543
  145SAPE  H11A15913   5.299   0.824  10.354  0.9426  3.8549 -1.7513
  145SAPE  H11B15914   5.204   0.786  10.501  0.3349 -1.1602 -1.7910
  145SAPE     P15915   5.344   1.089  10.424 -0.3199  0.3955  0.4575
  145SAPE   O1315916   5.310   1.225  10.471  0.1779  1.3822  0.3847
  145SAPE   O1415917   5.485   1.053  10.436 -0.5836 -0.0715 -0.0577
  145SAPE   O1215918   5.246   0.983  10.486  0.3106  0.1682  0.3038
  145SAPE   O1115919   5.295   1.093  10.269 -0.5634  0.0140 -0.3227
  145SAPE    C115920   5.332   1.206  10.202  0.2089  0.2422  0.0662
  145SAPE    HA15921   5.276   1.294  10.240 -1.1489 -0.1455 -0.9619
  145SAPE    HB15922   5.443   1.218  10.202  0.2125  0.2534 -1.0398
  145SAPE    C215923   5.294   1.188  10.055  0.4437  0.0140 -0.4807
  145SAPE    HS15924   5.190   1.151  10.044  1.2378 -2.7643  0.5621
  145SAPE   O2115925   5.394   1.097  10.001  0.3088 -0.7333 -0.2260
  145SAPE   C2115926   5.359   0.968  10.025 -0.1594 -0.6755  0.1175
  145SAPE   O2215927   5.247   0.928  10.062  0.0706  0.0231 -0.3646
  145SAPE   C2215928   5.484   0.886   9.997  0.1204 -0.2617  0.2815
  145SAPE   H2R15929   5.520   0.917   9.897  0.1104  2.2240  0.9884
  145SAPE   H2S15930   5.559   0.929  10.065 -1.8729  3.4167  0.3873
  145SAPE    C315931   5.302   1.324   9.986 -0.2890 -0.1921  0.0227
  145SAPE    HX15932   5.393   1.386  10.002 -0.6521  0.8627 -1.7776
  145SAPE    HY15933   5.227   1.387  10.038  1.7859  2.5566 -0.1004
  145SAPE   O3115934   5.285   1.317   9.840  0.4193 -0.0300 -0.4953
  145SAPE   C3115935   5.153   1.297   9.808  0.2392 -0.0351  0.0739
  145SAPE   O3215936   5.057   1.307   9.886 -0.4446 -0.7167  0.2523
  145SAPE   C3215937   5.146   1.269   9.657 -0.7333 -0.0988  0.1806
  145SAPE   H2X15938   5.081   1.181   9.640 -4.8662  1.9697  3.5622
  145SAPE   H2Y15939   5.252   1.277   9.623 -0.5606  1.2022  0.9574
  145SAPE   C2315940   5.465   0.731  10.014  0.1420 -0.3582  0.0232
  145SAPE   H3R15941   5.378   0.701   9.951 -0.8198  0.4918  0.8906
  145SAPE   H3S15942   5.436   0.708  10.119 -0.7796 -3.7534 -0.8692
  145SAPE   C2415943   5.587   0.650   9.968  0.1168  0.0597 -0.4351
  145SAPE   H4R15944   5.681   0.658  10.027 -1.0068 -1.0704  1.6167
  145SAPE   H4S15945   5.607   0.685   9.865 -1.2050 -1.8793 -1.3896
  145SAPE   C2515946   5.553   0.502   9.969  0.2488 -0.2390 -0.2264
  145SAPE   H5R15947   5.550   0.448  10.065  1.0956 -1.1323 -0.6924
  145SAPE   C2615948   5.531   0.435   9.856 -0.4357  0.5963  0.4286
  145SAPE   H6R15949   5.532   0.325   9.858 -2.2185  0.4985 -1.1623
  145SAPE   C2715950   5.536   0.497   9.724  0.1112 -0.0409  0.7118
  145SAPE   H7R15951   5.477   0.592   9.723  0.9547  0.4846  0.0645
  145SAPE   H7S15952   5.471   0.443   9.651 -1.2445  2.7605 -0.3330
  145SAPE   C2815953   5.673   0.503   9.666 -0.1962 -1.1126 -0.0823
  145SAPE   H8R15954   5.759   0.501   9.734 -0.0760 -0.8370 -0.2253
  145SAPE   C2915955   5.710   0.522   9.536  0.2868 -0.6081 -0.4787
  145SAPE   H9R15956   5.816   0.536   9.508  0.3371  2.5059  0.9470
  145SAPE  C21015957   5.616   0.547   9.422 -0.6734  0.0647  0.2665
  145SAPE  H10R15958   5.568   0.647   9.421  0.6583  0.8879 -3.8169
  145SAPE  H10S15959   5.547   0.461   9.423  1.0073 -1.3420  0.9640
  145SAPE  C21115960   5.681   0.551   9.282  0.2387  0.9177 -0.1284
  145SAPE  H11R15961   5.674   0.652   9.239  3.8895  1.5358  0.4651
  145SAPE  C21215962   5.747   0.454   9.212 -0.2524 -0.0245  0.7273
  145SAPE  H12R15963   5.786   0.483   9.114 -0.9393  0.6524  0.6435
  145SAPE  C21315964   5.769   0.305   9.243 -0.1698 -0.1703 -0.2035
  145SAPE  H13R15965   5.724   0.282   9.341 -1.5910  2.5161 -0.1283
  145SAPE  H13S15966   5.879   0.293   9.258 -0.2528 -0.7466 -0.0275
  145SAPE  C21415967   5.725   0.220   9.125  0.0262 -0.5515  0.0089
  145SAPE  H14R15968   5.636   0.257   9.070 -0.8427 -4.0017 -1.1648
  145SAPE  C21515969   5.783   0.109   9.083  0.1832 -0.1202  0.3821
  145SAPE  H15R15970   5.732   0.067   8.996 -0.9176  3.3099 -0.8008
  145SAPE  C21615971   5.903   0.035   9.134 -0.5204 -0.4928 -0.3582
  145SAPE  H16R15972   5.900  -0.075   9.116  0.1000 -0.7464  0.9965
  145SAPE  H16S15973   5.919   0.032   9.244 -0.5522  0.9892 -0.2910
  145SAPE  C21715974   6.042   0.079   9.080  0.5735  0.0041 -0.0224
  145SAPE  H17R15975   6.116   0.005   9.115 -0.1617 -0.5682  0.3325
  145SAPE  H17S15976   6.051   0.184   9.116 -0.7593  0.4955 -1.0181
  145SAPE  C21815977   6.046   0.083   8.930  0.4735  0.0718 -0.0110
  145SAPE  H18R15978   5.978   0.167   8.904  1.1547  1.4405  2.3259
  145SAPE  H18S15979   6.007  -0.010   8.885  0.7505 -0.7296  1.3367
  145SAPE  C21915980   6.184   0.115   8.872 -0.4139  0.3031 -0.2834
  145SAPE  H19R15981   6.177   0.088   8.765  0.8964 -1.8077  0.1176
  145SAPE  H19S15982   6.261   0.046   8.913  1.1376  1.7974 -0.5746
  145SAPE  C22015983   6.232   0.250   8.909  0.3692  0.2704  0.9096
  145SAPE  H20R15984   6.174   0.329   8.855  1.0278  0.4087  0.3864
  145SAPE  H20S15985   6.338   0.276   8.890 -0.2368  2.0030 -0.3292
  145SAPE  H20T15986   6.221   0.261   9.019 -1.5678 -1.8476  1.0049
  145SAPE   C3315987   5.064   1.378   9.578 -0.4705 -0.1186  0.5161
  145SAPE   H3X15988   5.096   1.483   9.594  0.5798 -0.2828 -0.4326
  145SAPE   H3Y15989   4.955   1.376   9.602 -0.4056  1.1605  1.0085
  145SAPE   C3415990   5.067   1.372   9.416 -0.4861  0.0595  0.0786
  145SAPE   H4X15991   5.169   1.405   9.389  0.1707 -1.2188  0.8851
  145SAPE   H4Y15992   4.999   1.445   9.366 -0.3924 -0.9816 -1.6638
  145SAPE   C3515993   5.026   1.235   9.361  0.2558  0.1732 -0.3825
  145SAPE   H5X15994   4.921   1.216   9.393  0.3203  2.5552  1.4703
  145SAPE   H5Y15995   5.095   1.156   9.399  0.0370 -0.9747 -2.2334
  145SAPE   C3615996   5.030   1.233   9.209 -0.0871 -0.4697 -0.3693
  145SAPE   H6X15997   5.140   1.230   9.193 -0.0151  1.4995 -0.5428
  145SAPE   H6Y15998   4.991   1.334   9.186  0.2610  0.9952  4.4090
  145SAPE   C3715999   4.948   1.108   9.165 -0.4853  0.1762  0.5433
  145SAPE   H7X16000   4.844   1.110   9.202 -0.6950  1.1487 -0.0852
  145SAPE   H7Y16001   5.006   1.020   9.201  0.0397 -0.4241 -1.6372
  145SAPE   C3816002   4.947   1.095   9.012 -0.1060  0.3249 -0.1690
  145SAPE   H8X16003   4.915   1.188   8.960  0.0956 -0.2087 -1.2860
  145SAPE   H8Y16004   4.867   1.024   8.984  0.3303 -1.0502  1.9030
  145SAPE   C3916005   5.072   1.040   8.946 -0.1933 -0.0562 -0.0857
  145SAPE   H9X16006   5.087   0.931   8.962 -2.3457 -0.4229 -0.3529
  145SAPE   H9Y16007   5.158   1.104   8.976  0.7666 -1.0794 -0.5774
  145SAPE  C31016008   5.068   1.063   8.794 -0.8990 -0.0953  0.4986
  145SAPE  H10X16009   5.166   1.032   8.752  0.0139  0.5006  2.0790
  145SAPE  H10Y16010   5.060   1.171   8.771  2.4977  0.2548  0.4742
  145SAPE  C31116011   4.959   0.990   8.714 -0.6569 -0.2505  0.4732
  145SAPE  H11X16012   4.858   1.037   8.714  0.5582  2.6252 -0.5749
  145SAPE  H11Y16013   4.942   0.888   8.754 -0.2093 -0.5643 -0.1188
  145SAPE  C31216014   5.002   0.979   8.563 -1.1970 -0.8382 -0.4593
  145SAPE  H12X16015   5.094   0.916   8.560 -1.8603 -1.8486 -0.2124
  145SAPE  H12Y16016   5.008   1.079   8.515 -0.1559 -1.0982 -0.9052
  145SAPE  C31316017   4.905   0.885   8.493  0.3880  0.1735  1.0500
  145SAPE  H13X16018   4.811   0.943   8.481  0.0695 -0.6866 -1.1339
  145SAPE  H13Y16019   4.893   0.798   8.562  1.5193  1.8594  3.5132
  145SAPE  C31416020   4.959   0.825   8.364  0.1314  0.2118 -0.4539
  145SAPE  H14X16021   5.033   0.747   8.393 -0.8367 -0.0475  1.4639
  145SAPE  H14Y16022   5.008   0.903   8.302  0.4961  0.1551 -0.2417
  145SAPE  C31516023   4.848   0.772   8.270  0.1602  0.0352  0.3587
  145SAPE  H15X16024   4.780   0.707   8.328  0.0262  1.4833  1.9018
  145SAPE  H15Y16025   4.903   0.719   8.188 -1.3360  1.3570 -1.6028
  145SAPE  C31616026   4.757   0.877   8.199  0.0274  0.6006 -0.3098
  145SAPE  H16X16027   4.814   0.934   8.123  2.7375  0.2978  1.3682
  145SAPE  H16Y16028   4.730   0.949   8.279  0.7521 -1.5318  2.0056
  145SAPE  C31716029   4.631   0.813   8.137 -0.3298 -0.6133 -0.2243
  145SAPE  H17X16030   4.575   0.760   8.217 -0.5175  0.7004  0.5399
  145SAPE  H17Y16031   4.660   0.741   8.057  4.4313  2.9100 -2.1977
  145SAPE  C31816032   4.547   0.925   8.072 -0.2562  0.3812  0.2361
  145SAPE  H18X16033   4.479   0.878   7.997 -0.5263  0.3187  0.5172
  145SAPE  H18Y16034   4.618   0.992   8.019 -1.1692  1.1126 -0.0842
  145SAPE  H18Z16035   4.490   0.982   8.148  1.0115  3.2146 -0.7934
  146SAPE     N16036   6.048   5.956  10.706 -0.4911  0.9403 -0.6397
  146SAPE   HN116037   6.060   5.922  10.803 -3.1059  0.8231 -0.2826
  146SAPE   HN216038   6.107   5.899  10.642  0.8127  1.2875  0.2165
  146SAPE   HN316039   6.073   6.057  10.701 -1.3265  1.1077 -2.3073
  146SAPE   C1216040   5.900   5.928  10.678 -0.1952 -0.0446  0.0761
  146SAPE  H12A16041   5.840   5.976  10.759 -0.8190 -0.8534  0.1169
  146SAPE  H12B16042   5.880   5.819  10.689  0.4857 -0.4516 -2.2965
  146SAPE   C1116043   5.848   5.983  10.546 -0.2864 -0.1095  1.0217
  146SAPE  H11A16044   5.748   5.936  10.534  0.8265 -2.0818 -1.7251
  146SAPE  H11B16045   5.903   5.935  10.462  1.7591  1.5395  1.3513
  146SAPE     P16046   5.733   6.210  10.610 -0.4384 -0.2788  0.3971
  146SAPE   O1316047   5.704   6.159  10.744 -0.0371  0.2045  0.1766
  146SAPE   O1416048   5.765   6.353  10.595 -0.1451 -0.0556 -0.4593
  146SAPE   O1216049   5.851   6.123  10.545  0.3560  0.1635  0.1553
  146SAPE   O1116050   5.611   6.173  10.516  0.4700 -0.1392  0.3022
  146SAPE    C116051   5.614   6.164  10.374 -0.4559 -0.2580  0.1306
  146SAPE    HA16052   5.571   6.255  10.327  3.6487  1.5114 -0.6993
  146SAPE    HB16053   5.721   6.152  10.347  0.1130 -1.5473  2.6601
  146SAPE    C216054   5.535   6.043  10.312  0.1999 -0.3261 -0.4874
  146SAPE    HS16055   5.427   6.066  10.320  0.4584  1.6493 -1.8769
  146SAPE   O2116056   5.579   5.915  10.366  0.0209  0.4040  0.9757
  146SAPE   C2116057   5.503   5.876  10.468  0.0145 -0.1862  0.6153
  146SAPE   O2216058   5.423   5.942  10.529 -0.1255 -0.2961 -0.0068
  146SAPE   C2216059   5.521   5.723  10.485 -0.3271 -0.4936 -0.1973
  146SAPE   H2R16060   5.583   5.712  10.577  2.2410  0.2647 -1.7327
  146SAPE   H2S16061   5.418   5.689  10.507 -0.2041 -0.3190  0.6868
  146SAPE    C316062   5.570   6.030  10.156 -0.2932 -0.0742 -0.3526
  146SAPE    HX16063   5.524   5.934  10.126 -0.6682 -0.6538  1.8825
  146SAPE    HY16064   5.681   6.032  10.146 -0.4525  1.0328 -2.4314
  146SAPE   O3116065   5.534   6.143  10.080  0.6798 -0.5592 -0.4714
  146SAPE   C3116066   5.535   6.114   9.948 -0.2758 -0.4229 -0.0177
  146SAPE   O3216067   5.567   6.010   9.900 -0.3868 -0.3530 -0.0007
  146SAPE   C3216068   5.515   6.245   9.877 -0.0459  0.2148 -0.2948
  146SAPE   H2X16069   5.603   6.308   9.899  0.1295 -0.0299 -0.2951
  146SAPE   H2Y16070   5.425   6.299   9.914 -0.4159  0.0576 -0.9341
  146SAPE   C2316071   5.586   5.650  10.361  0.1218  0.3882  0.0102
  146SAPE   H3R16072   5.688   5.693  10.353 -0.1615  0.8007 -2.0516
  146SAPE   H3S16073   5.538   5.670  10.262 -0.6173 -0.1951  0.2432
  146SAPE   C2416074   5.582   5.495  10.368  0.5324 -0.2345 -0.2705
  146SAPE   H4R16075   5.616   5.456  10.467 -1.3023  0.0332  0.4992
  146SAPE   H4S16076   5.648   5.450  10.291 -0.1814  0.5257 -1.3538
  146SAPE   C2516077   5.444   5.441  10.347 -0.4598 -0.2940  0.1909
  146SAPE   H5R16078   5.385   5.450  10.439  0.2890  1.8760  0.5179
  146SAPE   C2616079   5.387   5.416  10.230 -0.3133  0.4773  0.3301
  146SAPE   H6R16080   5.285   5.376  10.224  0.2468 -0.7670 -2.9564
  146SAPE   C2716081   5.456   5.420  10.095 -0.4098 -0.4868  1.1077
  146SAPE   H7R16082   5.565   5.395  10.091  0.2587  2.2326  0.0840
  146SAPE   H7S16083   5.468   5.524  10.060  3.0128 -0.6097  1.5760
  146SAPE   C2816084   5.378   5.358   9.975 -0.7755 -0.3629  0.6078
  146SAPE   H8R16085   5.274   5.393   9.971 -1.1011 -1.4162 -1.6763
  146SAPE   C2916086   5.418   5.263   9.887 -0.5540 -0.1671 -0.2385
  146SAPE   H9R16087   5.340   5.229   9.818  1.4019 -0.4342 -2.4396
  146SAPE  C21016088   5.554   5.203   9.878  0.2620  0.1789 -0.3143
  146SAPE  H10R16089   5.613   5.248   9.960 -3.7132  0.0533  2.9588
  146SAPE  H10S16090   5.595   5.242   9.782 -1.3008  0.2577 -0.9891
  146SAPE  C21116091   5.565   5.056   9.883  0.3548  0.1398 -0.3804
  146SAPE  H11R16092   5.476   5.009   9.927  0.5722  1.5329  1.6867
  146SAPE  C21216093   5.672   4.986   9.853  0.0892 -0.2768  0.0367
  146SAPE  H12R16094   5.663   4.876   9.851  0.0735 -0.2740 -0.0295
  146SAPE  C21316095   5.806   5.042   9.815  0.1217  0.5668 -0.5537
  146SAPE  H13R16096   5.809   5.152   9.832  0.1728  0.4446  0.2692
  146SAPE  H13S16097   5.807   5.030   9.705  1.6487 -0.4061 -0.4633
  146SAPE  C21416098   5.904   4.946   9.878  0.6041 -0.2942 -0.8575
  146SAPE  H14R16099   5.928   4.854   9.823  2.0060  0.4361 -1.5240
  146SAPE  C21516100   5.967   4.961   9.995 -1.1229 -0.4301  0.5562
  146SAPE  H15R16101   6.037   4.885  10.034  1.6519 -0.9708 -4.5294
  146SAPE  C21616102   5.964   5.091  10.075 -0.3040 -0.2549 -0.3197
  146SAPE  H16R16103   5.997   5.067  10.179  0.4002 -0.2706 -0.5436
  146SAPE  H16S16104   5.860   5.129  10.082 -0.1920 -0.2560  2.7302
  146SAPE  C21716105   6.069   5.194  10.022  0.2789  0.7456  0.2028
  146SAPE  H17R16106   6.044   5.222   9.917 -1.5419  0.2825  0.4801
  146SAPE  H17S16107   6.164   5.138  10.011 -0.8230 -1.1302 -0.1326
  146SAPE  C21816108   6.070   5.330  10.086 -0.2327  0.0338  0.3314
  146SAPE  H18R16109   6.059   5.301  10.193 -1.7631 -1.2827 -0.1410
  146SAPE  H18S16110   5.977   5.385  10.061  0.3578  0.3734 -1.2062
  146SAPE  C21916111   6.182   5.426  10.032  0.5776 -0.6839  0.5545
  146SAPE  H19R16112   6.175   5.520  10.090 -0.9742 -0.0332 -0.6256
  146SAPE  H19S16113   6.170   5.452   9.925  0.8917  0.0920  0.7032
  146SAPE  C22016114   6.328   5.382  10.054 -0.3941 -0.9424 -0.2535
  146SAPE  H20R16115   6.345   5.298   9.984 -0.6440 -1.6132  0.4867
  146SAPE  H20S16116   6.345   5.344  10.157 -3.7067 -0.0647  0.7311
  146SAPE  H20T16117   6.404   5.461  10.033  1.6934 -3.0562 -1.1916
  146SAPE   C3316118   5.497   6.238   9.722  1.0361 -0.8730 -0.0803
  146SAPE   H3X16119   5.409   6.174   9.703  0.2572  0.6029 -1.6936
  146SAPE   H3Y16120   5.585   6.189   9.674  0.8096  0.7180 -2.2642
  146SAPE   C3416121   5.461   6.377   9.657  0.2178  0.3674  0.1297
  146SAPE   H4X16122   5.543   6.445   9.688  0.3911  0.2130  0.0109
  146SAPE   H4Y16123   5.370   6.420   9.706 -1.1514  1.7089 -3.2863
  146SAPE   C3516124   5.446   6.374   9.503  0.4108  0.0198  0.2721
  146SAPE   H5X16125   5.420   6.478   9.472 -1.9212 -0.8147 -0.7902
  146SAPE   H5Y16126   5.356   6.318   9.470 -0.0679  1.5496 -1.1932
  146SAPE   C3616127   5.573   6.331   9.423  0.1843 -0.5698 -0.0196
  146SAPE   H6X16128   5.612   6.236   9.465 -0.1611 -0.8175 -0.2558
  146SAPE   H6Y16129   5.645   6.412   9.450  0.0795 -0.9024  1.2800
  146SAPE   C3716130   5.539   6.309   9.272 -0.1252 -0.0819  0.9085
  146SAPE   H7X16131   5.438   6.267   9.254 -0.4360  1.0132 -0.0453
  146SAPE   H7Y16132   5.620   6.241   9.241 -1.3968 -1.4074  0.3615
  146SAPE   C3816133   5.542   6.432   9.178  0.1835 -0.2796  0.4629
  146SAPE   H8X16134   5.630   6.494   9.204  0.5145  0.0635 -1.3733
  146SAPE   H8Y16135   5.445   6.486   9.185  0.0683 -0.4880  0.4783
  146SAPE   C3916136   5.544   6.388   9.032 -0.5684  0.7136  0.8528
  146SAPE   H9X16137   5.455   6.324   9.012 -1.0775  1.6628 -0.0468
  146SAPE   H9Y16138   5.634   6.325   9.014 -0.3844  1.1593  0.1524
  146SAPE  C31016139   5.527   6.510   8.936 -0.1046 -0.9043 -0.5508
  146SAPE  H10X16140   5.455   6.569   8.996 -0.6810 -0.9817 -1.1535
  146SAPE  H10Y16141   5.471   6.480   8.845 -1.0457  0.2929 -0.3771
  146SAPE  C31116142   5.661   6.578   8.885 -0.1849 -0.2238 -0.0837
  146SAPE  H11X16143   5.710   6.501   8.821 -1.7885  0.3777 -2.1337
  146SAPE  H11Y16144   5.719   6.599   8.977  0.4211 -3.9373  0.5586
  146SAPE  C31216145   5.647   6.691   8.790  0.0799 -0.7284  0.3646
  146SAPE  H12X16146   5.630   6.788   8.842  1.5647 -0.2028 -0.0955
  146SAPE  H12Y16147   5.559   6.680   8.724 -0.7026  0.3840  1.1709
  146SAPE  C31316148   5.768   6.705   8.692  0.0663 -0.3686  0.0734
  146SAPE  H13X16149   5.809   6.604   8.669  0.4427  0.1032 -1.4880
  146SAPE  H13Y16150   5.849   6.756   8.748  0.5094  0.2251 -1.0651
  146SAPE  C31416151   5.730   6.785   8.564  0.3214 -0.0258 -0.4088
  146SAPE  H14X16152   5.826   6.823   8.522  0.4260  1.0836  0.7460
  146SAPE  H14Y16153   5.675   6.869   8.613  1.7820 -0.4348  2.0971
  146SAPE  C31516154   5.655   6.706   8.461  0.0191  0.0990  0.2837
  146SAPE  H15X16155   5.546   6.728   8.459  0.3566  1.8079 -1.4654
  146SAPE  H15Y16156   5.674   6.598   8.483  0.8972 -0.3442 -2.2414
  146SAPE  C31616157   5.706   6.728   8.314 -0.1834  0.5335  0.1989
  146SAPE  H16X16158   5.815   6.708   8.315 -0.2072 -0.1520  3.7315
  146SAPE  H16Y16159   5.685   6.831   8.276  1.6949  0.4087 -1.3579
  146SAPE  C31716160   5.645   6.629   8.210 -0.2193 -0.7737 -0.3663
  146SAPE  H17X16161   5.681   6.668   8.113  2.8854  2.4678  1.8608
  146SAPE  H17Y16162   5.534   6.643   8.212 -0.0619  0.6432 -0.7169
  146SAPE  C31816163   5.686   6.482   8.236  0.5795 -0.2371  0.1441
  146SAPE  H18X16164   5.647   6.424   8.149  0.9715 -0.3178  0.0191
  146SAPE  H18Y16165   5.632   6.461   8.330  2.5769 -1.2113  1.1493
  146SAPE  H18Z16166   5.793   6.463   8.260 -0.0284 -1.0157  2.4468
  147SAPE     N16167   5.810   6.580  10.735 -0.0483 -0.2986 -0.2401
  147SAPE   HN116168   5.839   6.664  10.679  1.8793  0.0458  1.1858
  147SAPE   HN216169   5.803   6.499  10.670  1.1898  0.0599 -0.8570
  147SAPE   HN316170   5.719   6.591  10.784  0.4413 -0.3224  0.6874
  147SAPE   C1216171   5.921   6.544  10.820 -0.1030 -0.3029  0.2966
  147SAPE  H12A16172   5.885   6.488  10.909 -1.5363  1.6288  1.0045
  147SAPE  H12B16173   5.962   6.637  10.865  0.4905  1.3277 -3.2804
  147SAPE   C1116174   6.030   6.463  10.744  0.4988 -0.5609 -0.0236
  147SAPE  H11A16175   6.079   6.541  10.681  1.2810 -0.0877  1.1250
  147SAPE  H11B16176   5.988   6.378  10.687  0.7143 -1.3044  0.9175
  147SAPE     P16177   6.092   6.278  10.925  0.1275 -0.0971 -0.2201
  147SAPE   O1316178   6.173   6.271  11.045 -0.7198  0.1097 -0.7013
  147SAPE   O1416179   5.947   6.257  10.936  0.2162 -0.2609  0.0935
  147SAPE   O1216180   6.115   6.415  10.851  0.6573  0.2402 -0.2240
  147SAPE   O1116181   6.143   6.165  10.828  0.4254  0.0512 -0.2370
  147SAPE    C116182   6.274   6.159  10.791 -0.2976 -0.6356  0.5277
  147SAPE    HA16183   6.347   6.195  10.867  0.5288  0.3361 -0.6793
  147SAPE    HB16184   6.299   6.050  10.790  0.3729 -0.5222  2.3295
  147SAPE    C216185   6.306   6.218  10.653  0.1682 -0.5499 -0.6789
  147SAPE    HS16186   6.290   6.326  10.676  0.4916 -0.6939  0.2833
  147SAPE   O2116187   6.203   6.169  10.562 -0.1000 -0.1081 -0.1111
  147SAPE   C2116188   6.177   6.258  10.459 -0.2087  0.9639 -0.2019
  147SAPE   O2216189   6.228   6.367  10.456  0.0259 -0.1627 -0.4210
  147SAPE   C2216190   6.090   6.186  10.357 -0.7628 -0.3501 -0.0723
  147SAPE   H2R16191   6.068   6.079  10.377  4.1462 -1.2949  1.7681
  147SAPE   H2S16192   5.993   6.238  10.345  0.5504  1.6681 -3.9438
  147SAPE    C316193   6.450   6.182  10.592  0.0233 -0.0869 -0.9221
  147SAPE    HX16194   6.519   6.235  10.662 -0.7091 -1.0531  0.5928
  147SAPE    HY16195   6.453   6.226  10.490 -0.5931 -0.0784 -0.9428
  147SAPE   O3116196   6.494   6.039  10.593 -0.1614 -0.0204 -0.1045
  147SAPE   C3116197   6.463   5.981  10.474  0.1797 -0.0257 -0.2567
  147SAPE   O3216198   6.391   6.027  10.392  0.5429 -0.2846  0.1050
  147SAPE   C3216199   6.514   5.840  10.470  0.2169 -0.5074  0.8793
  147SAPE   H2X16200   6.437   5.772  10.515  0.7641 -0.7161  1.5218
  147SAPE   H2Y16201   6.594   5.833  10.547  0.1667 -0.0701  0.9707
  147SAPE   C2316202   6.165   6.198  10.219 -0.1091  0.4442  0.6305
  147SAPE   H3R16203   6.274   6.179  10.231 -0.0604 -1.6102 -2.0507
  147SAPE   H3S16204   6.141   6.301  10.185  0.1241  0.0637 -0.7507
  147SAPE   C2416205   6.122   6.094  10.110 -0.2105 -0.3581 -0.2627
  147SAPE   H4R16206   6.155   6.125  10.009  0.9238  0.0562  0.2244
  147SAPE   H4S16207   6.011   6.091  10.111 -0.2581  1.0258  0.3704
  147SAPE   C2516208   6.182   5.957  10.133  0.1058  0.3973 -0.3982
  147SAPE   H5R16209   6.186   5.933  10.241  0.3578 -0.6008 -0.6148
  147SAPE   C2616210   6.225   5.868  10.047  0.2384 -1.0671  0.9934
  147SAPE   H6R16211   6.262   5.770  10.082  2.6483 -0.6301 -0.1185
  147SAPE   C2716212   6.218   5.879   9.897  0.4012  0.9757  0.0742
  147SAPE   H7R16213   6.316   5.921   9.864  0.2842  0.0606 -1.5709
  147SAPE   H7S16214   6.143   5.946   9.850 -0.3958  0.8404  1.1186
  147SAPE   C2816215   6.204   5.741   9.832  0.6164 -0.5873  0.2580
  147SAPE   H8R16216   6.108   5.692   9.852 -0.4264  0.9552 -0.7147
  147SAPE   C2916217   6.295   5.684   9.754 -0.0506 -0.0441 -0.3033
  147SAPE   H9R16218   6.283   5.575   9.759  1.8364 -0.2633  3.1776
  147SAPE  C21016219   6.439   5.732   9.715 -0.1398  0.2970 -0.0859
  147SAPE  H10R16220   6.498   5.761   9.805 -1.4781  1.1311  0.5645
  147SAPE  H10S16221   6.431   5.830   9.663 -4.4774  0.6493  0.8422
  147SAPE  C21116222   6.504   5.620   9.637  0.4689 -0.6379  0.7669
  147SAPE  H11R16223   6.554   5.548   9.704 -1.4830 -1.6755  1.1930
  147SAPE  C21216224   6.490   5.603   9.504 -0.5710 -0.2869  0.2475
  147SAPE  H12R16225   6.516   5.511   9.450  0.7260 -0.7963  1.6429
  147SAPE  C21316226   6.425   5.702   9.413  0.1944  0.3365 -0.2716
  147SAPE  H13R16227   6.344   5.759   9.465  2.6244  1.3489  2.7284
  147SAPE  H13S16228   6.381   5.665   9.318 -1.1011  1.1957 -0.0243
  147SAPE  C21416229   6.532   5.804   9.379 -0.1096 -0.0757  0.3831
  147SAPE  H14R16230   6.639   5.784   9.394  0.4170 -3.0532 -4.7921
  147SAPE  C21516231   6.513   5.931   9.334 -1.3342  0.1593 -0.7013
  147SAPE  H15R16232   6.600   5.998   9.332 -2.3665  1.5448 -1.3464
  147SAPE  C21616233   6.383   5.995   9.292  0.0531 -0.2388  0.2529
  147SAPE  H16R16234   6.322   5.908   9.259  0.6624 -0.1038 -1.3044
  147SAPE  H16S16235   6.402   6.064   9.207 -1.5938 -0.3651 -0.2543
  147SAPE  C21716236   6.341   6.075   9.421  0.6045 -0.6825  0.3505
  147SAPE  H17R16237   6.293   6.015   9.501  0.9693 -0.6392  0.6043
  147SAPE  H17S16238   6.265   6.145   9.379 -0.4353 -2.9425 -1.8070
  147SAPE  C21816239   6.439   6.162   9.501 -0.4436  0.2266  0.6703
  147SAPE  H18R16240   6.493   6.222   9.425  0.0188 -0.8575  0.1341
  147SAPE  H18S16241   6.509   6.100   9.561 -0.1362  0.2122  0.2963
  147SAPE  C21916242   6.382   6.259   9.602 -0.4578  0.5790 -0.9102
  147SAPE  H19R16243   6.293   6.310   9.558 -1.9701 -0.1466  1.1110
  147SAPE  H19S16244   6.461   6.332   9.633 -0.5380 -0.1384  1.1879
  147SAPE  C22016245   6.330   6.194   9.733 -0.1384 -0.2057  0.7738
  147SAPE  H20R16246   6.418   6.171   9.797  2.9230  1.1783 -2.5833
  147SAPE  H20S16247   6.251   6.116   9.733  0.0006 -0.3535  0.0811
  147SAPE  H20T16248   6.279   6.276   9.788  0.4698  0.4816  0.3165
  147SAPE   C3316249   6.557   5.806  10.324  0.1511  0.4322  0.5149
  147SAPE   H3X16250   6.654   5.855  10.300  0.0996  0.9294  1.2936
  147SAPE   H3Y16251   6.482   5.830  10.245  1.7430  1.2450 -0.8052
  147SAPE   C3416252   6.589   5.652  10.321  0.7268 -0.5755  0.5086
  147SAPE   H4X16253   6.509   5.583  10.354 -0.1715  0.3145  0.2370
  147SAPE   H4Y16254   6.680   5.622  10.378  2.0050 -1.7956 -1.9898
  147SAPE   C3516255   6.633   5.605  10.176 -0.0830 -0.7500 -0.5181
  147SAPE   H5X16256   6.720   5.648  10.122  1.2661 -3.5965 -0.7662
  147SAPE   H5Y16257   6.547   5.622  10.108 -0.2253  0.8388 -0.0051
  147SAPE   C3616258   6.669   5.460  10.163 -0.0636 -0.1208 -0.0335
  147SAPE   H6X16259   6.585   5.396  10.199 -0.4370  1.2845  1.7275
  147SAPE   H6Y16260   6.750   5.449  10.238 -1.7998 -1.0821  1.8000
  147SAPE   C3716261   6.717   5.413  10.033 -0.7756  0.4868  0.2951
  147SAPE   H7X16262   6.817   5.460  10.024 -1.1546  1.4361  0.9218
  147SAPE   H7Y16263   6.652   5.453   9.953 -0.0740 -1.4047 -1.3043
  147SAPE   C3816264   6.725   5.256  10.012 -0.6249 -0.0284 -0.4873
  147SAPE   H8X16265   6.622   5.217  10.025 -0.8326  0.1394 -1.5228
  147SAPE   H8Y16266   6.793   5.222  10.093  0.0816  0.5588 -0.8227
  147SAPE   C3916267   6.772   5.203   9.877  0.2459 -1.2012 -0.0439
  147SAPE   H9X16268   6.758   5.093   9.870 -1.3953 -0.9880 -0.3673
  147SAPE   H9Y16269   6.879   5.229   9.865  0.1919 -0.3828  1.0369
  147SAPE  C31016270   6.693   5.264   9.762  0.3036 -0.5818 -0.0292
  147SAPE  H10X16271   6.707   5.374   9.757  1.2803 -0.7388 -1.3212
  147SAPE  H10Y16272   6.585   5.244   9.777 -0.5514  2.4590 -1.2930
  147SAPE  C31116273   6.734   5.203   9.625  0.2313 -0.1624  0.0309
  147SAPE  H11X16274   6.730   5.094   9.644  2.3130 -0.1442  0.8100
  147SAPE  H11Y16275   6.839   5.235   9.608 -0.1064 -0.4878 -3.4562
  147SAPE  C31216276   6.631   5.251   9.510  0.3995 -0.0013  0.0931
  147SAPE  H12X16277   6.639   5.361   9.504  0.0872 -0.0332 -1.2348
  147SAPE  H12Y16278   6.529   5.224   9.544  0.5649  0.6941  1.1996
  147SAPE  C31316279   6.630   5.173   9.375  0.5198  0.2988  0.0117
  147SAPE  H13X16280   6.601   5.069   9.398  0.4907  0.5133  0.9935
  147SAPE  H13Y16281   6.732   5.164   9.332  0.3785 -0.5814 -0.1467
  147SAPE  C31416282   6.533   5.223   9.264  0.0055 -0.1239  1.1829
  147SAPE  H14X16283   6.434   5.242   9.311 -0.7941  0.0199 -0.4787
  147SAPE  H14Y16284   6.524   5.136   9.195  2.0421  0.2970  0.3162
  147SAPE  C31516285   6.582   5.346   9.178  1.0627  0.4904  1.4190
  147SAPE  H15X16286   6.672   5.312   9.122 -0.1588 -1.1289  0.3179
  147SAPE  H15Y16287   6.615   5.436   9.233  2.1256  2.3948 -2.0564
  147SAPE  C31616288   6.471   5.402   9.084 -0.1581 -0.0580  0.2659
  147SAPE  H16X16289   6.405   5.467   9.146 -0.2579 -0.4887  0.6141
  147SAPE  H16Y16290   6.411   5.326   9.031  0.8059 -0.2098 -0.6369
  147SAPE  C31716291   6.526   5.497   8.981 -0.3446  0.1700 -0.2556
  147SAPE  H17X16292   6.610   5.464   8.917  0.3823  2.9501 -0.8586
  147SAPE  H17Y16293   6.567   5.585   9.036 -0.2976  0.3763 -0.6186
  147SAPE  C31816294   6.416   5.557   8.892 -0.2547 -0.2226 -0.2167
  147SAPE  H18X16295   6.335   5.599   8.955  0.5214  0.0132  0.6561
  147SAPE  H18Y16296   6.379   5.482   8.820  0.6282 -0.8822  0.0053
  147SAPE  H18Z16297   6.458   5.639   8.830 -0.5396 -0.0614 -0.1984
  148SAPE     N16298   5.982   2.415  10.705  0.4067 -0.1631 -0.7646
  148SAPE   HN116299   6.084   2.399  10.717  0.8233  1.9007 -1.1094
  148SAPE   HN216300   5.970   2.514  10.735 -0.6675 -0.2806 -0.7677
  148SAPE   HN316301   5.942   2.353  10.779  1.5348  1.4163  1.3042
  148SAPE   C1216302   5.917   2.387  10.572 -0.2838 -0.4218 -0.1707
  148SAPE  H12A16303   5.955   2.464  10.503 -0.9629  0.2228  0.1564
  148SAPE  H12B16304   5.809   2.411  10.578 -0.0882  0.7010 -0.8880
  148SAPE   C1116305   5.937   2.246  10.525  0.7073  0.0895 -0.0210
  148SAPE  H11A16306   6.044   2.227  10.507  1.1474  2.1362  0.1670
  148SAPE  H11B16307   5.878   2.224  10.433  0.4214  0.4089  0.0843
  148SAPE     P16308   5.754   2.081  10.634 -0.7152  0.1895 -0.2352
  148SAPE   O1316309   5.754   1.987  10.749  0.3119  0.1785  0.4388
  148SAPE   O1416310   5.653   2.190  10.637 -0.1129 -0.4412 -0.0811
  148SAPE   O1216311   5.894   2.145  10.621  0.0443  0.4098  0.1325
  148SAPE   O1116312   5.739   2.003  10.492  0.0095 -0.1266 -0.2347
  148SAPE    C116313   5.832   1.889  10.468  0.1498  0.1101  0.1174
  148SAPE    HA16314   5.931   1.934  10.445  0.3789  0.7250  2.0872
  148SAPE    HB16315   5.834   1.817  10.553  3.3525  0.7494  0.6933
  148SAPE    C216316   5.783   1.807  10.347  0.6725 -0.1947 -0.1040
  148SAPE    HS16317   5.863   1.739  10.310 -0.8812 -0.7217 -2.7355
  148SAPE   O2116318   5.727   1.895  10.243 -0.1125  0.0070  0.3935
  148SAPE   C2116319   5.819   1.948  10.167 -0.2225  0.0147 -0.1877
  148SAPE   O2216320   5.935   1.914  10.168 -0.4718  0.1958 -0.4801
  148SAPE   C2216321   5.761   2.059  10.079  0.4863  0.7397 -0.2001
  148SAPE   H2R16322   5.738   2.141  10.151  0.1208 -0.0348  0.5900
  148SAPE   H2S16323   5.835   2.100  10.007 -0.4007  0.5451 -1.2358
  148SAPE    C316324   5.673   1.709  10.399  0.0638 -0.2175 -0.4930
  148SAPE    HX16325   5.589   1.771  10.438  0.9212 -0.1556  1.3901
  148SAPE    HY16326   5.730   1.655  10.477  2.0964  1.0267 -1.0226
  148SAPE   O3116327   5.638   1.630  10.287 -0.1872  0.3952  0.0351
  148SAPE   C3116328   5.711   1.540  10.230 -0.2607  0.2968  0.1057
  148SAPE   O3216329   5.827   1.508  10.259 -0.3152  0.1622 -0.2346
  148SAPE   C3216330   5.643   1.476  10.110  0.4180 -0.5785 -0.5013
  148SAPE   H2X16331   5.609   1.558  10.043 -1.3566  0.6318  1.7190
  148SAPE   H2Y16332   5.554   1.421  10.146  0.4201 -1.9089 -2.4372
  148SAPE   C2316333   5.628   2.020  10.009  0.5581  0.1535  0.0829
  148SAPE   H3R16334   5.568   2.110   9.985 -0.2607 -0.1264  1.0324
  148SAPE   H3S16335   5.578   1.975  10.097  1.5545 -0.2594  0.4492
  148SAPE   C2416336   5.629   1.931   9.888  0.0042  0.3145  0.8867
  148SAPE   H4R16337   5.676   1.988   9.805  1.7972  0.5987  2.0463
  148SAPE   H4S16338   5.525   1.919   9.851  0.5158  1.0776 -0.8913
  148SAPE   C2516339   5.687   1.801   9.926 -0.5563 -0.6211 -0.0247
  148SAPE   H5R16340   5.642   1.752  10.014  1.8081 -1.2540  0.9143
  148SAPE   C2616341   5.807   1.749   9.882 -0.2468  0.6051 -0.8066
  148SAPE   H6R16342   5.847   1.666   9.942  0.4585  1.8013  0.4334
  148SAPE   C2716343   5.902   1.800   9.782 -0.6086  0.4025 -0.0025
  148SAPE   H7R16344   5.855   1.887   9.731 -1.8346 -0.7791 -0.9614
  148SAPE   H7S16345   5.917   1.731   9.697  0.4480  2.0527 -1.2110
  148SAPE   C2816346   6.028   1.858   9.836 -0.5246  0.8223 -0.0343
  148SAPE   H8R16347   6.027   1.872   9.945  0.2780 -2.0853  0.4342
  148SAPE   C2916348   6.137   1.901   9.772  0.1860  0.3715  0.5168
  148SAPE   H9R16349   6.216   1.942   9.836 -0.2555 -0.1307  1.3893
  148SAPE  C21016350   6.149   1.909   9.619  0.0199  0.7438 -0.6360
  148SAPE  H10R16351   6.091   1.998   9.584  0.0054  0.5147 -1.2079
  148SAPE  H10S16352   6.107   1.813   9.582 -1.0464  1.1181 -0.4348
  148SAPE  C21116353   6.297   1.926   9.582  0.4244  0.1511 -0.2612
  148SAPE  H11R16354   6.374   1.917   9.660  2.1283  1.2740 -1.7164
  148SAPE  C21216355   6.343   1.960   9.463  0.2507 -0.4066  0.9457
  148SAPE  H12R16356   6.449   1.988   9.452  0.3764 -0.6413  1.5135
  148SAPE  C21316357   6.254   1.983   9.343 -0.2939 -1.1205 -0.8745
  148SAPE  H13R16358   6.222   2.090   9.346  3.0180 -0.0181 -0.5867
  148SAPE  H13S16359   6.157   1.930   9.339 -3.3188  3.8452 -2.1722
  148SAPE  C21416360   6.336   1.968   9.217 -0.0530  0.0479 -0.2987
  148SAPE  H14R16361   6.430   1.912   9.224  0.4551  0.9532  0.1697
  148SAPE  C21516362   6.302   2.019   9.092  0.4679  0.4626  0.8746
  148SAPE  H15R16363   6.365   1.981   9.010 -1.0789 -1.4879  0.4832
  148SAPE  C21616364   6.187   2.109   9.058 -0.2534 -0.2706  0.1272
  148SAPE  H16R16365   6.154   2.155   9.154  0.6631  0.8558 -0.0877
  148SAPE  H16S16366   6.100   2.052   9.018  0.0169  0.4593 -1.5862
  148SAPE  C21716367   6.220   2.230   8.964  0.2937 -0.5935 -0.4335
  148SAPE  H17R16368   6.323   2.268   8.980  0.3615 -1.1035  0.3918
  148SAPE  H17S16369   6.140   2.301   8.995  1.0783  0.9431 -1.7726
  148SAPE  C21816370   6.204   2.195   8.819 -0.0360 -0.2993  0.3632
  148SAPE  H18R16371   6.099   2.161   8.803 -0.4704  1.4592 -0.8449
  148SAPE  H18S16372   6.282   2.122   8.789  1.1262  0.2302  1.9564
  148SAPE  C21916373   6.239   2.319   8.736  0.4245 -0.2075 -0.2609
  148SAPE  H19R16374   6.348   2.329   8.755  1.0496 -2.8964 -1.9076
  148SAPE  H19S16375   6.181   2.397   8.791 -0.4715 -1.3857  0.5192
  148SAPE  C22016376   6.204   2.304   8.588  0.2088 -0.3735  0.2425
  148SAPE  H20R16377   6.264   2.216   8.558  0.9880 -0.2070  1.2624
  148SAPE  H20S16378   6.234   2.391   8.526  0.3277  1.1408  2.3183
  148SAPE  H20T16379   6.095   2.283   8.578  0.1732 -0.5281  0.9386
  148SAPE   C3316380   5.747   1.384  10.033 -0.1910 -0.9891 -1.4800
  148SAPE   H3X16381   5.774   1.303  10.104  0.9169  0.4897 -0.1255
  148SAPE   H3Y16382   5.839   1.443  10.014 -1.4914  1.9944  0.7170
  148SAPE   C3416383   5.700   1.323   9.901 -0.1605 -0.5280  0.3269
  148SAPE   H4X16384   5.609   1.263   9.919 -0.3395 -0.6355 -0.8648
  148SAPE   H4Y16385   5.779   1.258   9.857 -0.9958 -1.0245 -0.4848
  148SAPE   C3516386   5.671   1.423   9.794  0.1588  0.1600  0.7883
  148SAPE   H5X16387   5.760   1.488   9.777 -0.2128  0.4880  0.0271
  148SAPE   H5Y16388   5.593   1.493   9.830  0.4335 -0.3474  2.4595
  148SAPE   C3616389   5.618   1.348   9.669 -0.4055  0.0337  0.1768
  148SAPE   H6X16390   5.525   1.297   9.701 -0.9496  2.1504  2.2313
  148SAPE   H6Y16391   5.692   1.274   9.631  1.5200  2.6734 -1.5938
  148SAPE   C3716392   5.585   1.441   9.548  0.0064 -0.6646  0.1044
  148SAPE   H7X16393   5.677   1.497   9.519 -0.4033 -0.6118 -1.1100
  148SAPE   H7Y16394   5.500   1.506   9.581  0.8704 -0.3581  1.8927
  148SAPE   C3816395   5.532   1.361   9.423  0.0608  0.0785 -0.7926
  148SAPE   H8X16396   5.442   1.301   9.451  0.0672 -0.1262 -1.2028
  148SAPE   H8Y16397   5.617   1.296   9.396 -1.4572 -2.0300 -0.7141
  148SAPE   C3916398   5.490   1.450   9.304  1.0945 -0.4882 -0.5681
  148SAPE   H9X16399   5.583   1.508   9.284  1.3677 -1.0958 -1.1116
  148SAPE   H9Y16400   5.408   1.514   9.343 -0.7862 -3.1275  0.0702
  148SAPE  C31016401   5.449   1.386   9.167  0.2586  0.1442 -0.5136
  148SAPE  H10X16402   5.438   1.476   9.102  0.9819 -0.4954 -1.5628
  148SAPE  H10Y16403   5.356   1.326   9.179  1.1042 -1.3482 -1.1103
  148SAPE  C31116404   5.555   1.295   9.109 -0.1160 -0.5612  0.3127
  148SAPE  H11X16405   5.567   1.218   9.187 -1.2222  0.9575  2.0611
  148SAPE  H11Y16406   5.651   1.343   9.080 -0.8723  0.5716 -0.3985
  148SAPE  C31216407   5.508   1.213   8.991 -0.2894 -0.5973  0.1049
  148SAPE  H12X16408   5.405   1.183   9.021 -0.3658  0.5068  1.0257
  148SAPE  H12Y16409   5.570   1.121   8.985  3.3377  1.5810  1.0433
  148SAPE  C31316410   5.502   1.305   8.872  0.7390  0.5442 -0.0539
  148SAPE  H13X16411   5.604   1.348   8.862  1.0665 -0.4013 -0.9481
  148SAPE  H13Y16412   5.430   1.387   8.893 -2.8096 -2.6226  1.1700
  148SAPE  C31416413   5.456   1.232   8.742 -0.6028 -0.4291 -0.1772
  148SAPE  H14X16414   5.426   1.307   8.666 -1.6010 -0.3596  0.2564
  148SAPE  H14Y16415   5.365   1.175   8.771 -1.4512  0.5440 -0.8427
  148SAPE  C31516416   5.557   1.132   8.691  0.2003 -0.2462  0.0943
  148SAPE  H15X16417   5.568   1.048   8.764 -3.2990  0.9597  2.2902
  148SAPE  H15Y16418   5.652   1.186   8.672  0.6035 -1.0744 -0.2991
  148SAPE  C31616419   5.505   1.076   8.560 -0.0208  0.2845 -0.0111
  148SAPE  H16X16420   5.471   1.160   8.495 -1.1536 -0.6849 -0.7190
  148SAPE  H16Y16421   5.414   1.014   8.575 -0.0477  0.3007 -0.1031
  148SAPE  C31716422   5.608   0.990   8.481 -0.5917  0.2094  0.4786
  148SAPE  H17X16423   5.652   0.913   8.547 -0.8677 -0.5310 -0.1861
  148SAPE  H17Y16424   5.688   1.059   8.448  0.6160 -0.2851  2.2109
  148SAPE  C31816425   5.544   0.923   8.349  1.0005  0.4403 -0.1027
  148SAPE  H18X16426   5.496   1.004   8.291  0.6509  0.7390  0.5920
  148SAPE  H18Y16427   5.471   0.844   8.376  1.6564 -0.8947 -2.0581
  148SAPE  H18Z16428   5.631   0.885   8.292  0.3025 -0.5675 -0.5212
  149SAPE     N16429   3.827   1.157  10.774  0.3185  0.6128  0.2048
  149SAPE   HN116430   3.725   1.141  10.786  0.3085  1.1131  0.8657
  149SAPE   HN216431   3.865   1.067  10.736 -2.0599 -0.6543  0.6410
  149SAPE   HN316432   3.869   1.176  10.867  1.1457 -0.9555  0.1842
  149SAPE   C1216433   3.852   1.264  10.678  0.7349 -0.0346 -0.4367
  149SAPE  H12A16434   3.789   1.254  10.587  0.4007 -0.3159 -0.1786
  149SAPE  H12B16435   3.959   1.260  10.646  1.7308 -2.2167  2.6335
  149SAPE   C1116436   3.823   1.395  10.747 -0.7814 -0.5416 -0.1761
  149SAPE  H11A16437   3.724   1.381  10.795 -1.4232 -2.4227 -1.8969
  149SAPE  H11B16438   3.820   1.474  10.669  4.4905  0.0198 -0.1347
  149SAPE     P16439   4.025   1.552  10.849  0.3597  0.7150 -0.0401
  149SAPE   O1316440   3.969   1.685  10.832 -0.7894 -0.2097  0.1890
  149SAPE   O1416441   4.117   1.534  10.966  0.0064  0.2754  0.3742
  149SAPE   O1216442   3.911   1.440  10.855  0.1147  0.6512 -0.2262
  149SAPE   O1116443   4.093   1.514  10.710 -0.3298  0.7400  0.3679
  149SAPE    C116444   4.119   1.610  10.607 -0.2784 -0.3255  0.3720
  149SAPE    HA16445   4.120   1.714  10.646 -1.4413  0.6855 -2.0680
  149SAPE    HB16446   4.213   1.588  10.554 -0.6072  0.4945 -0.5896
  149SAPE    C216447   4.008   1.605  10.495  0.0963 -0.4966  0.3305
  149SAPE    HS16448   3.914   1.639  10.544 -0.4031 -0.6714 -0.4941
  149SAPE   O2116449   3.988   1.467  10.445  0.0917 -0.0795 -0.0800
  149SAPE   C2116450   4.076   1.424  10.363 -0.9574  0.1655  0.5507
  149SAPE   O2216451   4.189   1.471  10.347  0.6891 -0.4772  0.4457
  149SAPE   C2216452   4.026   1.289  10.302  0.2015 -0.2028 -0.2357
  149SAPE   H2R16453   3.926   1.273  10.348 -0.5759  3.8363 -0.2065
  149SAPE   H2S16454   4.013   1.287  10.192 -1.9988  1.4302 -0.0701
  149SAPE    C316455   4.041   1.716  10.391  0.8201  0.5192  0.0006
  149SAPE    HX16456   4.150   1.702  10.374  0.9771  0.0903  1.2838
  149SAPE    HY16457   4.021   1.813  10.442 -1.5747  1.0323 -1.7534
  149SAPE   O3116458   3.967   1.684  10.269 -0.1117  0.4502 -0.3912
  149SAPE   C3116459   3.846   1.728  10.269  0.4390  0.3544  0.3010
  149SAPE   O3216460   3.796   1.805  10.346  0.0983 -0.0992 -0.0148
  149SAPE   C3216461   3.779   1.656  10.153  0.0789  0.6080 -0.8008
  149SAPE   H2X16462   3.696   1.725  10.128  0.7785  0.9317 -2.4146
  149SAPE   H2Y16463   3.744   1.555  10.182  0.6573  0.1230 -1.7369
  149SAPE   C2316464   4.132   1.175  10.335  0.0970 -0.1383 -0.5654
  149SAPE   H3R16465   4.147   1.166  10.444 -2.8606 -1.8293 -0.1746
  149SAPE   H3S16466   4.226   1.201  10.282  0.8043  0.7285  1.0543
  149SAPE   C2416467   4.084   1.040  10.284 -0.1223 -0.8318  0.1518
  149SAPE   H4R16468   4.070   1.046  10.174  0.8616  1.1839  0.0864
  149SAPE   H4S16469   3.986   1.019  10.331 -0.5646  3.0337  1.2629
  149SAPE   C2516470   4.197   0.943  10.321  0.2834  0.0146  0.3891
  149SAPE   H5R16471   4.238   0.950  10.423 -0.0913  0.4424  0.5156
  149SAPE   C2616472   4.248   0.841  10.242  0.1995 -0.5649  1.0487
  149SAPE   H6R16473   4.325   0.776  10.286  0.3904 -1.5692 -0.6886
  149SAPE   C2716474   4.212   0.809  10.103 -0.2315 -0.0047  0.3738
  149SAPE   H7R16475   4.133   0.875  10.060  1.6512  2.5489  0.5956
  149SAPE   H7S16476   4.179   0.703  10.100  0.5320 -0.2396 -0.5555
  149SAPE   C2816477   4.323   0.815  10.000 -0.3228  0.3240 -0.6805
  149SAPE   H8R16478   4.428   0.811  10.032 -0.0417 -1.7014 -1.6980
  149SAPE   C2916479   4.307   0.821   9.864  0.4781 -0.0823 -0.5981
  149SAPE   H9R16480   4.395   0.834   9.801 -0.8352  0.9700 -2.3089
  149SAPE  C21016481   4.177   0.826   9.786 -0.3392  0.0059 -0.1504
  149SAPE  H10R16482   4.164   0.925   9.737 -0.7399  1.9309  3.5044
  149SAPE  H10S16483   4.093   0.807   9.856  0.8221  0.3554  1.3981
  149SAPE  C21116484   4.165   0.716   9.686  0.6784  0.2879  0.3784
  149SAPE  H11R16485   4.153   0.621   9.739 -0.9075  1.1040  1.5784
  149SAPE  C21216486   4.154   0.717   9.550 -0.2808 -0.5150 -0.1952
  149SAPE  H12R16487   4.131   0.624   9.496  3.5274 -2.1472  0.7062
  149SAPE  C21316488   4.148   0.844   9.459 -0.1869  0.3214 -0.2694
  149SAPE  H13R16489   4.246   0.845   9.407 -0.2592 -0.2023 -0.4228
  149SAPE  H13S16490   4.146   0.942   9.510 -1.0763 -0.5504  1.4696
  149SAPE  C21416491   4.023   0.826   9.375 -0.1693 -0.0085 -0.3403
  149SAPE  H14R16492   3.931   0.841   9.433  0.1227 -1.3996  0.5310
  149SAPE  C21516493   4.013   0.789   9.242  0.2717  0.0985 -0.0664
  149SAPE  H15R16494   3.914   0.784   9.194  0.0580 -0.7161  0.4471
  149SAPE  C21616495   4.131   0.766   9.157  0.6514 -0.1423  0.0146
  149SAPE  H16R16496   4.227   0.811   9.190  1.3074 -1.9386  0.6390
  149SAPE  H16S16497   4.097   0.803   9.057  0.4900 -1.7244 -0.5432
  149SAPE  C21716498   4.166   0.617   9.154  0.2910  0.0671  0.0483
  149SAPE  H17R16499   4.182   0.582   9.258  0.1638  0.2250  0.1204
  149SAPE  H17S16500   4.261   0.603   9.099  0.4216 -0.4044  0.3904
  149SAPE  C21816501   4.052   0.537   9.079  0.2498  0.1749  0.1739
  149SAPE  H18R16502   4.052   0.559   8.970 -1.5420  2.1635  0.5143
  149SAPE  H18S16503   3.956   0.586   9.104  0.9757  1.9794 -0.4068
  149SAPE  C21916504   4.042   0.387   9.110  0.4667  0.5051 -0.0121
  149SAPE  H19R16505   4.140   0.335   9.114  0.0724 -0.2915 -0.4378
  149SAPE  H19S16506   3.995   0.329   9.028  1.7871  0.4847 -0.7783
  149SAPE  C22016507   3.968   0.348   9.246  0.2583 -0.4659  0.1432
  149SAPE  H20R16508   4.001   0.410   9.332  0.5296  1.2265 -1.1316
  149SAPE  H20S16509   3.989   0.240   9.260 -0.6855 -0.7634 -0.6369
  149SAPE  H20T16510   3.861   0.359   9.219  0.7151 -0.8829 -2.0766
  149SAPE   C3316511   3.871   1.646  10.018  0.0458  1.3302 -0.2531
  149SAPE   H3X16512   3.927   1.550  10.007 -0.8375  0.6571  0.9271
  149SAPE   H3Y16513   3.945   1.729  10.023 -0.2410  1.5398  0.7513
  149SAPE   C3416514   3.789   1.664   9.892 -0.5755 -0.1353  0.1284
  149SAPE   H4X16515   3.860   1.690   9.810 -1.1421 -0.2785 -0.4119
  149SAPE   H4Y16516   3.733   1.759   9.901 -0.3794 -0.1207  1.3137
  149SAPE   C3516517   3.699   1.539   9.861 -0.5581  0.4081 -0.0036
  149SAPE   H5X16518   3.667   1.504   9.961  0.1305 -0.0407  0.0630
  149SAPE   H5Y16519   3.764   1.459   9.820  0.5210  1.0669  0.3934
  149SAPE   C3616520   3.588   1.555   9.759  0.1544 -0.3382 -0.7012
  149SAPE   H6X16521   3.519   1.636   9.791 -2.0572 -2.1508 -0.6707
  149SAPE   H6Y16522   3.516   1.470   9.756 -1.4968  0.7838  2.4319
  149SAPE   C3716523   3.648   1.564   9.622  0.9905  0.2049  0.5445
  149SAPE   H7X16524   3.740   1.503   9.623  1.2564  0.6048  1.3595
  149SAPE   H7Y16525   3.676   1.670   9.604 -0.9519  0.6864  0.0978
  149SAPE   C3816526   3.558   1.528   9.500 -0.7537 -0.9628 -0.1584
  149SAPE   H8X16527   3.476   1.602   9.487 -1.6199 -1.8392  0.2111
  149SAPE   H8Y16528   3.502   1.433   9.514 -1.2048 -0.9480 -1.6449
  149SAPE   C3916529   3.643   1.521   9.363 -0.1649 -0.4111  0.3658
  149SAPE   H9X16530   3.715   1.436   9.360  1.5872  0.9936  0.6328
  149SAPE   H9Y16531   3.704   1.614   9.369  0.2770 -0.7661  2.1625
  149SAPE  C31016532   3.559   1.532   9.236  0.5831 -0.7850 -0.2250
  149SAPE  H10X16533   3.495   1.622   9.227  0.2362 -1.0242 -0.1814
  149SAPE  H10Y16534   3.486   1.450   9.220 -1.7621  1.2271 -0.5160
  149SAPE  C31116535   3.634   1.555   9.109 -0.0767  0.0399  0.6379
  149SAPE  H11X16536   3.712   1.477   9.115  0.1655  0.3550  1.8388
  149SAPE  H11Y16537   3.678   1.657   9.110 -1.0281  0.4568  0.9918
  149SAPE  C31216538   3.549   1.537   8.984  0.0438 -0.2884  0.2903
  149SAPE  H12X16539   3.486   1.627   8.972 -0.9722 -1.0001  0.1191
  149SAPE  H12Y16540   3.482   1.448   8.986 -1.2880  0.6999  1.1968
  149SAPE  C31316541   3.634   1.518   8.851 -0.2920  0.1091  0.2246
  149SAPE  H13X16542   3.706   1.434   8.862 -1.1210 -0.6266  0.0798
  149SAPE  H13Y16543   3.698   1.609   8.846  0.4742 -0.4714 -1.4923
  149SAPE  C31416544   3.559   1.497   8.721  0.1428  0.0036  0.7080
  149SAPE  H14X16545   3.466   1.559   8.724  0.3999  0.6060 -1.6408
  149SAPE  H14Y16546   3.516   1.395   8.733 -4.4123  1.8459  2.5318
  149SAPE  C31516547   3.632   1.524   8.587  0.5870  0.0439 -0.5385
  149SAPE  H15X16548   3.665   1.629   8.600  1.3109 -0.4253  2.0738
  149SAPE  H15Y16549   3.566   1.509   8.499  1.8423 -0.7876 -1.3639
  149SAPE  C31616550   3.748   1.425   8.558 -0.4816 -0.2248  0.3882
  149SAPE  H16X16551   3.710   1.322   8.548  1.5960 -0.9028 -1.3040
  149SAPE  H16Y16552   3.818   1.421   8.644  0.8578 -1.8539 -0.7114
  149SAPE  C31716553   3.834   1.455   8.436  0.0455 -0.3012 -0.5516
  149SAPE  H17X16554   3.881   1.553   8.459  0.2730 -0.4388 -0.4265
  149SAPE  H17Y16555   3.776   1.464   8.342 -1.0424 -2.4870 -0.1468
  149SAPE  C31816556   3.954   1.367   8.411  0.1188  0.4437  0.5611
  149SAPE  H18X16557   3.962   1.297   8.497 -2.2135 -1.0801 -0.3334
  149SAPE  H18Y16558   4.047   1.427   8.416  0.1364  0.4464  0.1893
  149SAPE  H18Z16559   3.951   1.314   8.314 -1.3367 -0.6871  1.1825
  150SAPE     N16560   3.270   2.520  10.374  0.3174  0.1234 -0.1549
  150SAPE   HN116561   3.310   2.492  10.282  0.8866 -0.1742  0.1771
  150SAPE   HN216562   3.215   2.445  10.421  0.7177  0.0253  0.1645
  150SAPE   HN316563   3.208   2.604  10.365 -0.0938  0.2188  2.5434
  150SAPE   C1216564   3.385   2.552  10.473 -0.1549 -0.8064  0.8499
  150SAPE  H12A16565   3.453   2.615  10.412 -1.7055  2.0393  1.8898
  150SAPE  H12B16566   3.436   2.459  10.510  0.8306 -1.1404 -1.2221
  150SAPE   C1116567   3.344   2.636  10.602  0.4067 -0.4180 -0.0488
  150SAPE  H11A16568   3.431   2.696  10.636 -1.2127  2.1032 -0.0582
  150SAPE  H11B16569   3.313   2.568  10.683 -0.9969 -2.3372 -2.0620
  150SAPE     P16570   3.232   2.881  10.595  0.2589  0.1541 -0.2347
  150SAPE   O1316571   3.099   2.937  10.551 -0.1637  0.6348  0.0347
  150SAPE   O1416572   3.253   2.901  10.742 -0.3175 -0.7009  0.3237
  150SAPE   O1216573   3.241   2.729  10.570  0.5904  0.1592  0.4572
  150SAPE   O1116574   3.352   2.956  10.529 -0.6106  0.0681 -0.4226
  150SAPE    C116575   3.490   2.928  10.558 -0.1203 -0.0914 -0.5571
  150SAPE    HA16576   3.497   2.901  10.666  1.5803  0.9720 -0.3761
  150SAPE    HB16577   3.523   2.844  10.494 -0.8316  0.5985 -1.8617
  150SAPE    C216578   3.589   3.041  10.510 -0.3188  0.2861 -0.2964
  150SAPE    HS16579   3.601   3.117  10.590  1.4953  0.2062 -0.4638
  150SAPE   O2116580   3.542   3.107  10.393  0.4209 -0.0505 -0.3063
  150SAPE   C2116581   3.601   3.233  10.374 -0.0524 -0.2694 -0.1479
  150SAPE   O2216582   3.684   3.282  10.444 -0.0125  0.5293  0.1548
  150SAPE   C2216583   3.549   3.292  10.241 -0.0467  0.2543  0.1535
  150SAPE   H2R16584   3.564   3.218  10.160 -1.3399  1.0261 -0.8408
  150SAPE   H2S16585   3.437   3.295  10.244 -0.0955 -1.3158  0.8354
  150SAPE    C316586   3.739   2.983  10.488 -0.4779 -0.3693 -0.8946
  150SAPE    HX16587   3.753   2.933  10.586 -0.2221  1.7620  0.2053
  150SAPE    HY16588   3.814   3.064  10.476  2.1548 -1.6681  3.9895
  150SAPE   O3116589   3.746   2.897  10.373  0.0975 -0.1088 -0.5552
  150SAPE   C3116590   3.802   2.949  10.259  0.1793  0.4698  0.4511
  150SAPE   O3216591   3.847   3.063  10.252  0.2127  0.1179  0.1141
  150SAPE   C3216592   3.803   2.852  10.139 -1.0378 -0.3895 -0.0771
  150SAPE   H2X16593   3.698   2.817  10.130 -1.4188 -0.3856  3.3243
  150SAPE   H2Y16594   3.877   2.775  10.167 -0.0922  1.0949  1.6984
  150SAPE   C2316595   3.617   3.423  10.194 -0.4298 -0.7213 -0.2332
  150SAPE   H3R16596   3.629   3.487  10.284  0.7961  1.4016 -1.8153
  150SAPE   H3S16597   3.533   3.462  10.133 -0.7924  0.7994  1.1595
  150SAPE   C2416598   3.738   3.414  10.106 -0.5319  0.5061 -0.3136
  150SAPE   H4R16599   3.735   3.337  10.026 -1.5131  0.7310 -0.4998
  150SAPE   H4S16600   3.821   3.380  10.172  0.6393  0.9003 -1.5240
  150SAPE   C2516601   3.769   3.548  10.049  0.2176  0.5366  0.2585
  150SAPE   H5R16602   3.844   3.607  10.103 -1.3246  3.0262 -0.1494
  150SAPE   C2616603   3.736   3.590   9.921  0.3859 -1.0267 -0.6663
  150SAPE   H6R16604   3.750   3.697   9.899  0.0821 -0.7135  0.6097
  150SAPE   C2716605   3.665   3.509   9.819 -0.3733 -0.2403  0.9620
  150SAPE   H7R16606   3.615   3.579   9.748 -1.4563 -3.4905 -1.7887
  150SAPE   H7S16607   3.583   3.449   9.863  0.7659 -1.1018  1.9781
  150SAPE   C2816608   3.737   3.402   9.738 -0.3347 -0.0165  0.4022
  150SAPE   H8R16609   3.807   3.338   9.794  1.2832  2.1513  0.9943
  150SAPE   C2916610   3.700   3.367   9.609  0.8318 -0.3286 -0.0665
  150SAPE   H9R16611   3.756   3.285   9.561  0.4679 -0.8724  0.4120
  150SAPE  C21016612   3.592   3.423   9.513 -0.0833  0.7844 -0.8439
  150SAPE  H10R16613   3.494   3.426   9.565  0.6886  1.8444  0.5933
  150SAPE  H10S16614   3.576   3.348   9.432 -2.3851 -2.1808  2.0779
  150SAPE  C21116615   3.638   3.557   9.458  0.3861  0.6083 -1.1996
  150SAPE  H11R16616   3.702   3.614   9.526 -0.4450 -0.0186  0.1443
  150SAPE  C21216617   3.613   3.598   9.334 -0.0962 -0.3704 -0.0532
  150SAPE  H12R16618   3.654   3.697   9.312  0.9062  0.3760  4.3499
  150SAPE  C21316619   3.538   3.523   9.224  0.1588 -0.4275  0.0838
  150SAPE  H13R16620   3.474   3.595   9.169  1.3261  1.0078  0.5470
  150SAPE  H13S16621   3.471   3.452   9.276  0.5416  1.3102  3.1539
  150SAPE  C21416622   3.630   3.436   9.137  0.1936 -0.5276 -0.8150
  150SAPE  H14R16623   3.675   3.352   9.191 -0.4343  0.3658  1.2020
  150SAPE  C21516624   3.648   3.442   9.005  1.1284  0.4363  0.1796
  150SAPE  H15R16625   3.723   3.378   8.955 -0.0393 -1.2543  0.5220
  150SAPE  C21616626   3.584   3.544   8.912 -0.7506  0.2249 -0.6191
  150SAPE  H16R16627   3.661   3.603   8.858 -0.8594  1.4450  0.5007
  150SAPE  H16S16628   3.512   3.611   8.964  0.6927  0.2265  1.4739
  150SAPE  C21716629   3.501   3.479   8.803 -1.1548  0.4001  0.0485
  150SAPE  H17R16630   3.447   3.569   8.766 -0.7996  1.6851  2.4797
  150SAPE  H17S16631   3.428   3.415   8.856 -0.0850  0.0752  1.1742
  150SAPE  C21816632   3.584   3.402   8.685  0.5999  0.0826  0.0163
  150SAPE  H18R16633   3.630   3.308   8.724  0.1420  0.1458  0.7315
  150SAPE  H18S16634   3.665   3.469   8.651 -0.3543  1.0022 -0.5163
  150SAPE  C21916635   3.492   3.376   8.564  0.2134  0.4634  0.0355
  150SAPE  H19R16636   3.478   3.483   8.538 -0.9194  0.5802  1.0381
  150SAPE  H19S16637   3.393   3.337   8.596 -1.2397  3.2813 -0.7249
  150SAPE  C22016638   3.574   3.316   8.448 -0.4202  0.3184 -0.3426
  150SAPE  H20R16639   3.639   3.230   8.474  2.5695  2.2293 -0.9861
  150SAPE  H20S16640   3.644   3.397   8.416 -0.5115  0.1673 -0.9252
  150SAPE  H20T16641   3.518   3.289   8.356  0.1381  2.1560 -1.2857
  150SAPE   C3316642   3.855   2.927  10.012  0.5968 -0.6765  0.6795
  150SAPE   H3X16643   3.954   2.969  10.040 -0.1729  0.4093  1.8733
  150SAPE   H3Y16644   3.779   3.006   9.999  0.9715 -0.3354  0.5392
  150SAPE   C3416645   3.859   2.830   9.893  0.1464 -0.8013  0.2103
  150SAPE   H4X16646   3.755   2.816   9.856 -0.5243  3.6310 -0.1283
  150SAPE   H4Y16647   3.910   2.739   9.932  1.5868 -0.2962 -0.4025
  150SAPE   C3516648   3.944   2.882   9.777 -0.2697 -0.5418 -0.0305
  150SAPE   H5X16649   4.051   2.884   9.809  0.1849  2.2750 -1.4432
  150SAPE   H5Y16650   3.905   2.985   9.766 -0.0179 -0.6201 -1.9263
  150SAPE   C3616651   3.920   2.812   9.646 -0.4902 -0.6838 -0.1302
  150SAPE   H6X16652   3.809   2.805   9.649 -0.4081 -2.1253  0.4795
  150SAPE   H6Y16653   3.962   2.709   9.646  1.1478 -0.0577 -0.4674
  150SAPE   C3716654   3.972   2.887   9.521  0.5143 -0.0957 -0.2062
  150SAPE   H7X16655   4.082   2.880   9.507  0.8182  4.5120 -1.8370
  150SAPE   H7Y16656   3.948   2.995   9.533 -0.7082 -0.5044  1.2616
  150SAPE   C3816657   3.905   2.857   9.387 -0.4773 -0.3677 -0.1921
  150SAPE   H8X16658   3.803   2.901   9.390 -0.2280  0.1734  0.5165
  150SAPE   H8Y16659   3.906   2.749   9.359  2.8743  0.1327 -2.6522
  150SAPE   C3916660   3.990   2.936   9.280  0.3548  0.8233 -0.2181
  150SAPE   H9X16661   4.085   2.881   9.266  1.2705  2.3554 -0.2841
  150SAPE   H9Y16662   4.011   3.038   9.318  1.3306  0.3514  0.5643
  150SAPE  C31016663   3.932   2.948   9.147 -0.2132  0.0803  0.1786
  150SAPE  H10X16664   3.927   2.857   9.084  0.4468 -2.7083  3.8939
  150SAPE  H10Y16665   4.005   3.016   9.097 -0.7839  0.8081  0.3166
  150SAPE  C31116666   3.797   3.021   9.145  0.2541  0.3285  0.7928
  150SAPE  H11X16667   3.814   3.115   9.202  2.8209  2.6054 -3.2055
  150SAPE  H11Y16668   3.720   2.965   9.202 -0.9432 -0.3091 -1.3227
  150SAPE  C31216669   3.750   3.054   9.001 -0.5030 -0.0216  0.6625
  150SAPE  H12X16670   3.838   3.086   8.942 -0.1981 -0.8916  0.6378
  150SAPE  H12Y16671   3.678   3.139   8.999 -0.0375  0.3945 -2.1625
  150SAPE  C31316672   3.674   2.940   8.936 -0.3888 -0.0132  0.7501
  150SAPE  H13X16673   3.603   2.893   9.008  0.4483 -0.4786  1.2794
  150SAPE  H13Y16674   3.738   2.852   8.918  0.2213  0.9423 -2.2590
  150SAPE  C31416675   3.607   2.988   8.812  0.6243 -0.1303 -0.0800
  150SAPE  H14X16676   3.683   3.019   8.737 -1.5376  1.5389 -1.7122
  150SAPE  H14Y16677   3.541   3.077   8.825  0.1663 -0.2072 -1.6141
  150SAPE  C31516678   3.529   2.883   8.737  0.1245 -0.3102  0.0518
  150SAPE  H15X16679   3.457   2.830   8.803 -0.0563 -0.6921 -0.4490
  150SAPE  H15Y16680   3.610   2.813   8.707  0.8480  1.1497 -1.6168
  150SAPE  C31616681   3.474   2.934   8.605  0.8186 -0.3262 -0.2516
  150SAPE  H16X16682   3.450   3.042   8.619 -0.6749  0.1009 -4.6638
  150SAPE  H16Y16683   3.386   2.869   8.586  1.7351 -1.8751  0.6102
  150SAPE  C31716684   3.568   2.932   8.492 -0.2532 -0.0966  0.8135
  150SAPE  H17X16685   3.632   2.841   8.497  2.2059  1.5057 -0.0865
  150SAPE  H17Y16686   3.648   3.006   8.509 -0.0321  0.2234 -1.3079
  150SAPE  C31816687   3.517   2.932   8.344 -0.0134 -0.2300 -0.1896
  150SAPE  H18X16688   3.434   2.859   8.328  0.2605 -0.4403 -0.6850
  150SAPE  H18Y16689   3.593   2.893   8.272  1.4897 -0.6613  1.5463
  150SAPE  H18Z16690   3.489   3.032   8.305 -1.6377 -1.0588 -1.2539
  151SAPE     N16691   2.490   3.981  10.608  0.0922  0.0198  0.6787
  151SAPE   HN116692   2.440   4.029  10.530 -2.3073 -1.8297  0.9353
  151SAPE   HN216693   2.531   3.900  10.556 -1.8456  0.2939 -1.4601
  151SAPE   HN316694   2.422   3.934  10.672  2.0152 -1.9140  1.4426
  151SAPE   C1216695   2.595   4.071  10.671 -0.6221  0.4938  0.6826
  151SAPE  H12A16696   2.652   4.020  10.752 -0.7604  1.6586  1.5444
  151SAPE  H12B16697   2.543   4.161  10.710 -1.8215 -0.5287  1.5157
  151SAPE   C1116698   2.695   4.126  10.561  0.4600  0.0970 -1.0221
  151SAPE  H11A16699   2.760   4.037  10.546  0.5614  0.4614 -2.9863
  151SAPE  H11B16700   2.762   4.201  10.608 -1.7096  1.6953 -0.3092
  151SAPE     P16701   2.583   4.317  10.421 -0.5939  0.2926  0.1365
  151SAPE   O1316702   2.486   4.361  10.520  0.1709 -0.2781 -0.1987
  151SAPE   O1416703   2.709   4.391  10.420  0.3817 -0.0057  0.3177
  151SAPE   O1216704   2.624   4.167  10.438 -0.0762  0.2780  0.0332
  151SAPE   O1116705   2.532   4.328  10.276 -0.2960 -0.0057 -0.8840
  151SAPE    C116706   2.413   4.283  10.217 -0.5825  0.2524  1.0570
  151SAPE    HA16707   2.342   4.367  10.225 -0.7809  0.3981 -1.4625
  151SAPE    HB16708   2.437   4.263  10.110 -1.2608  0.5599  0.8439
  151SAPE    C216709   2.374   4.141  10.266 -0.2130 -0.1898 -0.5529
  151SAPE    HS16710   2.355   4.147  10.375  0.4336  1.1677 -0.4928
  151SAPE   O2116711   2.482   4.051  10.221  0.0125 -0.6851 -0.3199
  151SAPE   C2116712   2.478   3.924  10.253 -0.0203  1.1324  0.1932
  151SAPE   O2216713   2.391   3.872  10.322 -0.0087  0.9179 -0.3650
  151SAPE   C2216714   2.599   3.845  10.193  0.7385 -0.5132 -0.1892
  151SAPE   H2R16715   2.637   3.884  10.095  0.3465  2.3785  0.7313
  151SAPE   H2S16716   2.689   3.867  10.254 -0.3993 -2.2504  2.2718
  151SAPE    C316717   2.246   4.094  10.196 -0.6399 -0.0177  0.0321
  151SAPE    HX16718   2.174   4.168  10.237  1.0683  0.6016  2.0939
  151SAPE    HY16719   2.218   3.991  10.229  3.6379 -0.8607  1.6012
  151SAPE   O3116720   2.248   4.105  10.053  0.1627  0.1554  0.0063
  151SAPE   C3116721   2.267   3.993   9.975  0.7885  0.3917 -0.5306
  151SAPE   O3216722   2.271   3.879  10.021 -0.5320  0.1665  0.9926
  151SAPE   C3216723   2.279   4.032   9.832  0.3792 -0.0281 -0.0535
  151SAPE   H2X16724   2.312   4.138   9.830  0.7392 -0.0924  1.3495
  151SAPE   H2Y16725   2.178   4.043   9.787  0.1922  0.7032  0.5251
  151SAPE   C2316726   2.581   3.690  10.188  0.0929 -0.2711 -0.0176
  151SAPE   H3R16727   2.532   3.666  10.285  0.0989  1.3881  0.4328
  151SAPE   H3S16728   2.686   3.656  10.176  0.4547  0.6300  0.4690
  151SAPE   C2416729   2.508   3.643  10.058  0.6025  0.1287 -0.1169
  151SAPE   H4R16730   2.540   3.703   9.971  0.0356  0.4899 -0.0778
  151SAPE   H4S16731   2.403   3.672  10.079  0.0202 -0.2428 -2.2616
  151SAPE   C2516732   2.518   3.490  10.047 -0.8654 -0.1749  0.0381
  151SAPE   H5R16733   2.489   3.427  10.132 -2.5409 -0.8486 -0.9817
  151SAPE   C2616734   2.562   3.427   9.942 -0.3145 -0.0802 -0.8672
  151SAPE   H6R16735   2.583   3.319   9.948 -1.1596 -0.1709  2.9860
  151SAPE   C2716736   2.606   3.485   9.806  0.0378  0.3574 -0.7239
  151SAPE   H7R16737   2.651   3.396   9.755  1.1085  0.2146  0.4133
  151SAPE   H7S16738   2.679   3.568   9.819 -1.5507  1.8893 -1.2533
  151SAPE   C2816739   2.488   3.531   9.728  0.6714  0.8342 -0.2526
  151SAPE   H8R16740   2.390   3.498   9.766  1.5164 -2.6821 -0.7714
  151SAPE   C2916741   2.487   3.592   9.603  0.3173  0.1080 -0.4685
  151SAPE   H9R16742   2.393   3.608   9.548  0.8862 -0.3084 -1.6054
  151SAPE  C21016743   2.604   3.639   9.518  0.6189  0.0317 -0.1623
  151SAPE  H10R16744   2.697   3.644   9.578  0.4966  1.6126 -0.0786
  151SAPE  H10S16745   2.598   3.748   9.500  1.0110  0.2951  1.1844
  151SAPE  C21116746   2.626   3.545   9.397  0.2595 -0.3662 -0.3421
  151SAPE  H11R16747   2.638   3.438   9.419  0.9229  0.1040  1.8382
  151SAPE  C21216748   2.611   3.571   9.268  0.6650 -0.0608  0.9204
  151SAPE  H12R16749   2.617   3.495   9.189 -1.8833  0.4787  0.1260
  151SAPE  C21316750   2.579   3.713   9.205 -1.4402  0.2292  0.2742
  151SAPE  H13R16751   2.657   3.726   9.128 -2.3128 -0.1440 -0.6907
  151SAPE  H13S16752   2.612   3.790   9.278  1.5211  1.3628 -2.0440
  151SAPE  C21416753   2.438   3.735   9.167 -0.1668 -0.0680 -0.3673
  151SAPE  H14R16754   2.374   3.722   9.255 -1.3766  0.0578 -1.2071
  151SAPE  C21516755   2.393   3.770   9.046 -0.0270  0.7236  0.4080
  151SAPE  H15R16756   2.285   3.783   9.028 -0.1702  2.3944  2.1103
  151SAPE  C21616757   2.487   3.788   8.925 -0.5888 -0.4559  0.0099
  151SAPE  H16R16758   2.508   3.693   8.872  0.4883  0.8695 -2.0745
  151SAPE  H16S16759   2.590   3.814   8.958 -1.1972 -0.0767  1.7103
  151SAPE  C21716760   2.439   3.872   8.806 -0.4546  0.0448  0.3537
  151SAPE  H17R16761   2.519   3.879   8.729 -1.7392  1.3217 -0.9323
  151SAPE  H17S16762   2.419   3.973   8.848  0.5673  1.0366 -1.3974
  151SAPE  C21816763   2.304   3.810   8.754 -0.3065  0.3726  0.4754
  151SAPE  H18R16764   2.220   3.812   8.827  0.8434 -1.0037  1.9226
  151SAPE  H18S16765   2.316   3.703   8.725  1.1469  0.7914 -0.5737
  151SAPE  C21916766   2.265   3.890   8.630  0.3409  0.0359 -0.1286
  151SAPE  H19R16767   2.353   3.890   8.562 -0.6023 -0.6795 -1.3998
  151SAPE  H19S16768   2.245   3.994   8.662  0.8004 -0.7756  3.1549
  151SAPE  C22016769   2.143   3.841   8.558 -1.2884 -0.7713 -0.2561
  151SAPE  H20R16770   2.134   3.883   8.455 -0.5507 -3.8512 -1.7108
  151SAPE  H20S16771   2.053   3.866   8.617 -2.5623 -0.5547 -2.1751
  151SAPE  H20T16772   2.154   3.730   8.560 -3.3467 -1.0199  2.0435
  151SAPE   C3316773   2.386   3.947   9.746  0.8883 -0.8452 -0.3770
  151SAPE   H3X16774   2.385   3.965   9.636  2.0869 -1.8004 -0.5701
  151SAPE   H3Y16775   2.358   3.840   9.749  0.7419 -0.7984 -0.0974
  151SAPE   C3416776   2.532   3.961   9.801  0.0298 -0.5668 -0.2658
  151SAPE   H4X16777   2.603   3.897   9.744  1.4324 -0.9498  1.7487
  151SAPE   H4Y16778   2.516   3.925   9.905 -1.4156  0.5807 -0.0604
  151SAPE   C3516779   2.585   4.105   9.798  0.0561  0.2214  0.1668
  151SAPE   H5X16780   2.693   4.112   9.822 -0.6449  1.0965  3.7313
  151SAPE   H5Y16781   2.533   4.159   9.881 -0.5049 -1.0417  0.6643
  151SAPE   C3616782   2.569   4.171   9.659 -0.0996  0.0438 -0.2613
  151SAPE   H6X16783   2.461   4.161   9.632 -0.7698 -1.9770  2.6873
  151SAPE   H6Y16784   2.626   4.107   9.588 -0.2241  1.3023 -1.5453
  151SAPE   C3716785   2.619   4.316   9.648  0.5866  0.0751 -0.7527
  151SAPE   H7X16786   2.728   4.330   9.640  0.6408  0.6080  0.6453
  151SAPE   H7Y16787   2.589   4.379   9.735 -1.4546 -0.2943 -1.1401
  151SAPE   C3816788   2.557   4.373   9.523 -0.6396 -0.7528  0.3549
  151SAPE   H8X16789   2.577   4.482   9.526  0.0187 -0.8009 -1.2852
  151SAPE   H8Y16790   2.446   4.373   9.515 -0.7551  1.7856  1.2597
  151SAPE   C3916791   2.616   4.313   9.393  0.9491  0.0431 -0.4955
  151SAPE   H9X16792   2.613   4.203   9.401  5.3399 -0.1533  1.6697
  151SAPE   H9Y16793   2.725   4.336   9.382  0.5493  3.1193  0.7651
  151SAPE  C31016794   2.548   4.356   9.266 -0.1072 -0.4301 -0.2955
  151SAPE  H10X16795   2.573   4.464   9.261 -0.7906 -0.2823 -0.6706
  151SAPE  H10Y16796   2.437   4.347   9.263  0.0853 -4.0349 -1.3464
  151SAPE  C31116797   2.598   4.303   9.135 -0.1678  0.9730  0.8166
  151SAPE  H11X16798   2.598   4.193   9.150  2.9734  1.0083  1.6502
  151SAPE  H11Y16799   2.704   4.330   9.121 -0.5008  1.6474 -0.5921
  151SAPE  C31216800   2.510   4.351   9.017 -0.5557  0.2729  0.4088
  151SAPE  H12X16801   2.474   4.455   9.033 -3.1087 -0.1827 -1.7833
  151SAPE  H12Y16802   2.417   4.292   9.027 -0.2804 -0.3821 -0.7236
  151SAPE  C31316803   2.573   4.330   8.872 -0.0577  0.5395 -0.1932
  151SAPE  H13X16804   2.614   4.226   8.863 -0.3810  0.4609 -0.7776
  151SAPE  H13Y16805   2.658   4.398   8.851  0.2745  0.7003  1.5154
  151SAPE  C31416806   2.462   4.341   8.770 -0.3714  0.1970  0.5135
  151SAPE  H14X16807   2.387   4.416   8.803  0.2544  1.2906 -0.4664
  151SAPE  H14Y16808   2.413   4.245   8.745 -1.2618  1.3023 -2.4021
  151SAPE  C31516809   2.510   4.403   8.628  0.3934 -0.4740  0.1467
  151SAPE  H15X16810   2.548   4.325   8.558 -0.7064 -0.8862 -0.0137
  151SAPE  H15Y16811   2.590   4.479   8.644 -0.1731  0.0911  0.3153
  151SAPE  C31616812   2.395   4.465   8.546 -0.4385 -0.6182 -0.6385
  151SAPE  H16X16813   2.398   4.576   8.536  0.3318 -0.2303  2.5732
  151SAPE  H16Y16814   2.307   4.464   8.613  0.1068  0.7183  0.1564
  151SAPE  C31716815   2.360   4.409   8.411 -0.5216  0.0648  0.4786
  151SAPE  H17X16816   2.446   4.423   8.341  0.3659 -1.4410  1.2078
  151SAPE  H17Y16817   2.276   4.476   8.385 -0.6084  0.3408  1.4661
  151SAPE  C31816818   2.312   4.263   8.399 -0.0473 -0.3385  0.5919
  151SAPE  H18X16819   2.213   4.253   8.449  0.0255  0.8537  1.0095
  151SAPE  H18Y16820   2.389   4.199   8.447 -1.2123 -3.8866 -1.8718
  151SAPE  H18Z16821   2.301   4.216   8.299  0.1265 -1.4643  1.0882
  152SAPE     N16822   1.903   5.827  10.623  0.3403 -0.4618 -0.3964
  152SAPE   HN116823   1.885   5.898  10.549 -0.1601  0.0291  0.1790
  152SAPE   HN216824   1.858   5.863  10.710  1.0678 -0.1018 -0.1660
  152SAPE   HN316825   2.003   5.835  10.647  0.3992  1.1483 -1.0440
  152SAPE   C1216826   1.861   5.689  10.594  0.8937  0.3734  0.2948
  152SAPE  H12A16827   1.753   5.696  10.570  0.2481  3.6709  3.3434
  152SAPE  H12B16828   1.869   5.624  10.684  1.2758  0.7394  0.5279
  152SAPE   C1116829   1.930   5.635  10.474 -0.6955 -0.1625  0.1035
  152SAPE  H11A16830   1.919   5.703  10.387 -1.0940 -0.9685 -0.4999
  152SAPE  H11B16831   1.883   5.538  10.445 -0.8222 -0.6060  1.6932
  152SAPE     P16832   2.166   5.508  10.531  0.2352  0.0054 -0.1196
  152SAPE   O1316833   2.283   5.510  10.442 -0.2525  0.3931 -0.1621
  152SAPE   O1416834   2.194   5.504  10.674  0.1306  0.0626 -0.9617
  152SAPE   O1216835   2.077   5.633  10.498  0.8643  0.2496 -0.7255
  152SAPE   O1116836   2.079   5.380  10.500  0.3719 -0.3949  0.1860
  152SAPE    C116837   2.066   5.342  10.365 -0.0943 -0.1168  0.0260
  152SAPE    HA16838   1.962   5.304  10.356  0.1562 -0.5175 -1.2916
  152SAPE    HB16839   2.066   5.429  10.296  1.7618 -0.5630 -0.5809
  152SAPE    C216840   2.170   5.235  10.323 -0.3056  0.2969 -0.8151
  152SAPE    HS16841   2.268   5.285  10.340 -0.8771  0.8956  0.9651
  152SAPE   O2116842   2.149   5.196  10.187  0.5354 -0.2843  0.7327
  152SAPE   C2116843   2.254   5.156  10.133 -0.0859 -0.1798  0.6918
  152SAPE   O2216844   2.369   5.178  10.164 -0.3637 -0.2744 -0.2396
  152SAPE   C2216845   2.214   5.082  10.004 -0.1519 -0.2339  0.0389
  152SAPE   H2R16846   2.151   4.994  10.028 -0.7603 -1.2109 -4.2426
  152SAPE   H2S16847   2.140   5.152   9.959 -2.5969 -1.5198  1.8106
  152SAPE    C316848   2.159   5.112  10.416  0.3241  0.2054 -0.5706
  152SAPE    HX16849   2.062   5.061  10.397  1.2646 -1.7482 -0.4207
  152SAPE    HY16850   2.176   5.144  10.521  1.5177  2.0109 -1.2786
  152SAPE   O3116851   2.259   5.019  10.381 -0.3335 -0.0973  0.4216
  152SAPE   C3116852   2.244   4.903  10.439  0.3625  0.1452 -0.4849
  152SAPE   O3216853   2.149   4.873  10.508 -0.0841 -0.3841  0.2504
  152SAPE   C3216854   2.364   4.815  10.401  0.6253 -0.3367 -0.4388
  152SAPE   H2X16855   2.436   4.811  10.486  1.2060 -0.1445 -0.9102
  152SAPE   H2Y16856   2.417   4.869  10.319 -1.3877  1.4896 -0.6241
  152SAPE   C2316857   2.320   5.045   9.902  0.4804 -0.5572  0.8380
  152SAPE   H3R16858   2.265   5.005   9.814  1.2210 -1.2354  0.6748
  152SAPE   H3S16859   2.386   4.965   9.941 -0.2469 -1.5018  0.1751
  152SAPE   C2416860   2.419   5.156   9.864 -0.0585  0.0607 -0.0213
  152SAPE   H4R16861   2.475   5.111   9.779 -2.8832 -0.1506 -1.8946
  152SAPE   H4S16862   2.485   5.190   9.948  2.3074  2.8175 -2.7687
  152SAPE   C2516863   2.371   5.288   9.812  0.0983  0.3219  0.1141
  152SAPE   H5R16864   2.345   5.356   9.894 -0.2556  0.3341 -0.0028
  152SAPE   C2616865   2.352   5.329   9.681 -0.1325 -0.5770 -0.3939
  152SAPE   H6R16866   2.329   5.436   9.685  3.9221  0.4793  3.0058
  152SAPE   C2716867   2.365   5.257   9.554 -0.2149 -0.2548  0.1313
  152SAPE   H7R16868   2.472   5.237   9.534 -0.0612  2.8444 -3.1666
  152SAPE   H7S16869   2.334   5.326   9.473 -0.7204 -0.7084 -0.0693
  152SAPE   C2816870   2.281   5.126   9.547 -0.3339  0.0167  0.2286
  152SAPE   H8R16871   2.305   5.044   9.617  5.3648  1.6861  0.7112
  152SAPE   C2916872   2.183   5.105   9.455 -0.2800  0.3294 -0.6880
  152SAPE   H9R16873   2.159   4.998   9.447  2.6471 -0.6442  1.7198
  152SAPE  C21016874   2.135   5.191   9.342  0.2789 -0.2539  0.1016
  152SAPE  H10R16875   2.150   5.294   9.380 -1.5605 -0.1316  0.5841
  152SAPE  H10S16876   2.027   5.174   9.320  0.4902  0.1861 -1.3876
  152SAPE  C21116877   2.212   5.183   9.212 -0.2980 -0.0911  0.1376
  152SAPE  H11R16878   2.320   5.166   9.226 -0.6751 -2.2067  0.9241
  152SAPE  C21216879   2.165   5.188   9.084  0.4458  0.0240  0.7458
  152SAPE  H12R16880   2.233   5.194   8.998 -1.2494 -0.7364 -0.7027
  152SAPE  C21316881   2.024   5.205   9.041  0.2994 -0.1714 -0.0612
  152SAPE  H13R16882   2.010   5.308   9.003 -1.5417 -0.3575  0.0068
  152SAPE  H13S16883   1.944   5.188   9.117 -0.6917 -1.1216 -1.2552
  152SAPE  C21416884   1.997   5.108   8.931  0.0550 -0.6047  0.1749
  152SAPE  H14R16885   2.042   5.008   8.940 -1.1785 -1.1687  0.3070
  152SAPE  C21516886   1.919   5.135   8.820  0.1366  0.2695 -0.1554
  152SAPE  H15R16887   1.889   5.058   8.748  0.1294 -0.9802  1.1418
  152SAPE  C21616888   1.844   5.256   8.790 -0.8362 -0.6188 -0.1602
  152SAPE  H16R16889   1.832   5.321   8.880 -0.2172 -2.8743  1.6446
  152SAPE  H16S16890   1.738   5.236   8.764 -0.1822 -4.0287 -0.6300
  152SAPE  C21716891   1.902   5.350   8.678 -0.4013  0.6521  0.0516
  152SAPE  H17R16892   2.005   5.377   8.708 -0.1149 -0.3821  0.0433
  152SAPE  H17S16893   1.845   5.444   8.660 -1.4804 -0.1641 -1.0168
  152SAPE  C21816894   1.902   5.282   8.543 -0.3822 -0.4330 -0.0022
  152SAPE  H18R16895   1.793   5.272   8.523  0.0991 -1.9381 -2.2775
  152SAPE  H18S16896   1.933   5.176   8.556 -0.3644 -0.3825  0.3885
  152SAPE  C21916897   1.983   5.365   8.438 -0.2999  0.4961 -0.8633
  152SAPE  H19R16898   1.946   5.468   8.457 -0.4024  0.1848  0.8467
  152SAPE  H19S16899   1.960   5.320   8.339  0.2322  0.9400 -1.1944
  152SAPE  C22016900   2.135   5.371   8.462 -0.2458  1.3025 -0.1770
  152SAPE  H20R16901   2.176   5.443   8.388  1.7218 -1.0123 -1.4966
  152SAPE  H20S16902   2.185   5.274   8.441 -0.4139  1.1541  0.1124
  152SAPE  H20T16903   2.141   5.407   8.566 -1.2372  2.4104 -0.4768
  152SAPE   C3316904   2.306   4.676  10.360 -0.0945  0.3301 -0.1289
  152SAPE   H3X16905   2.250   4.635  10.447  0.8450 -1.7169 -0.4243
  152SAPE   H3Y16906   2.388   4.603  10.342 -0.5757 -0.7879  1.8779
  152SAPE   C3416907   2.209   4.673  10.241  0.3952 -0.0273  0.5785
  152SAPE   H4X16908   2.105   4.704  10.269 -0.6730 -1.9304 -1.0182
  152SAPE   H4Y16909   2.173   4.569  10.227 -0.8773  0.6430 -1.5240
  152SAPE   C3516910   2.263   4.727  10.110 -0.6635  0.7626 -0.1135
  152SAPE   H5X16911   2.329   4.815  10.125 -1.2532  0.9989  1.2528
  152SAPE   H5Y16912   2.182   4.753  10.039  0.0547  1.0874 -0.8222
  152SAPE   C3616913   2.351   4.623  10.043  0.0350  0.2151 -0.1973
  152SAPE   H6X16914   2.290   4.530  10.031 -0.1293  0.5681 -2.6410
  152SAPE   H6Y16915   2.444   4.610  10.104 -0.5325 -1.9897  0.2931
  152SAPE   C3716916   2.378   4.655   9.890 -0.3383 -0.3989 -0.5378
  152SAPE   H7X16917   2.442   4.573   9.848 -0.2954 -2.0692  2.4988
  152SAPE   H7Y16918   2.426   4.755   9.893  1.8933 -1.4013  2.9410
  152SAPE   C3816919   2.257   4.663   9.790 -0.3400  0.2553  0.1830
  152SAPE   H8X16920   2.198   4.751   9.824  0.9631  1.2763 -0.0704
  152SAPE   H8Y16921   2.199   4.569   9.794  0.7681 -0.4324  0.4656
  152SAPE   C3916922   2.297   4.695   9.641  0.5723 -0.4734 -0.0545
  152SAPE   H9X16923   2.377   4.623   9.616  1.0945  0.4563 -1.1351
  152SAPE   H9Y16924   2.331   4.801   9.639  3.6113 -1.3712 -0.0023
  152SAPE  C31016925   2.177   4.675   9.547 -0.6852 -0.4991  0.1631
  152SAPE  H10X16926   2.111   4.754   9.590  2.5403  1.4207  1.9585
  152SAPE  H10Y16927   2.140   4.576   9.580 -1.9051 -0.1525 -0.1169
  152SAPE  C31116928   2.213   4.671   9.395  0.0577  0.3407 -0.1511
  152SAPE  H11X16929   2.315   4.630   9.379  1.0215  3.2647 -2.3263
  152SAPE  H11Y16930   2.232   4.775   9.363  0.5302  0.6968  1.2262
  152SAPE  C31216931   2.110   4.603   9.295 -0.2932  0.0201 -0.3026
  152SAPE  H12X16932   2.018   4.666   9.302 -0.0293  0.3215  0.6357
  152SAPE  H12Y16933   2.087   4.501   9.332  1.4772 -0.8015 -1.3780
  152SAPE  C31316934   2.159   4.604   9.150  0.1692  0.3766 -0.4698
  152SAPE  H13X16935   2.232   4.521   9.146 -0.6327 -0.2858 -2.5537
  152SAPE  H13Y16936   2.202   4.703   9.123 -1.4197  1.8296  1.9290
  152SAPE  C31416937   2.052   4.560   9.045  0.6727 -0.4363 -0.6671
  152SAPE  H14X16938   1.995   4.652   9.019  0.4867 -0.4132 -0.1888
  152SAPE  H14Y16939   1.987   4.483   9.093  0.4452  0.2459  0.1362
  152SAPE  C31516940   2.108   4.492   8.919 -0.3631 -0.8841 -0.6671
  152SAPE  H15X16941   2.128   4.387   8.951  1.0623 -0.8927 -1.5277
  152SAPE  H15Y16942   2.202   4.544   8.893 -0.4875  0.8356  1.8696
  152SAPE  C31616943   2.001   4.494   8.808 -0.8792  0.6784 -0.2639
  152SAPE  H16X16944   1.963   4.598   8.800  0.8491  1.3575 -0.0951
  152SAPE  H16Y16945   1.914   4.442   8.854 -0.2475 -0.1983 -0.0212
  152SAPE  C31716946   2.029   4.425   8.673  0.4561  0.1835 -0.5839
  152SAPE  H17X16947   2.119   4.479   8.637  0.3169 -0.3721 -1.7948
  152SAPE  H17Y16948   1.941   4.436   8.606 -0.8816 -3.6835  0.2271
  152SAPE  C31816949   2.042   4.274   8.695  0.1768 -0.6137 -0.1484
  152SAPE  H18X16950   1.955   4.238   8.752  0.7338 -1.2139  0.3380
  152SAPE  H18Y16951   2.141   4.255   8.743  0.7487 -0.2041 -1.1170
  152SAPE  H18Z16952   2.034   4.233   8.592  3.2349  0.4110 -0.9022
  153SAPE     N16953   2.012   3.681  10.402 -0.5322 -0.2397 -0.4252
  153SAPE   HN116954   2.042   3.674  10.302  0.5068  0.7746 -0.2091
  153SAPE   HN216955   1.971   3.589  10.426 -1.4188  0.5622  1.2909
  153SAPE   HN316956   1.932   3.743  10.423 -0.7370 -1.0171  1.2486
  153SAPE   C1216957   2.124   3.738  10.486 -1.1499  0.0382 -0.6121
  153SAPE  H12A16958   2.080   3.765  10.585 -0.1181 -2.6755  0.7001
  153SAPE  H12B16959   2.155   3.825  10.425 -1.2353 -0.6528 -1.6640
  153SAPE   C1116960   2.241   3.637  10.502 -0.3385  0.1911 -0.7002
  153SAPE  H11A16961   2.328   3.684  10.553  0.5139 -1.0757 -0.9417
  153SAPE  H11B16962   2.270   3.602  10.401  2.7194  0.5643 -0.0644
  153SAPE     P16963   2.279   3.397  10.599 -0.0068 -0.0827 -0.1674
  153SAPE   O1316964   2.404   3.431  10.667 -0.5881 -0.2011  0.0418
  153SAPE   O1416965   2.190   3.297  10.666 -0.1307 -0.0020 -0.5376
  153SAPE   O1216966   2.199   3.529  10.587 -0.1112  0.2751 -0.2717
  153SAPE   O1116967   2.304   3.355  10.447  0.1167 -0.2709 -0.0215
  153SAPE    C116968   2.205   3.326  10.349 -0.8551  0.1377 -0.1131
  153SAPE    HA16969   2.102   3.320  10.392 -1.5104  0.9686 -1.5278
  153SAPE    HB16970   2.207   3.404  10.271 -1.7971  0.2545 -0.0329
  153SAPE    C216971   2.250   3.189  10.287  0.2463 -0.3568 -0.1522
  153SAPE    HS16972   2.248   3.121  10.375 -2.4630  0.7663  0.7826
  153SAPE   O2116973   2.379   3.206  10.225 -0.0020 -0.0721 -0.4846
  153SAPE   C2116974   2.465   3.120  10.261 -0.6203  0.0021 -0.9630
  153SAPE   O2216975   2.456   3.039  10.355  0.2393 -0.8421  0.1688
  153SAPE   C2216976   2.583   3.133  10.169 -0.2264 -0.0165  0.1853
  153SAPE   H2R16977   2.558   3.111  10.063 -0.0178 -1.4569  0.4140
  153SAPE   H2S16978   2.625   3.234  10.184 -0.3804  0.0997 -0.1620
  153SAPE    C316979   2.146   3.134  10.188 -0.1200  0.3871  0.0074
  153SAPE    HX16980   2.045   3.121  10.233  0.9477 -1.6166  1.9658
  153SAPE    HY16981   2.179   3.030  10.171 -1.0568  0.2212 -0.8937
  153SAPE   O3116982   2.142   3.207  10.068  0.6516  0.0283 -0.1504
  153SAPE   C3116983   2.234   3.174   9.979  0.3807  0.8622  0.3781
  153SAPE   O3216984   2.312   3.078   9.979  0.0606 -1.0388 -0.5148
  153SAPE   C3216985   2.236   3.278   9.871  0.9736 -0.2438  0.2200
  153SAPE   H2X16986   2.305   3.359   9.901  2.2206 -1.0046 -0.5137
  153SAPE   H2Y16987   2.131   3.310   9.853  1.0758 -1.2276 -2.6076
  153SAPE   C2316988   2.683   3.019  10.215 -0.1719 -0.7841  0.4175
  153SAPE   H3R16989   2.631   2.923  10.190 -1.7791  0.4405 -1.2030
  153SAPE   H3S16990   2.702   3.027  10.324  0.9036  0.5255  0.1609
  153SAPE   C2416991   2.822   3.038  10.143  0.2519  0.8061  0.2144
  153SAPE   H4R16992   2.901   3.000  10.211  0.4442  0.5819 -0.1289
  153SAPE   H4S16993   2.850   3.144  10.123 -0.2616  0.9521  0.2512
  153SAPE   C2516994   2.831   2.952  10.015  0.0957 -0.2626  0.1131
  153SAPE   H5R16995   2.859   2.848  10.040 -1.7660 -0.4793  1.5070
  153SAPE   C2616996   2.808   2.975   9.880 -0.3500  0.6400 -0.0367
  153SAPE   H6R16997   2.843   2.900   9.807  0.6463  0.9639  0.0961
  153SAPE   C2716998   2.763   3.100   9.823  0.1670 -0.2025  0.3015
  153SAPE   H7R16999   2.776   3.185   9.894 -0.2005  2.7872 -2.9284
  153SAPE   H7S17000   2.654   3.086   9.813  0.2560 -1.8499  1.2832
  153SAPE   C2817001   2.826   3.139   9.697  0.2271  0.8012 -0.0107
  153SAPE   H8R17002   2.929   3.177   9.706  0.5897 -0.6281  2.6043
  153SAPE   C2917003   2.771   3.124   9.574  0.1926  1.5549  0.7061
  153SAPE   H9R17004   2.832   3.162   9.491 -0.2510 -0.2086 -0.4851
  153SAPE  C21017005   2.633   3.072   9.556  0.6674 -0.0257 -0.0092
  153SAPE  H10R17006   2.553   3.148   9.546 -0.1097 -0.6291  1.3164
  153SAPE  H10S17007   2.592   3.014   9.642 -0.9216  3.9904  2.2143
  153SAPE  C21117008   2.625   2.968   9.439  0.8201 -0.8338  0.2757
  153SAPE  H11R17009   2.615   2.863   9.469  0.4209 -0.9411 -0.2186
  153SAPE  C21217010   2.636   2.992   9.304  0.8091  0.3647 -0.3337
  153SAPE  H12R17011   2.638   2.907   9.235 -0.1068 -1.7512  2.0920
  153SAPE  C21317012   2.656   3.121   9.244 -0.0377 -0.2940  0.1722
  153SAPE  H13R17013   2.723   3.097   9.159 -0.5591 -0.6755 -0.1338
  153SAPE  H13S17014   2.714   3.189   9.310 -0.9683  0.9556 -0.2614
  153SAPE  C21417015   2.525   3.178   9.196  0.0555 -0.0304 -0.2570
  153SAPE  H14R17016   2.433   3.152   9.252 -1.0156  1.2873 -1.3284
  153SAPE  C21517017   2.517   3.259   9.088 -0.1382 -0.0486  0.5382
  153SAPE  H15R17018   2.424   3.310   9.059 -0.3273 -0.5381  0.2765
  153SAPE  C21617019   2.645   3.292   9.005  0.1094  0.3009 -0.2886
  153SAPE  H16R17020   2.670   3.208   8.936  1.0799  0.7414 -0.4900
  153SAPE  H16S17021   2.735   3.313   9.066  0.6933  1.7538 -1.6061
  153SAPE  C21717022   2.635   3.416   8.906 -0.4285  0.6343 -0.2137
  153SAPE  H17R17023   2.743   3.433   8.885 -0.1907 -0.6867 -0.1391
  153SAPE  H17S17024   2.603   3.508   8.959  0.9372  1.2678 -0.4235
  153SAPE  C21817025   2.569   3.376   8.775 -0.2500 -0.3075  0.4811
  153SAPE  H18R17026   2.463   3.343   8.786 -0.2556 -0.0100  1.4442
  153SAPE  H18S17027   2.615   3.287   8.726  0.0072  1.1214 -2.0212
  153SAPE  C21917028   2.574   3.479   8.659 -0.7029  0.0312 -0.5859
  153SAPE  H19R17029   2.495   3.553   8.684 -0.9499 -0.9710  1.8000
  153SAPE  H19S17030   2.520   3.428   8.576 -2.0676 -0.9271  0.8576
  153SAPE  C22017031   2.705   3.560   8.634 -0.1136  0.6251 -0.1992
  153SAPE  H20R17032   2.783   3.508   8.574 -0.0144 -1.6924  1.8091
  153SAPE  H20S17033   2.755   3.587   8.730 -0.0807 -2.4858  0.7549
  153SAPE  H20T17034   2.679   3.653   8.579  0.8824  0.4187 -1.0329
  153SAPE   C3317035   2.282   3.220   9.729 -0.2504 -0.0445 -0.4008
  153SAPE   H3X17036   2.372   3.158   9.749 -1.2206 -1.2365  0.4001
  153SAPE   H3Y17037   2.311   3.310   9.670 -0.4008 -2.2021 -4.0679
  153SAPE   C3417038   2.177   3.149   9.646 -0.1258  0.7204 -0.4589
  153SAPE   H4X17039   2.097   3.223   9.626  2.0885  2.9056 -1.8045
  153SAPE   H4Y17040   2.130   3.069   9.708 -1.6288  1.3850 -0.6959
  153SAPE   C3517041   2.230   3.104   9.509 -0.3728 -0.4402 -0.5590
  153SAPE   H5X17042   2.320   3.043   9.534 -2.0362 -2.3886  1.0009
  153SAPE   H5Y17043   2.259   3.197   9.456 -0.8904 -0.1642 -0.3585
  153SAPE   C3617044   2.125   3.023   9.432 -0.3016  0.3398  0.8885
  153SAPE   H6X17045   2.038   3.093   9.424  0.8688  1.6638 -1.8719
  153SAPE   H6Y17046   2.087   2.930   9.478 -0.4755 -1.6804 -2.9624
  153SAPE   C3717047   2.183   2.997   9.282 -0.5340  0.8159 -0.2624
  153SAPE   H7X17048   2.237   2.900   9.285 -0.0148  1.1122 -0.0525
  153SAPE   H7Y17049   2.252   3.079   9.254 -1.4401  1.6216 -0.1896
  153SAPE   C3817050   2.070   2.990   9.177  0.0203  0.9087  0.0525
  153SAPE   H8X17051   2.003   3.078   9.179 -0.7482  0.4155 -1.7231
  153SAPE   H8Y17052   2.003   2.903   9.196 -0.3435  1.0286 -0.6507
  153SAPE   C3917053   2.131   2.965   9.037  0.1260  0.5479  0.6198
  153SAPE   H9X17054   2.198   2.877   9.049 -0.6217  0.1357  1.8585
  153SAPE   H9Y17055   2.184   3.057   9.002 -0.3825  0.2294 -1.0918
  153SAPE  C31017056   2.029   2.932   8.918 -0.3745  0.0253  0.1059
  153SAPE  H10X17057   1.934   2.988   8.930 -0.1741  0.3395  0.2539
  153SAPE  H10Y17058   2.005   2.824   8.930  3.2087 -0.9077  0.2259
  153SAPE  C31117059   2.074   2.941   8.770  0.4455  0.5944 -0.7244
  153SAPE  H11X17060   2.171   2.895   8.743  0.3574  0.7139 -1.2526
  153SAPE  H11Y17061   2.086   3.047   8.738  0.0538  1.2161  1.0790
  153SAPE  C31217062   1.967   2.888   8.672 -0.1683  0.2774 -0.0406
  153SAPE  H12X17063   1.873   2.929   8.715  0.3566  0.5484  0.8910
  153SAPE  H12Y17064   1.940   2.780   8.683 -2.7161  0.8770  0.2116
  153SAPE  C31317065   1.990   2.937   8.533 -0.3368  0.4470 -1.0719
  153SAPE  H13X17066   1.985   3.047   8.549  3.2989  0.6546 -0.3177
  153SAPE  H13Y17067   1.909   2.893   8.473 -1.5096 -1.6554  1.8154
  153SAPE  C31417068   2.126   2.893   8.478  0.3825 -0.4440 -0.2347
  153SAPE  H14X17069   2.200   2.964   8.523 -0.3304  1.2559 -1.6102
  153SAPE  H14Y17070   2.118   2.923   8.371  0.2015  1.3253  0.2295
  153SAPE  C31517071   2.174   2.753   8.493  0.1138  0.5878 -0.1347
  153SAPE  H15X17072   2.107   2.682   8.439  0.0851  0.6107 -0.1301
  153SAPE  H15Y17073   2.164   2.723   8.599  2.7813 -0.5090 -0.1260
  153SAPE  C31617074   2.318   2.739   8.454 -1.1835 -0.6216 -0.0505
  153SAPE  H16X17075   2.372   2.827   8.494  1.7230 -1.8130 -1.0536
  153SAPE  H16Y17076   2.337   2.746   8.345 -1.7623  0.6716 -0.0838
  153SAPE  C31717077   2.399   2.626   8.519  0.2761 -0.7240  0.2216
  153SAPE  H17X17078   2.349   2.528   8.503 -1.2534  0.0005  0.4242
  153SAPE  H17Y17079   2.398   2.649   8.627 -2.8463  2.0625 -0.2605
  153SAPE  C31817080   2.543   2.613   8.462  0.2703 -0.2142  0.1219
  153SAPE  H18X17081   2.603   2.704   8.487 -0.2390  0.0719  0.3194
  153SAPE  H18Y17082   2.542   2.588   8.353 -2.0941 -3.3070  0.7334
  153SAPE  H18Z17083   2.593   2.524   8.505  1.8846  0.7342  0.2853
  154SAPE     N17084   6.549   6.695  10.659  0.0620  0.0775 -0.5245
  154SAPE   HN117085   6.595   6.775  10.708  1.1676  0.6315 -2.3830
  154SAPE   HN217086   6.624   6.636  10.617 -0.5547 -0.6833 -0.5898
  154SAPE   HN317087   6.485   6.734  10.588 -0.1688  2.0742  0.7062
  154SAPE   C1217088   6.467   6.628  10.765  0.1557  0.4742 -0.1196
  154SAPE  H12A17089   6.529   6.610  10.856 -0.0563 -4.8551 -0.7315
  154SAPE  H12B17090   6.447   6.525  10.729 -1.6035  1.0818 -0.9670
  154SAPE   C1117091   6.348   6.713  10.797 -0.4379 -0.7132  0.2277
  154SAPE  H11A17092   6.290   6.662  10.878 -2.7084 -0.0910 -0.9140
  154SAPE  H11B17093   6.287   6.740  10.708 -0.7945 -0.9915  0.3825
  154SAPE     P17094   6.283   6.954  10.859  0.1444  0.2130  0.1436
  154SAPE   O1317095   6.198   6.933  10.978 -0.4610 -0.7578 -0.3513
  154SAPE   O1417096   6.363   7.078  10.850  0.7302 -0.2121 -0.1753
  154SAPE   O1217097   6.390   6.840  10.845 -0.2512 -0.1772 -0.2702
  154SAPE   O1117098   6.187   6.945  10.728 -0.1791 -0.5618 -0.3249
  154SAPE    C117099   6.058   6.998  10.720  0.1437 -0.4853  0.5740
  154SAPE    HA17100   5.995   6.918  10.763  0.1774 -0.8280 -0.0095
  154SAPE    HB17101   6.055   7.085  10.789  2.3853  0.3987 -0.3480
  154SAPE    C217102   6.024   7.040  10.571 -0.5766  1.1098  1.0500
  154SAPE    HS17103   5.914   7.052  10.569 -0.5262  1.4388 -0.4362
  154SAPE   O2117104   6.052   6.931  10.479 -0.7641 -0.1674 -0.2186
  154SAPE   C2117105   6.005   6.813  10.492 -0.4094  0.3283 -0.4239
  154SAPE   O2217106   5.927   6.773  10.574  0.4996  0.2563 -0.1389
  154SAPE   C2217107   6.069   6.712  10.390 -0.5926  0.0936  0.5085
  154SAPE   H2R17108   6.086   6.763  10.292  2.2887 -2.4091 -0.4230
  154SAPE   H2S17109   6.164   6.681  10.437 -0.4377 -1.7426 -0.8751
  154SAPE    C317110   6.095   7.178  10.538 -0.1406  0.0960  0.6930
  154SAPE    HX17111   6.200   7.166  10.573 -0.0623  0.7528  0.7003
  154SAPE    HY17112   6.036   7.256  10.592 -0.0366  1.3390 -0.9163
  154SAPE   O3117113   6.081   7.201  10.396 -1.2130  0.3851  0.4910
  154SAPE   C3117114   6.192   7.175  10.324  0.7263 -0.0571  0.1317
  154SAPE   O3217115   6.306   7.170  10.367  0.0429 -0.2034 -0.4982
  154SAPE   C3217116   6.147   7.175  10.182 -0.0095  0.2616  0.1889
  154SAPE   H2X17117   6.060   7.243  10.172  0.4867  1.2422  2.0512
  154SAPE   H2Y17118   6.119   7.069  10.165  0.3240 -0.5935  4.0118
  154SAPE   C2317119   5.985   6.587  10.376  0.2591  0.5258  0.3617
  154SAPE   H3R17120   5.990   6.523  10.467 -1.2244  2.2870  1.7645
  154SAPE   H3S17121   6.037   6.529  10.297 -1.0835  2.7515 -2.3201
  154SAPE   C2417122   5.850   6.612  10.306  1.2582  0.7444  1.1493
  154SAPE   H4R17123   5.860   6.658  10.206  0.7334 -0.8594  0.3303
  154SAPE   H4S17124   5.779   6.685  10.351 -1.4945 -0.6953 -0.6488
  154SAPE   C2517125   5.776   6.482  10.298 -0.0328  0.2771 -0.5519
  154SAPE   H5R17126   5.697   6.468  10.373  0.2652 -0.3344 -0.3404
  154SAPE   C2617127   5.802   6.390  10.203  0.0654 -0.5148  0.9285
  154SAPE   H6R17128   5.738   6.301  10.206 -0.6475  0.0075  2.2135
  154SAPE   C2717129   5.893   6.396  10.085 -0.2997 -0.6114  0.2932
  154SAPE   H7R17130   5.937   6.296  10.069  0.5747 -0.0941 -0.6840
  154SAPE   H7S17131   5.980   6.461  10.110 -0.4393  0.6655 -2.1875
  154SAPE   C2817132   5.830   6.450   9.955  0.5265  0.5432  0.0353
  154SAPE   H8R17133   5.770   6.542   9.966  0.5032  0.5650 -0.2642
  154SAPE   C2917134   5.844   6.398   9.828 -0.0226  0.5223  0.0785
  154SAPE   H9R17135   5.799   6.446   9.740 -0.1655  1.1884  0.5077
  154SAPE  C21017136   5.934   6.277   9.795  0.0566  0.5132  0.2722
  154SAPE  H10R17137   6.026   6.284   9.857  0.9834  1.1977 -1.1437
  154SAPE  H10S17138   5.972   6.302   9.694  0.3391  2.6402  0.8583
  154SAPE  C21117139   5.874   6.140   9.799 -0.7010 -0.0810 -0.0023
  154SAPE  H11R17140   5.793   6.108   9.866 -1.1209  1.5024  0.2929
  154SAPE  C21217141   5.883   6.049   9.703 -0.2075  0.2164 -0.0336
  154SAPE  H12R17142   5.838   5.953   9.733 -1.5276  1.1020  0.9371
  154SAPE  C21317143   5.962   6.055   9.570 -0.0095 -0.4633  0.2264
  154SAPE  H13R17144   6.035   6.139   9.569 -0.7603  0.2536  1.7098
  154SAPE  H13S17145   5.900   6.065   9.479  0.5410  1.1102 -0.0140
  154SAPE  C21417146   6.028   5.925   9.551 -0.2349 -0.0740  0.1279
  154SAPE  H14R17147   6.098   5.898   9.631 -0.6806  2.8181  1.6129
  154SAPE  C21517148   6.027   5.840   9.448 -0.0444 -0.1219 -0.8347
  154SAPE  H15R17149   6.083   5.746   9.450  0.8948  0.4300 -0.5098
  154SAPE  C21617150   5.951   5.868   9.321  0.4639 -0.7085 -0.1770
  154SAPE  H16R17151   5.953   5.977   9.302 -4.4709  0.0651  2.2246
  154SAPE  H16S17152   5.842   5.846   9.328  0.4511 -0.3440  0.8016
  154SAPE  C21717153   6.024   5.795   9.205  0.3097 -0.5861 -0.0050
  154SAPE  H17R17154   6.135   5.798   9.207  0.4820 -2.9832 -1.5275
  154SAPE  H17S17155   5.997   5.842   9.108  0.6878 -2.0993 -0.8812
  154SAPE  C21817156   5.981   5.647   9.186  0.1327  0.5400 -0.5932
  154SAPE  H18R17157   5.872   5.632   9.171  0.2480 -0.3990 -0.6041
  154SAPE  H18S17158   5.983   5.602   9.288  1.2059  1.0179 -0.3962
  154SAPE  C21917159   6.078   5.567   9.089  0.1700 -0.6793  0.4605
  154SAPE  H19R17160   6.182   5.603   9.104 -0.3185  1.3788 -0.6898
  154SAPE  H19S17161   6.050   5.605   8.988  1.7485 -1.7924 -0.4434
  154SAPE  C22017162   6.062   5.418   9.095 -0.5443  0.5534 -0.1119
  154SAPE  H20R17163   6.111   5.374   9.185  0.9591 -0.5016 -1.3806
  154SAPE  H20S17164   6.127   5.382   9.012 -0.5009  0.6679 -0.1275
  154SAPE  H20T17165   5.960   5.378   9.082  0.5412 -2.8787  0.6771
  154SAPE   C3317166   6.261   7.213  10.078 -0.3321 -0.4165 -0.0420
  154SAPE   H3X17167   6.331   7.131  10.052  1.1833  1.3528 -1.8957
  154SAPE   H3Y17168   6.318   7.300  10.117  1.2882 -0.1519 -2.7214
  154SAPE   C3417169   6.211   7.269   9.948  0.1004 -0.5108 -0.9201
  154SAPE   H4X17170   6.182   7.372   9.977  0.9294 -0.6856  0.5813
  154SAPE   H4Y17171   6.128   7.205   9.909  0.2855 -1.6348  0.4523
  154SAPE   C3517172   6.316   7.285   9.831 -0.1542 -0.3894 -0.3457
  154SAPE   H5X17173   6.371   7.191   9.808  1.0031  0.1503  0.1858
  154SAPE   H5Y17174   6.384   7.358   9.879 -0.5503 -0.8139  0.8944
  154SAPE   C3617175   6.266   7.356   9.707  0.0140  0.3258 -0.3461
  154SAPE   H6X17176   6.353   7.403   9.658 -0.2487  0.4122 -0.7356
  154SAPE   H6Y17177   6.196   7.439   9.727  0.3019  0.7808 -1.2009
  154SAPE   C3717178   6.209   7.263   9.597  0.3213  0.4634  0.1892
  154SAPE   H7X17179   6.114   7.217   9.632 -0.4050  0.8158 -1.2300
  154SAPE   H7Y17180   6.272   7.173   9.584  1.6752  1.0816  2.1452
  154SAPE   C3817181   6.167   7.329   9.462 -0.1364 -0.0639 -0.0624
  154SAPE   H8X17182   6.113   7.426   9.461 -0.1580 -0.0709 -1.0200
  154SAPE   H8Y17183   6.102   7.263   9.400 -1.8663  1.0160  0.5222
  154SAPE   C3917184   6.287   7.366   9.380  0.3525  0.0019  0.6094
  154SAPE   H9X17185   6.369   7.290   9.380 -0.0047 -0.5252 -2.6178
  154SAPE   H9Y17186   6.338   7.450   9.431 -0.5221  1.7299 -1.2291
  154SAPE  C31017187   6.273   7.400   9.234 -0.0247 -0.1295 -0.0777
  154SAPE  H10X17188   6.370   7.403   9.179 -0.4232  1.2929 -0.7418
  154SAPE  H10Y17189   6.224   7.499   9.230  0.9680  0.3719 -3.5407
  154SAPE  C31117190   6.169   7.304   9.171 -0.0655 -0.5725 -0.1762
  154SAPE  H11X17191   6.068   7.297   9.218 -1.6292 -0.9205 -3.3013
  154SAPE  H11Y17192   6.205   7.201   9.190 -1.1224 -0.8932  0.1732
  154SAPE  C31217193   6.135   7.336   9.026 -0.2882 -0.0414 -0.0214
  154SAPE  H12X17194   6.055   7.273   8.982 -0.5775 -0.0132  0.4527
  154SAPE  H12Y17195   6.231   7.314   8.975 -0.1951  0.5921 -0.1292
  154SAPE  C31317196   6.103   7.479   8.987  0.8173  0.2619 -0.0348
  154SAPE  H13X17197   6.082   7.476   8.878  1.1811  0.7963 -0.1246
  154SAPE  H13Y17198   6.195   7.541   8.997  1.6884 -0.9960 -0.0075
  154SAPE  C31417199   5.986   7.533   9.057  0.2613  0.3894  0.3541
  154SAPE  H14X17200   6.021   7.558   9.160 -0.1449  2.8284 -0.0291
  154SAPE  H14Y17201   5.899   7.464   9.060 -0.0157  0.6762 -0.7441
  154SAPE  C31517202   5.944   7.677   9.001  0.0223  0.6399  0.0558
  154SAPE  H15X17203   5.913   7.661   8.896  3.4739  3.6505 -1.6530
  154SAPE  H15Y17204   6.041   7.731   8.996  0.9536 -1.0795 -2.4161
  154SAPE  C31617205   5.831   7.763   9.061 -0.6140  0.5445  0.3756
  154SAPE  H16X17206   5.735   7.719   9.025 -0.3462 -1.6037  2.0328
  154SAPE  H16Y17207   5.828   7.863   9.014  0.3325 -0.4898 -2.0792
  154SAPE  C31717208   5.837   7.792   9.214  0.5549 -0.7803 -0.4300
  154SAPE  H17X17209   5.830   7.691   9.261  0.8675 -0.9692 -0.7781
  154SAPE  H17Y17210   5.752   7.862   9.227  0.6976 -0.3307 -1.7253
  154SAPE  C31817211   5.962   7.860   9.261 -0.5304  0.3891  0.1255
  154SAPE  H18X17212   6.046   7.787   9.256  0.4405  1.5453 -1.0672
  154SAPE  H18Y17213   5.964   7.890   9.368 -0.6358 -3.0028  1.1882
  154SAPE  H18Z17214   5.986   7.942   9.190 -1.7752 -2.0746 -3.4124
  155SAPE     N17215   5.428   2.803  10.745  0.2342  0.3249  0.3261
  155SAPE   HN117216   5.455   2.761  10.654  1.3186 -0.1539  0.8354
  155SAPE   HN217217   5.515   2.786  10.800 -0.1766 -0.1337  0.8471
  155SAPE   HN317218   5.352   2.748  10.790  0.3111  0.2629  0.3810
  155SAPE   C1217219   5.396   2.947  10.748 -0.0502  0.3435  0.4552
  155SAPE  H12A17220   5.295   2.947  10.704 -1.3473  0.3918  3.1950
  155SAPE  H12B17221   5.467   3.010  10.691 -1.7166 -0.2617 -2.5138
  155SAPE   C1117222   5.392   3.002  10.890 -0.3794  0.4350 -0.8131
  155SAPE  H11A17223   5.480   2.977  10.953 -2.9630 -1.7529  2.2519
  155SAPE  H11B17224   5.313   2.947  10.945 -0.6907  0.6639 -1.0227
  155SAPE     P17225   5.213   3.196  10.888 -0.5019 -0.0223  0.2998
  155SAPE   O1317226   5.126   3.121  10.984  0.0152 -0.0227 -0.2488
  155SAPE   O1417227   5.213   3.346  10.903 -0.0627 -0.0290  0.6335
  155SAPE   O1217228   5.357   3.140  10.895 -0.4540 -0.5091  0.4225
  155SAPE   O1117229   5.169   3.161  10.747  0.1113  0.1806  0.3834
  155SAPE    C117230   5.171   3.247  10.638  0.1612 -0.4278  0.5107
  155SAPE    HA17231   5.083   3.315  10.644 -0.2117 -0.8644  0.0087
  155SAPE    HB17232   5.267   3.302  10.625 -0.2774 -0.1692 -2.2126
  155SAPE    C217233   5.143   3.178  10.501  0.5464 -1.2305  0.2030
  155SAPE    HS17234   5.035   3.151  10.506 -0.2710  1.6397 -0.2120
  155SAPE   O2117235   5.230   3.063  10.489  0.2663  0.2856  0.5404
  155SAPE   C2117236   5.193   2.975  10.402  0.2431  0.1294  0.3313
  155SAPE   O2217237   5.076   2.955  10.370 -0.1760  0.3337  0.0034
  155SAPE   C2217238   5.315   2.882  10.369  1.0754 -0.4594 -0.4027
  155SAPE   H2R17239   5.402   2.951  10.369  0.4011  0.4693  1.6704
  155SAPE   H2S17240   5.341   2.814  10.452  2.9372  0.9039  0.1923
  155SAPE    C317241   5.159   3.273  10.379  0.1367 -0.1396  0.2534
  155SAPE    HX17242   5.264   3.309  10.379  1.2570 -3.0594  1.9939
  155SAPE    HY17243   5.095   3.364  10.385 -0.3121 -0.0475 -3.3917
  155SAPE   O3117244   5.134   3.214  10.250  0.0619  0.0083  0.3391
  155SAPE   C3117245   5.026   3.251  10.178 -0.6242 -1.3559 -0.2272
  155SAPE   O3217246   4.935   3.324  10.220 -1.0902  0.7507  0.2821
  155SAPE   C3217247   5.042   3.184  10.045  0.0862  0.6128 -0.3726
  155SAPE   H2X17248   5.079   3.083  10.075 -3.4856 -0.6834  0.0648
  155SAPE   H2Y17249   5.110   3.230   9.969  1.6844 -2.7813 -1.1935
  155SAPE   C2317250   5.290   2.809  10.242 -0.2891 -0.1461 -0.3321
  155SAPE   H3R17251   5.199   2.836  10.185 -0.7884 -0.7567  0.1536
  155SAPE   H3S17252   5.278   2.701  10.268  0.4493  0.2720  1.9276
  155SAPE   C2417253   5.413   2.820  10.158  0.0018 -0.2667 -0.3603
  155SAPE   H4R17254   5.414   2.727  10.096  1.8071  0.4006 -1.4100
  155SAPE   H4S17255   5.507   2.822  10.216 -1.5227 -3.4464  2.5508
  155SAPE   C2517256   5.392   2.950  10.084 -0.1085 -0.3770 -0.3079
  155SAPE   H5R17257   5.408   3.036  10.152 -1.1993 -0.1006 -0.3791
  155SAPE   C2617258   5.352   2.965   9.960 -0.3411  0.2833 -0.0848
  155SAPE   H6R17259   5.333   3.065   9.920 -1.5694  0.6116  1.2503
  155SAPE   C2717260   5.322   2.848   9.864 -0.4592 -0.1041 -0.3206
  155SAPE   H7R17261   5.233   2.881   9.806  0.7349  1.2908 -1.4410
  155SAPE   H7S17262   5.300   2.759   9.927  1.4479 -0.4271 -0.0563
  155SAPE   C2817263   5.439   2.811   9.772 -0.0894 -0.2907 -0.2262
  155SAPE   H8R17264   5.515   2.745   9.816  2.6393  1.6756 -1.6418
  155SAPE   C2917265   5.443   2.841   9.638  0.9334  0.4315  0.0844
  155SAPE   H9R17266   5.522   2.798   9.575  0.3165 -1.2047  0.3727
  155SAPE  C21017267   5.336   2.929   9.573  0.0829  0.2958  0.2976
  155SAPE  H10R17268   5.267   2.971   9.648  0.4284  1.3798  0.0236
  155SAPE  H10S17269   5.281   2.857   9.508  1.4133 -0.5688  0.0799
  155SAPE  C21117270   5.374   3.038   9.481  0.1889 -0.3649  0.0720
  155SAPE  H11R17271   5.389   3.009   9.376 -0.3113 -0.6521  0.0789
  155SAPE  C21217272   5.391   3.172   9.508 -0.0867 -0.1409  0.4120
  155SAPE  H12R17273   5.428   3.239   9.430 -0.3315  1.0954  1.3227
  155SAPE  C21317274   5.356   3.237   9.640  0.0255  0.4643 -0.6297
  155SAPE  H13R17275   5.300   3.168   9.706  3.6054 -1.9039  0.2172
  155SAPE  H13S17276   5.290   3.325   9.631 -0.3842  0.1346 -0.8864
  155SAPE  C21417277   5.481   3.267   9.712  0.3416 -0.2183  0.8527
  155SAPE  H14R17278   5.525   3.184   9.769  1.9580  0.4273  0.6081
  155SAPE  C21517279   5.538   3.390   9.715  0.2727 -0.2841  0.4424
  155SAPE  H15R17280   5.626   3.397   9.781 -0.7425 -1.0948  1.9378
  155SAPE  C21617281   5.492   3.516   9.653 -0.2521  0.0051  0.2243
  155SAPE  H16R17282   5.401   3.492   9.595  0.1413 -0.3098 -0.2762
  155SAPE  H16S17283   5.564   3.557   9.579 -1.2213 -1.5486 -1.6596
  155SAPE  C21717284   5.453   3.618   9.768 -0.8971  0.0369  0.3294
  155SAPE  H17R17285   5.537   3.646   9.835 -1.9854  0.3116  1.6010
  155SAPE  H17S17286   5.374   3.567   9.827  0.9710 -0.9265  2.1207
  155SAPE  C21817287   5.410   3.744   9.703  0.1657 -0.8706  0.6664
  155SAPE  H18R17288   5.319   3.727   9.642  0.1379  0.5757  0.2739
  155SAPE  H18S17289   5.497   3.786   9.647 -0.8680 -0.6890 -0.8868
  155SAPE  C21917290   5.367   3.855   9.806 -0.7669  0.2285  0.2348
  155SAPE  H19R17291   5.464   3.893   9.845  0.7703 -1.6087 -1.5956
  155SAPE  H19S17292   5.307   3.809   9.888  1.0422 -2.3392  0.2460
  155SAPE  C22017293   5.292   3.976   9.743 -0.6136 -0.6320  0.9890
  155SAPE  H20R17294   5.223   4.015   9.821 -2.2553 -0.0495 -0.6897
  155SAPE  H20S17295   5.224   3.931   9.668  1.0336 -4.0883  1.3640
  155SAPE  H20T17296   5.352   4.060   9.701 -3.4379  1.2980  0.5504
  155SAPE   C3317297   4.900   3.167   9.974  0.6417 -0.0313 -0.6775
  155SAPE   H3X17298   4.850   3.266   9.974  0.1357 -0.2808  0.1679
  155SAPE   H3Y17299   4.846   3.105  10.049  1.4352 -0.8184 -0.7376
  155SAPE   C3417300   4.918   3.095   9.840 -0.2647  0.9686 -0.4806
  155SAPE   H4X17301   4.819   3.045   9.825  0.4487 -0.6767  0.0282
  155SAPE   H4Y17302   4.994   3.015   9.832  0.5750  1.7945 -0.8505
  155SAPE   C3517303   4.943   3.181   9.723 -0.0557 -0.0120  0.3486
  155SAPE   H5X17304   5.049   3.214   9.719  0.3420 -1.4372 -1.7457
  155SAPE   H5Y17305   4.872   3.267   9.736 -1.5259 -0.9883 -0.8546
  155SAPE   C3617306   4.896   3.124   9.586  0.0364  0.1307 -0.5625
  155SAPE   H6X17307   4.911   3.217   9.527 -0.7817  1.1168  0.7391
  155SAPE   H6Y17308   4.787   3.105   9.589  0.3624 -2.3148 -1.6923
  155SAPE   C3717309   4.979   3.006   9.532  0.1360 -0.4254 -0.0224
  155SAPE   H7X17310   4.966   2.923   9.605  1.2421 -2.2168 -1.7475
  155SAPE   H7Y17311   5.086   3.024   9.508 -0.6354  0.7289 -3.1222
  155SAPE   C3817312   4.926   2.950   9.401  0.2390  1.1150 -0.1139
  155SAPE   H8X17313   4.934   3.017   9.313 -1.1499 -1.0211 -2.0045
  155SAPE   H8Y17314   4.817   2.933   9.420  0.7616 -2.1931  0.5814
  155SAPE   C3917315   4.993   2.817   9.373  0.0883  0.2411  0.2167
  155SAPE   H9X17316   4.982   2.747   9.458 -0.3906 -1.6869 -1.3563
  155SAPE   H9Y17317   5.102   2.840   9.375  0.4105 -0.9574 -1.5288
  155SAPE  C31017318   4.950   2.740   9.239  0.1473  0.7181 -0.2494
  155SAPE  H10X17319   4.845   2.704   9.239 -0.1514  1.5492 -1.2038
  155SAPE  H10Y17320   5.017   2.651   9.236  0.1757  0.7125  0.3807
  155SAPE  C31117321   4.950   2.827   9.111 -0.0688  0.0546 -0.5681
  155SAPE  H11X17322   5.042   2.888   9.101 -0.9043  1.5155  0.4003
  155SAPE  H11Y17323   4.867   2.900   9.119  1.2540  1.7809 -1.8629
  155SAPE  C31217324   4.943   2.741   8.983 -0.0345 -0.1777  0.3360
  155SAPE  H12X17325   5.046   2.700   8.972  0.6339  1.7189 -0.8607
  155SAPE  H12Y17326   4.925   2.807   8.896 -1.7748 -0.9998  0.0139
  155SAPE  C31317327   4.836   2.632   8.973  0.0937 -0.7712 -0.6196
  155SAPE  H13X17328   4.743   2.692   8.987  0.7456 -0.0157  0.6052
  155SAPE  H13Y17329   4.844   2.561   9.058  2.3524 -0.1266 -0.2409
  155SAPE  C31417330   4.840   2.553   8.843  0.1793  0.6683  0.6956
  155SAPE  H14X17331   4.835   2.446   8.872  1.0963  0.7350  1.1291
  155SAPE  H14Y17332   4.936   2.572   8.790 -0.3212 -0.5457 -0.7253
  155SAPE  C31517333   4.731   2.600   8.738 -0.1020 -0.3779 -0.3572
  155SAPE  H15X17334   4.749   2.543   8.645  1.9560 -1.2169  0.5039
  155SAPE  H15Y17335   4.740   2.711   8.732  0.0514 -0.3511  0.2785
  155SAPE  C31617336   4.587   2.566   8.791 -0.0437  0.3964  0.2523
  155SAPE  H16X17337   4.596   2.594   8.899 -0.0317 -0.5808  0.5128
  155SAPE  H16Y17338   4.567   2.457   8.783 -1.6198  0.7671 -1.3926
  155SAPE  C31717339   4.472   2.632   8.712  0.2115 -0.6082  0.5187
  155SAPE  H17X17340   4.502   2.730   8.669 -1.2133 -0.3417  0.0949
  155SAPE  H17Y17341   4.383   2.644   8.776  1.5027  0.4784  2.2058
  155SAPE  C31817342   4.450   2.543   8.588  0.4602  0.2373  0.4140
  155SAPE  H18X17343   4.435   2.436   8.612  0.5053  0.1685  0.1294
  155SAPE  H18Y17344   4.540   2.546   8.523  0.4287  1.5615  0.4021
  155SAPE  H18Z17345   4.357   2.570   8.534  1.0859 -0.2200 -0.9241
  156SAPE     N17346   1.534   2.615  10.815  0.4047 -0.2633 -0.8137
  156SAPE   HN117347   1.546   2.719  10.814  0.5221 -0.2774 -0.8981
  156SAPE   HN217348   1.484   2.584  10.901  0.9058  2.2164  0.4934
  156SAPE   HN317349   1.629   2.572  10.815  0.2197 -0.7339  0.8080
  156SAPE   C1217350   1.475   2.570  10.685  0.6705 -0.7962  0.0127
  156SAPE  H12A17351   1.418   2.657  10.648  0.0430 -1.1863  0.0482
  156SAPE  H12B17352   1.399   2.490  10.695 -0.0370 -0.6425 -3.0266
  156SAPE   C1117353   1.584   2.536  10.582 -0.3642  0.5732  0.7281
  156SAPE  H11A17354   1.647   2.616  10.537 -1.1303 -0.2750 -2.0432
  156SAPE  H11B17355   1.547   2.497  10.485  2.6601 -0.2999 -0.1775
  156SAPE     P17356   1.801   2.454  10.703 -0.2079  0.4602 -0.0930
  156SAPE   O1317357   1.789   2.566  10.802  0.5489  0.6455 -0.6290
  156SAPE   O1417358   1.849   2.320  10.744  0.3089  0.3508 -0.3753
  156SAPE   O1217359   1.666   2.429  10.635  0.3756  0.1257  0.2979
  156SAPE   O1117360   1.885   2.489  10.573  0.3125 -0.5155  0.2635
  156SAPE    C117361   1.898   2.417  10.451  0.1363 -1.0344  0.4848
  156SAPE    HA17362   1.967   2.330  10.457  2.8140  0.8893 -0.2719
  156SAPE    HB17363   1.801   2.379  10.412  0.1591  0.5770 -1.2512
  156SAPE    C217364   1.963   2.509  10.344  0.8170 -0.9930  0.2963
  156SAPE    HS17365   1.983   2.444  10.257 -0.1021  0.0614 -0.7414
  156SAPE   O2117366   2.085   2.571  10.403  0.3838 -0.1760  0.3612
  156SAPE   C2117367   2.180   2.484  10.416 -0.4880 -0.0416  0.7052
  156SAPE   O2217368   2.180   2.372  10.356  0.0378  0.2506  0.2589
  156SAPE   C2217369   2.291   2.541  10.498  0.2163  0.3890  0.6615
  156SAPE   H2R17370   2.287   2.651  10.514 -2.2273  0.2856  1.1419
  156SAPE   H2S17371   2.300   2.493  10.598 -0.5878  1.2459  1.1572
  156SAPE    C317372   1.868   2.627  10.304 -0.8244  0.0019  0.4275
  156SAPE    HX17373   1.873   2.700  10.387 -0.1215 -0.1259  0.5042
  156SAPE    HY17374   1.763   2.593  10.293 -1.2134  1.0404  0.8381
  156SAPE   O3117375   1.917   2.678  10.173  0.2955  0.8703 -0.1925
  156SAPE   C3117376   2.009   2.768  10.174  1.1093 -0.0544 -0.3734
  156SAPE   O3217377   2.039   2.840  10.265 -0.2286 -1.1179  0.1575
  156SAPE   C3217378   2.089   2.762  10.038 -0.3812  0.1249 -0.2059
  156SAPE   H2X17379   2.178   2.702  10.067 -2.3382 -1.5420  2.9169
  156SAPE   H2Y17380   2.119   2.866  10.012  2.1852 -0.4502  0.1660
  156SAPE   C2317381   2.423   2.523  10.413  0.1931  0.0922 -0.0831
  156SAPE   H3R17382   2.419   2.429  10.353 -1.8151  0.8980 -1.3336
  156SAPE   H3S17383   2.503   2.529  10.489  1.5498  0.6320 -1.5030
  156SAPE   C2417384   2.443   2.640  10.310  0.2283  0.2225  0.2795
  156SAPE   H4R17385   2.433   2.736  10.366  0.8712  1.6592 -1.9136
  156SAPE   H4S17386   2.357   2.636  10.240  1.6290  2.7594 -1.7887
  156SAPE   C2517387   2.579   2.629  10.251  0.4802 -0.4689  0.5620
  156SAPE   H5R17388   2.659   2.622  10.325  0.3635 -0.2983  0.7037
  156SAPE   C2617389   2.597   2.611  10.120 -0.4509  0.3256 -0.1333
  156SAPE   H6R17390   2.702   2.620  10.091 -0.8015  2.0759 -1.0309
  156SAPE   C2717391   2.492   2.611  10.013 -0.3435  0.5946 -0.8061
  156SAPE   H7R17392   2.407   2.552  10.055  0.0453  1.3796  1.2236
  156SAPE   H7S17393   2.538   2.550   9.933  1.6345  1.0919 -0.0933
  156SAPE   C2817394   2.472   2.751   9.956  0.4003 -0.1872 -0.4663
  156SAPE   H8R17395   2.459   2.831  10.031  0.7379 -0.1770 -0.4179
  156SAPE   C2917396   2.469   2.790   9.828  0.3490 -0.2186  0.5060
  156SAPE   H9R17397   2.441   2.894   9.806 -1.0419 -0.9266 -1.4422
  156SAPE  C21017398   2.478   2.706   9.706 -0.3052  0.5686 -0.0152
  156SAPE  H10R17399   2.457   2.602   9.739  1.3983  0.4577  0.8277
  156SAPE  H10S17400   2.584   2.720   9.677  0.8046 -2.7557  1.8885
  156SAPE  C21117401   2.386   2.739   9.593  0.3501 -0.1400 -0.6588
  156SAPE  H11R17402   2.298   2.796   9.625 -0.2228 -0.9906 -0.6949
  156SAPE  C21217403   2.407   2.712   9.462  0.2008  0.1741  0.2138
  156SAPE  H12R17404   2.332   2.754   9.393  0.5937  3.3342  1.5158
  156SAPE  C21317405   2.514   2.626   9.409  0.1549 -0.4525  0.2184
  156SAPE  H13R17406   2.579   2.581   9.487 -0.1045 -0.3919  0.4694
  156SAPE  H13S17407   2.584   2.685   9.346 -0.2679  0.2652  0.4047
  156SAPE  C21417408   2.460   2.513   9.328 -0.7192  0.7921  0.4400
  156SAPE  H14R17409   2.438   2.417   9.377  0.1731  0.2047 -0.2930
  156SAPE  C21517410   2.415   2.522   9.200  0.2219 -1.0326 -0.3591
  156SAPE  H15R17411   2.371   2.438   9.145 -1.4020  0.2192 -1.0885
  156SAPE  C21617412   2.406   2.658   9.136  0.4921 -0.3377 -0.1759
  156SAPE  H16R17413   2.459   2.739   9.192 -1.2542 -0.0280  1.1236
  156SAPE  H16S17414   2.308   2.702   9.108  2.2262  3.3828 -1.0374
  156SAPE  C21717415   2.492   2.678   9.005  0.3479 -0.0658  0.4334
  156SAPE  H17R17416   2.458   2.604   8.931  2.0391 -0.4544 -0.0096
  156SAPE  H17S17417   2.599   2.647   9.015  0.8127  0.1353 -2.9050
  156SAPE  C21817418   2.477   2.818   8.945  0.3381  0.3711  0.0423
  156SAPE  H18R17419   2.520   2.884   9.024  0.9206 -0.0171  0.0563
  156SAPE  H18S17420   2.369   2.840   8.926  0.6231 -0.6111 -3.2164
  156SAPE  C21917421   2.565   2.840   8.824  0.6418 -0.1236  0.1318
  156SAPE  H19R17422   2.544   2.755   8.756 -1.7899 -0.7943  1.6230
  156SAPE  H19S17423   2.675   2.845   8.839  0.4062  1.3275  1.7565
  156SAPE  C22017424   2.518   2.963   8.752 -0.2489 -0.3923 -0.2752
  156SAPE  H20R17425   2.557   3.061   8.787  0.0933 -0.1050 -1.4060
  156SAPE  H20S17426   2.407   2.973   8.753 -0.2004  0.2004 -0.3574
  156SAPE  H20T17427   2.550   2.956   8.646  0.0866  0.3142 -0.2293
  156SAPE   C3317428   2.015   2.691   9.920  0.4218  0.2367 -0.8463
  156SAPE   H3X17429   1.908   2.721   9.912  0.1523  0.0822  1.3885
  156SAPE   H3Y17430   2.018   2.581   9.937 -1.6438  0.3916  1.1595
  156SAPE   C3417431   2.083   2.724   9.781 -0.1036  0.4101  0.2298
  156SAPE   H4X17432   2.193   2.722   9.796 -0.0047  4.0925  0.9189
  156SAPE   H4Y17433   2.039   2.820   9.749 -0.4903  0.0924 -0.2003
  156SAPE   C3517434   2.040   2.619   9.668 -0.8499 -0.3551  0.7577
  156SAPE   H5X17435   2.019   2.515   9.699  0.2778 -0.6951  0.4227
  156SAPE   H5Y17436   2.123   2.616   9.594 -1.6674  1.7633 -0.3569
  156SAPE   C3617437   1.915   2.666   9.603 -0.0793  0.6059 -1.2233
  156SAPE   H6X17438   1.928   2.773   9.576 -1.7693  1.2921  0.4809
  156SAPE   H6Y17439   1.834   2.645   9.676  0.5184 -0.8827 -0.9600
  156SAPE   C3717440   1.892   2.597   9.467  0.5234  0.2277 -0.1052
  156SAPE   H7X17441   1.787   2.618   9.440  0.0452 -0.3756  1.1894
  156SAPE   H7Y17442   1.909   2.489   9.488  1.0556  0.4963  0.9322
  156SAPE   C3817443   1.982   2.642   9.361 -0.2414  0.5766  0.3062
  156SAPE   H8X17444   2.088   2.621   9.387 -0.6988 -0.0409  1.7245
  156SAPE   H8Y17445   1.967   2.752   9.349  0.8880  0.5297 -2.4008
  156SAPE   C3917446   1.939   2.570   9.232  1.2399 -0.2327  0.1734
  156SAPE   H9X17447   1.847   2.622   9.199  0.7625 -0.1710  1.5433
  156SAPE   H9Y17448   1.912   2.467   9.263  1.3879 -0.4332 -0.3549
  156SAPE  C31017449   2.019   2.582   9.107 -0.3366 -0.0469  0.0041
  156SAPE  H10X17450   2.125   2.557   9.127 -0.8201 -1.9641  0.4575
  156SAPE  H10Y17451   2.003   2.687   9.077  2.3443  0.1522 -0.9351
  156SAPE  C31117452   1.964   2.487   9.004  0.0558 -0.7107 -0.2320
  156SAPE  H11X17453   1.855   2.506   8.991  0.2426  0.0717 -0.7769
  156SAPE  H11Y17454   1.969   2.382   9.039  0.9060 -0.9802 -1.0936
  156SAPE  C31217455   2.024   2.492   8.862  0.0130  0.1890  0.4834
  156SAPE  H12X17456   1.970   2.559   8.792 -0.7839 -2.3430 -1.4692
  156SAPE  H12Y17457   1.986   2.391   8.836 -1.7550  1.1069 -0.6785
  156SAPE  C31317458   2.176   2.514   8.851  0.4910  1.3385 -0.4915
  156SAPE  H13X17459   2.220   2.569   8.937 -0.0725 -1.0020  1.4267
  156SAPE  H13Y17460   2.187   2.573   8.758  1.4600  1.8456 -0.0764
  156SAPE  C31417461   2.264   2.384   8.857 -0.1315 -0.0001  1.2125
  156SAPE  H14X17462   2.250   2.332   8.954 -1.3145 -1.2454  0.4082
  156SAPE  H14Y17463   2.370   2.416   8.850 -0.2899  0.1259 -1.2029
  156SAPE  C31517464   2.231   2.290   8.739  0.0530 -0.6516  0.2439
  156SAPE  H15X17465   2.201   2.356   8.655  1.7415 -0.3596 -0.1662
  156SAPE  H15Y17466   2.152   2.216   8.764 -1.2679  1.3783  2.4730
  156SAPE  C31617467   2.351   2.213   8.679 -0.2916  0.4700  0.3212
  156SAPE  H16X17468   2.375   2.129   8.747 -1.2026 -0.5852 -0.6261
  156SAPE  H16Y17469   2.446   2.271   8.674 -0.3926  0.6466  0.4431
  156SAPE  C31717470   2.318   2.168   8.541 -0.4355 -0.1350  0.3242
  156SAPE  H17X17471   2.270   2.243   8.475 -1.6040 -0.8281  0.3571
  156SAPE  H17Y17472   2.245   2.085   8.542  0.9703 -1.4207  2.2448
  156SAPE  C31817473   2.456   2.121   8.481 -0.5225  0.2194 -0.5607
  156SAPE  H18X17474   2.528   2.202   8.457 -0.4403  0.1672 -0.4903
  156SAPE  H18Y17475   2.432   2.071   8.384 -3.1767  1.4895 -0.6465
  156SAPE  H18Z17476   2.505   2.054   8.554 -0.1964  1.5519  0.4766
  157SAPE     N17477   0.697   4.298  10.811  0.8461 -0.6342  0.0771
  157SAPE   HN117478   0.658   4.250  10.727 -0.0999 -0.8486  0.6277
  157SAPE   HN217479   0.624   4.314  10.883  0.2928  0.1739 -0.6266
  157SAPE   HN317480   0.716   4.394  10.776  0.6413 -0.4117  0.5680
  157SAPE   C1217481   0.808   4.214  10.862  0.4741  0.3836 -0.5129
  157SAPE  H12A17482   0.756   4.123  10.898  1.8332 -0.1405  0.1720
  157SAPE  H12B17483   0.853   4.264  10.950 -0.0310 -0.8337  0.4756
  157SAPE   C1117484   0.910   4.185  10.746 -0.1923 -0.3035 -0.0200
  157SAPE  H11A17485   0.872   4.120  10.665  0.3833 -1.7992  0.8735
  157SAPE  H11B17486   0.992   4.129  10.796 -1.8557 -1.2144  1.7772
  157SAPE     P17487   1.107   4.362  10.741  0.3153  0.0420  0.5039
  157SAPE   O1317488   1.132   4.487  10.668  0.0770 -0.1145 -0.3320
  157SAPE   O1417489   1.102   4.366  10.888  0.3305  0.0369 -0.2816
  157SAPE   O1217490   0.967   4.307  10.687 -0.4453  0.3447 -0.2346
  157SAPE   O1117491   1.211   4.256  10.699 -0.1243  0.7866  0.4750
  157SAPE    C117492   1.205   4.170  10.587 -0.2250 -0.0086 -0.1293
  157SAPE    HA17493   1.245   4.069  10.613 -1.0738 -0.7337 -1.5042
  157SAPE    HB17494   1.100   4.155  10.554 -0.7751  2.4355  0.3865
  157SAPE    C217495   1.305   4.209  10.482 -1.0740 -0.9806  0.1631
  157SAPE    HS17496   1.395   4.247  10.536 -1.9390 -0.1100  1.0354
  157SAPE   O2117497   1.258   4.323  10.404 -0.5014 -0.4071  0.2575
  157SAPE   C2117498   1.347   4.379  10.334 -0.6302  0.2418 -0.5713
  157SAPE   O2217499   1.466   4.349  10.322 -0.3658 -0.2672  0.6722
  157SAPE   C2217500   1.281   4.510  10.284  0.6524  0.2724 -0.0054
  157SAPE   H2R17501   1.182   4.490  10.238  1.2054 -0.1474 -1.0662
  157SAPE   H2S17502   1.266   4.570  10.376  0.6562 -0.9111  0.7992
  157SAPE    C317503   1.342   4.087  10.384  0.5366  0.5635  0.0393
  157SAPE    HX17504   1.390   4.023  10.461  0.1077  1.5002  1.1042
  157SAPE    HY17505   1.424   4.096  10.310  1.1648 -1.4839  0.4147
  157SAPE   O3117506   1.225   4.027  10.322 -0.5756 -0.5983  0.8456
  157SAPE   C3117507   1.185   4.081  10.209  0.0040 -0.2280 -0.2545
  157SAPE   O3217508   1.245   4.166  10.147  0.1362 -0.2451 -0.0625
  157SAPE   C3217509   1.052   4.022  10.152 -0.0825 -0.5155 -0.2755
  157SAPE   H2X17510   0.983   4.059  10.231 -0.5045  1.2253 -1.4208
  157SAPE   H2Y17511   1.042   3.913  10.168  0.6832 -0.4532  0.7351
  157SAPE   C2317512   1.372   4.597  10.192 -0.6198  0.0239 -0.0464
  157SAPE   H3R17513   1.478   4.605  10.226 -0.8120  1.6385  0.2679
  157SAPE   H3S17514   1.332   4.700  10.205 -0.8976  0.4488 -3.2528
  157SAPE   C2417515   1.361   4.566  10.046 -0.6029 -0.1160 -0.6041
  157SAPE   H4R17516   1.252   4.550  10.034 -0.5165 -0.8141 -0.5225
  157SAPE   H4S17517   1.414   4.469  10.032  0.4589  0.0509  1.7847
  157SAPE   C2517518   1.395   4.675   9.945 -0.3440  0.2312 -0.3879
  157SAPE   H5R17519   1.310   4.740   9.920 -0.2790  1.2192  1.7211
  157SAPE   C2617520   1.507   4.691   9.875 -0.4512  0.8195 -0.1539
  157SAPE   H6R17521   1.505   4.773   9.802  1.0745  0.8020 -0.2587
  157SAPE   C2717522   1.627   4.593   9.884  0.4223 -0.8969  0.2194
  157SAPE   H7R17523   1.683   4.613   9.789 -0.5918  0.0892 -0.1890
  157SAPE   H7S17524   1.600   4.487   9.866 -0.2757 -0.8364  0.9045
  157SAPE   C2817525   1.718   4.595  10.010  0.3678 -0.2428 -0.1494
  157SAPE   H8R17526   1.680   4.655  10.094 -0.4456 -2.4467  1.1588
  157SAPE   C2917527   1.839   4.535  10.005  0.3206  0.0936  0.3597
  157SAPE   H9R17528   1.902   4.533  10.095 -0.7357  0.2410  1.1229
  157SAPE  C21017529   1.890   4.460   9.887  0.1883  0.0345  0.5562
  157SAPE  H10R17530   1.886   4.535   9.806  0.6108 -1.3133 -0.7550
  157SAPE  H10S17531   1.815   4.381   9.864  0.5406 -0.3871  0.8239
  157SAPE  C21117532   2.025   4.399   9.894 -0.5801 -0.7141 -0.2227
  157SAPE  H11R17533   2.075   4.402   9.992 -1.1781  0.0389  0.0743
  157SAPE  C21217534   2.088   4.346   9.793 -0.1609  0.3830 -0.0593
  157SAPE  H12R17535   2.188   4.310   9.823 -0.7896 -1.8705 -0.4884
  157SAPE  C21317536   2.044   4.329   9.646  0.4946 -0.2128 -0.1746
  157SAPE  H13R17537   2.131   4.341   9.578  0.7444 -0.1230  0.1582
  157SAPE  H13S17538   1.972   4.408   9.617  0.2470 -0.2525  0.3300
  157SAPE  C21417539   1.976   4.192   9.637 -0.7040 -0.1913  0.8703
  157SAPE  H14R17540   1.938   4.145   9.729 -1.7731  0.9375  1.0288
  157SAPE  C21517541   1.971   4.128   9.516 -0.9613  0.4827 -0.6736
  157SAPE  H15R17542   1.904   4.040   9.512 -1.1825  0.3011  3.1995
  157SAPE  C21617543   2.030   4.186   9.393  0.6505 -0.1904 -0.0636
  157SAPE  H16R17544   2.124   4.241   9.415  0.1292  0.4222  0.6856
  157SAPE  H16S17545   1.961   4.267   9.362 -1.2056 -0.6449  2.5549
  157SAPE  C21717546   2.060   4.092   9.267  1.3083 -0.4020  0.3405
  157SAPE  H17R17547   1.960   4.057   9.233  1.4750 -1.1090  0.5583
  157SAPE  H17S17548   2.126   4.009   9.301  1.6494 -0.0899  0.4462
  157SAPE  C21817549   2.136   4.166   9.154  0.6132 -0.9115 -0.2000
  157SAPE  H18R17550   2.234   4.198   9.197 -0.1830  0.6095  0.5428
  157SAPE  H18S17551   2.082   4.260   9.130 -1.2814 -2.3365 -1.8939
  157SAPE  C21917552   2.160   4.097   9.024  0.4946  0.2929  0.5227
  157SAPE  H19R17553   2.237   4.017   9.037 -2.8127 -2.7127  4.3835
  157SAPE  H19S17554   2.199   4.166   8.946  0.1003 -0.3624 -0.2679
  157SAPE  C22017555   2.035   4.025   8.970 -0.7564  0.1421 -1.1448
  157SAPE  H20R17556   2.058   3.958   8.884 -0.6092  0.4376 -1.3391
  157SAPE  H20S17557   1.965   4.105   8.935  0.2227  2.3348  1.5729
  157SAPE  H20T17558   1.982   3.974   9.053 -0.4962  1.4592 -0.1450
  157SAPE   C3317559   1.011   4.068  10.012  1.5209 -0.1583  0.4761
  157SAPE   H3X17560   1.092   4.056   9.937  1.8447 -0.6730  0.8897
  157SAPE   H3Y17561   0.991   4.177  10.017 -1.8964 -0.6044 -0.9683
  157SAPE   C3417562   0.880   4.003   9.964  0.0537 -0.7117 -0.6694
  157SAPE   H4X17563   0.806   4.017  10.045  1.9054 -1.4999  1.2375
  157SAPE   H4Y17564   0.884   3.893   9.949 -3.0642 -1.1692  1.0253
  157SAPE   C3517565   0.842   4.044   9.821  0.7264 -0.4125  0.1002
  157SAPE   H5X17566   0.915   4.004   9.747  1.1307 -2.8679  1.7098
  157SAPE   H5Y17567   0.842   4.155   9.822 -1.7817 -0.3244 -1.0817
  157SAPE   C3617568   0.700   3.999   9.785 -0.7332  0.6124 -0.4460
  157SAPE   H6X17569   0.622   4.036   9.855 -1.0197 -1.4589  0.4150
  157SAPE   H6Y17570   0.698   3.888   9.792  0.8514  0.6705  2.0077
  157SAPE   C3717571   0.656   4.046   9.640  0.2823  0.1891  0.1047
  157SAPE   H7X17572   0.720   3.998   9.562  0.7632 -1.1002  1.2607
  157SAPE   H7Y17573   0.662   4.156   9.632  1.0622  0.1562  0.2208
  157SAPE   C3817574   0.518   3.988   9.610  0.6388 -0.0564  0.7432
  157SAPE   H8X17575   0.446   4.021   9.688 -0.5986  0.0920 -0.4346
  157SAPE   H8Y17576   0.521   3.877   9.618  0.4084 -0.1925 -0.7419
  157SAPE   C3917577   0.452   4.034   9.480 -0.2942 -0.3783  0.2352
  157SAPE   H9X17578   0.493   4.136   9.469 -0.6964 -0.0950  1.2259
  157SAPE   H9Y17579   0.342   4.051   9.482 -0.0527  1.3263  1.3009
  157SAPE  C31017580   0.480   3.957   9.349  0.0942 -0.1691  0.5787
  157SAPE  H10X17581   0.452   3.850   9.356  1.9949 -0.6353  1.8383
  157SAPE  H10Y17582   0.591   3.964   9.341  0.1752 -1.5499  0.2300
  157SAPE  C31117583   0.402   4.024   9.235 -0.6389  0.3236  0.3383
  157SAPE  H11X17584   0.453   4.121   9.217 -1.3968  0.8833  1.1433
  157SAPE  H11Y17585   0.296   4.036   9.266 -0.5426  0.3867  0.6508
  157SAPE  C31217586   0.420   3.934   9.114 -0.1123 -0.3839  0.9200
  157SAPE  H12X17587   0.389   3.833   9.149  0.0176 -0.2329  1.4772
  157SAPE  H12Y17588   0.526   3.919   9.084  0.7425  3.2603  1.6025
  157SAPE  C31317589   0.339   3.976   8.987 -0.1631  0.0668 -0.8012
  157SAPE  H13X17590   0.382   3.920   8.901  0.6917 -0.6266  0.0600
  157SAPE  H13Y17591   0.367   4.083   8.972  1.0955  0.0634  1.1377
  157SAPE  C31417592   0.190   3.958   8.997 -0.0623 -0.1936  0.0351
  157SAPE  H14X17593   0.153   4.037   9.067 -3.3980 -1.5064 -0.0628
  157SAPE  H14Y17594   0.176   3.854   9.033  0.5764 -0.1693  0.3764
  157SAPE  C31517595   0.127   3.955   8.859  0.5422 -0.3391 -0.2467
  157SAPE  H15X17596   0.187   3.893   8.788 -1.6995 -0.3189 -2.2658
  157SAPE  H15Y17597   0.112   4.058   8.822 -2.8306 -0.3742  0.7461
  157SAPE  C31617598  -0.009   3.883   8.846  0.1206  0.0799  0.3540
  157SAPE  H16X17599  -0.066   3.932   8.927  0.0080 -0.7784  0.8070
  157SAPE  H16Y17600   0.014   3.778   8.874  1.3004  0.5355  1.2018
  157SAPE  C31717601  -0.068   3.875   8.702 -0.4309  0.1152  0.7191
  157SAPE  H17X17602   0.002   3.829   8.628  1.6805 -0.2746  2.8168
  157SAPE  H17Y17603  -0.095   3.975   8.664 -0.7763 -0.0548  0.5192
  157SAPE  C31817604  -0.201   3.792   8.713 -0.0261  0.5539 -0.3799
  157SAPE  H18X17605  -0.258   3.792   8.618  1.4349  0.1190 -1.2864
  157SAPE  H18Y17606  -0.269   3.843   8.784 -1.2646 -0.5142 -0.7644
  157SAPE  H18Z17607  -0.187   3.688   8.752  0.5307  1.0515  0.7857
  158SAPE     N17608   2.518   5.415  10.504  0.2623 -0.0853 -0.3448
  158SAPE   HN117609   2.424   5.448  10.474  0.3222  0.3997 -0.0173
  158SAPE   HN217610   2.564   5.501  10.540 -0.9882  1.5314 -2.3839
  158SAPE   HN317611   2.582   5.383  10.430  0.2236 -0.2241 -0.3194
  158SAPE   C1217612   2.508   5.296  10.607  0.2017  0.3696 -0.5473
  158SAPE  H12A17613   2.464   5.206  10.559 -0.9729  0.3786  0.4753
  158SAPE  H12B17614   2.425   5.316  10.678 -0.8403 -0.9383 -1.3301
  158SAPE   C1117615   2.640   5.268  10.688  0.5409  0.4705  0.8474
  158SAPE  H11A17616   2.622   5.186  10.760 -0.4362 -0.1918 -0.1171
  158SAPE  H11B17617   2.674   5.356  10.748  3.8061  0.6497 -1.0435
  158SAPE     P17618   2.780   5.113  10.536  0.2346  0.2353  0.2175
  158SAPE   O1317619   2.919   5.094  10.495 -0.3475 -0.5344 -0.0200
  158SAPE   O1417620   2.717   5.002  10.613 -0.5212 -0.6116  0.0521
  158SAPE   O1217621   2.760   5.248  10.611 -0.3697  0.0458 -0.3954
  158SAPE   O1117622   2.691   5.135  10.407 -0.2290 -0.2371  0.2491
  158SAPE    C117623   2.627   5.029  10.339 -1.0242  1.1925 -0.0943
  158SAPE    HA17624   2.601   4.943  10.405 -0.8669  0.1105 -1.3823
  158SAPE    HB17625   2.530   5.066  10.300  0.0776  2.9672 -1.2653
  158SAPE    C217626   2.705   4.980  10.208 -1.0701 -0.4436 -0.0512
  158SAPE    HS17627   2.796   4.922  10.236 -0.4744  0.1901 -0.6125
  158SAPE   O2117628   2.746   5.097  10.130 -0.1334 -0.2480  0.3765
  158SAPE   C2117629   2.867   5.094  10.073 -0.7965 -1.1620 -0.3933
  158SAPE   O2217630   2.957   5.017  10.095 -0.0649  0.0876 -0.1175
  158SAPE   C2217631   2.890   5.213   9.975 -0.0608  0.0238 -0.6695
  158SAPE   H2R17632   2.791   5.260   9.952 -0.6745 -1.6136 -1.4993
  158SAPE   H2S17633   2.965   5.280  10.022  1.9501 -1.1452 -2.0972
  158SAPE    C317634   2.618   4.889  10.110 -0.2906 -0.1106 -0.3329
  158SAPE    HX17635   2.534   4.957  10.086 -1.3047 -1.2222 -0.0630
  158SAPE    HY17636   2.577   4.801  10.163 -0.4228 -0.7823 -1.5184
  158SAPE   O3117637   2.691   4.867   9.985 -0.4776  0.3987  0.8574
  158SAPE   C3117638   2.779   4.768   9.996  0.2369 -0.2206  0.5104
  158SAPE   O3217639   2.795   4.697  10.094  0.7114 -1.0380  0.4983
  158SAPE   C3217640   2.847   4.750   9.855  0.3415 -0.4283 -0.5875
  158SAPE   H2X17641   2.917   4.834   9.842 -0.6442  0.6954  1.0225
  158SAPE   H2Y17642   2.769   4.760   9.777  0.7402 -0.0670 -0.9389
  158SAPE   C2317643   2.953   5.163   9.844  0.1561  0.1758 -0.8855
  158SAPE   H3R17644   3.033   5.090   9.868  0.0832  1.0039  2.5139
  158SAPE   H3S17645   3.008   5.245   9.794  1.7447 -0.4738 -0.2577
  158SAPE   C2417646   2.848   5.102   9.743  0.2540  0.5424 -0.0548
  158SAPE   H4R17647   2.786   5.189   9.715  0.0980  0.6472  0.6012
  158SAPE   H4S17648   2.787   5.032   9.805  2.4110  1.8661  3.9044
  158SAPE   C2517649   2.911   5.022   9.629  0.0688  0.7248 -0.5100
  158SAPE   H5R17650   3.018   5.001   9.642  0.5088  3.4446  1.0883
  158SAPE   C2617651   2.847   4.981   9.523 -0.2453  0.2818  0.4263
  158SAPE   H6R17652   2.904   4.943   9.437 -1.5195 -2.0837  0.5583
  158SAPE   C2717653   2.703   5.006   9.485  0.1470 -0.5786 -0.0263
  158SAPE   H7R17654   2.703   5.057   9.386 -0.1922  1.4991  0.9739
  158SAPE   H7S17655   2.658   5.086   9.548  2.2398  0.2158  0.5245
  158SAPE   C2817656   2.614   4.890   9.485  0.4629 -0.0846 -0.2860
  158SAPE   H8R17657   2.598   4.841   9.582  0.7815 -0.4759 -0.4248
  158SAPE   C2917658   2.533   4.836   9.388 -0.5912  0.9223  0.2197
  158SAPE   H9R17659   2.464   4.762   9.431  0.6124 -0.6495 -0.4677
  158SAPE  C21017660   2.524   4.889   9.243  0.0474 -0.0723  0.6752
  158SAPE  H10R17661   2.604   4.966   9.232  0.1701  0.2611  3.2860
  158SAPE  H10S17662   2.428   4.943   9.230 -0.1988 -0.3618  1.2672
  158SAPE  C21117663   2.545   4.774   9.143  0.0761 -0.4699 -0.2684
  158SAPE  H11R17664   2.612   4.697   9.184  0.4748  1.2920  2.6942
  158SAPE  C21217665   2.494   4.768   9.019  0.5347 -0.2139 -0.2970
  158SAPE  H12R17666   2.525   4.681   8.961 -0.2329 -0.7329  0.0559
  158SAPE  C21317667   2.405   4.881   8.960 -0.3593 -0.1974  0.3125
  158SAPE  H13R17668   2.438   4.978   9.003  0.3238  0.3258 -1.3160
  158SAPE  H13S17669   2.300   4.858   8.986 -0.1587 -1.9813 -0.2722
  158SAPE  C21417670   2.426   4.876   8.810  0.1169 -0.2626 -0.9448
  158SAPE  H14R17671   2.532   4.897   8.785  1.8169 -5.3618  0.8569
  158SAPE  C21517672   2.338   4.837   8.716  0.3959 -0.9651 -0.1563
  158SAPE  H15R17673   2.373   4.834   8.612 -2.6044 -1.0419 -1.2378
  158SAPE  C21617674   2.199   4.783   8.739  0.6398 -0.5380  0.2988
  158SAPE  H16R17675   2.161   4.810   8.840 -1.8125 -2.1365 -0.1241
  158SAPE  H16S17676   2.204   4.672   8.733  2.2655 -0.5576  1.3035
  158SAPE  C21717677   2.090   4.845   8.643 -0.5383 -0.4568 -0.0168
  158SAPE  H17R17678   2.094   4.956   8.642 -0.2329 -0.4653  0.0638
  158SAPE  H17S17679   1.992   4.810   8.683 -0.2083  1.4456  2.8011
  158SAPE  C21817680   2.110   4.802   8.495 -0.3068 -0.3374  0.3609
  158SAPE  H18R17681   2.078   4.695   8.497  0.9544 -0.7160  0.7256
  158SAPE  H18S17682   2.215   4.827   8.468 -0.7380  1.4703  0.2689
  158SAPE  C21917683   2.014   4.870   8.402  0.5701 -0.1218  0.3967
  158SAPE  H19R17684   1.920   4.883   8.461 -0.2307  0.8074 -1.0090
  158SAPE  H19S17685   2.001   4.810   8.310 -1.0747  0.4418  0.2295
  158SAPE  C22017686   2.046   5.014   8.369  0.0550 -0.0681 -0.4038
  158SAPE  H20R17687   2.059   5.065   8.467 -1.0849 -0.8427  0.1719
  158SAPE  H20S17688   1.966   5.074   8.321 -1.0639  0.0474  1.5050
  158SAPE  H20T17689   2.138   5.019   8.307 -0.8478 -0.2768 -1.8055
  158SAPE   C3317690   2.900   4.609   9.824 -0.0277  0.2110 -0.3894
  158SAPE   H3X17691   2.807   4.548   9.820 -1.1075  1.7808  0.1277
  158SAPE   H3Y17692   2.958   4.560   9.905  0.1846  1.6788  0.3647
  158SAPE   C3417693   2.979   4.602   9.690 -0.4723  0.1212 -0.0468
  158SAPE   H4X17694   3.041   4.510   9.694 -0.5843 -0.0519 -1.4739
  158SAPE   H4Y17695   3.052   4.684   9.678 -1.4255  0.8941 -0.7746
  158SAPE   C3517696   2.886   4.617   9.573  0.1903 -0.1132  0.3521
  158SAPE   H5X17697   2.826   4.710   9.571 -1.0256 -0.8541 -2.2463
  158SAPE   H5Y17698   2.808   4.538   9.568  0.3940 -0.2775 -0.2888
  158SAPE   C3617699   2.964   4.614   9.441 -0.0366  0.1078  0.1164
  158SAPE   H6X17700   3.024   4.521   9.441  0.9706  0.7445 -0.3510
  158SAPE   H6Y17701   3.027   4.704   9.429  2.9976 -1.9621 -0.6050
  158SAPE   C3717702   2.875   4.632   9.317  0.4439  0.6931  0.1117
  158SAPE   H7X17703   2.819   4.727   9.323  0.4854  0.6988  0.4399
  158SAPE   H7Y17704   2.802   4.549   9.318  2.3462 -1.0875  1.7246
  158SAPE   C3817705   2.965   4.626   9.194  0.1758 -0.4432  0.4314
  158SAPE   H8X17706   3.013   4.526   9.190  0.5991 -0.2032 -2.6410
  158SAPE   H8Y17707   3.035   4.712   9.196 -1.2608  0.8156 -0.7448
  158SAPE   C3917708   2.882   4.632   9.062  0.1815  0.1822 -0.2322
  158SAPE   H9X17709   2.811   4.716   9.053 -0.9355 -0.7155  0.0173
  158SAPE   H9Y17710   2.817   4.543   9.051 -0.5604  0.6329  0.4426
  158SAPE  C31017711   2.964   4.641   8.930  0.2157  0.0958 -0.2948
  158SAPE  H10X17712   3.049   4.570   8.933 -1.7530 -2.4437 -1.3742
  158SAPE  H10Y17713   3.003   4.745   8.919 -0.3049  0.1806 -1.4013
  158SAPE  C31117714   2.879   4.598   8.806  0.5915 -0.0271  1.0058
  158SAPE  H11X17715   2.800   4.676   8.797 -0.2056 -1.0338 -1.6863
  158SAPE  H11Y17716   2.832   4.499   8.826  1.9386 -0.8590  0.1426
  158SAPE  C31217717   2.950   4.607   8.673 -0.1249  0.0934  0.3481
  158SAPE  H12X17718   3.042   4.545   8.673  0.5968  1.1187  1.4291
  158SAPE  H12Y17719   2.988   4.709   8.649  0.0099 -0.0617 -0.1084
  158SAPE  C31317720   2.861   4.575   8.550 -0.7037  0.5365 -0.1056
  158SAPE  H13X17721   2.811   4.476   8.561  2.8334 -1.8598 -3.3317
  158SAPE  H13Y17722   2.941   4.562   8.475  1.0508 -0.2678  1.7850
  158SAPE  C31417723   2.760   4.682   8.506  0.0533  1.0985 -0.0765
  158SAPE  H14X17724   2.702   4.707   8.598 -1.4262  0.4673 -0.8082
  158SAPE  H14Y17725   2.689   4.630   8.439 -0.4386 -2.7962  3.0180
  158SAPE  C31517726   2.827   4.804   8.448  0.7032 -0.1161 -0.4420
  158SAPE  H15X17727   2.839   4.773   8.342 -1.4875  0.2241 -0.8482
  158SAPE  H15Y17728   2.921   4.833   8.498 -0.0768  0.7136  0.5859
  158SAPE  C31617729   2.736   4.928   8.451 -0.5071  0.2227 -0.5638
  158SAPE  H16X17730   2.784   5.025   8.424  0.5042 -0.6305 -1.9864
  158SAPE  H16Y17731   2.714   4.941   8.558  1.2323 -0.8086 -0.0270
  158SAPE  C31717732   2.594   4.905   8.395  0.5597  0.0546  0.7115
  158SAPE  H17X17733   2.550   4.812   8.438  0.5256 -0.3786 -0.2412
  158SAPE  H17Y17734   2.614   4.898   8.286  1.4411  1.0990  0.7891
  158SAPE  C31817735   2.495   5.020   8.403  0.3700 -0.3591 -0.2140
  158SAPE  H18X17736   2.483   5.048   8.510 -0.7722 -1.3536 -0.0579
  158SAPE  H18Y17737   2.399   4.977   8.366 -0.3046  0.3429  0.6439
  158SAPE  H18Z17738   2.526   5.105   8.339  4.2503 -0.9410  0.6629
  159SAPE     N17739   0.642   1.431   6.562 -0.3632 -0.3965  0.1896
  159SAPE   HN117740   0.589   1.412   6.474 -2.6077  1.1151  1.1053
  159SAPE   HN217741   0.589   1.399   6.646 -1.5002 -0.7692 -0.6361
  159SAPE   HN317742   0.662   1.532   6.575  1.0651 -0.6873  0.4159
  159SAPE   C1217743   0.784   1.377   6.548 -0.4456  0.0042  0.1791
  159SAPE  H12A17744   0.824   1.399   6.447 -1.5388 -2.4285 -0.8822
  159SAPE  H12B17745   0.778   1.267   6.564  0.0100 -0.6245 -3.1273
  159SAPE   C1117746   0.878   1.430   6.651 -0.6343 -0.7888  0.6579
  159SAPE  H11A17747   0.970   1.369   6.658 -0.3892 -0.2899  2.2806
  159SAPE  H11B17748   0.839   1.427   6.756 -1.9851 -1.5194  0.1571
  159SAPE     P17749   1.034   1.647   6.680 -0.1183 -0.2479 -0.5364
  159SAPE   O1317750   1.140   1.585   6.599  0.2593 -0.1727 -0.1577
  159SAPE   O1417751   1.023   1.795   6.668  0.4397 -0.4413 -0.3018
  159SAPE   O1217752   0.899   1.571   6.634  0.2249 -0.1145  0.1725
  159SAPE   O1117753   1.054   1.605   6.824  0.2340  0.3720  1.0661
  159SAPE    C117754   0.958   1.624   6.925  0.1695  0.0067 -0.8485
  159SAPE    HA17755   0.861   1.666   6.892  0.4638  2.0846  0.7344
  159SAPE    HB17756   0.939   1.526   6.974  0.4126 -0.4984 -1.7462
  159SAPE    C217757   1.011   1.725   7.030  0.6504  0.6666 -0.2127
  159SAPE    HS17758   1.017   1.827   6.986  1.2461  0.1858 -1.2744
  159SAPE   O2117759   1.132   1.676   7.085 -0.6974 -0.2590 -0.2929
  159SAPE   C2117760   1.236   1.742   7.038  0.5581  0.4924 -0.1975
  159SAPE   O2217761   1.232   1.844   6.970  0.5719 -0.5062 -0.5731
  159SAPE   C2217762   1.362   1.674   7.092  0.2809 -0.4855  0.0981
  159SAPE   H2R17763   1.346   1.651   7.199  1.9527  0.5127  0.6109
  159SAPE   H2S17764   1.368   1.578   7.035  1.8376  0.5061 -1.5298
  159SAPE    C317765   0.922   1.743   7.154 -0.0624  0.0272 -0.7211
  159SAPE    HX17766   0.967   1.823   7.217  1.2073 -1.2035 -0.0096
  159SAPE    HY17767   0.920   1.645   7.208  0.5227  1.0742  1.3117
  159SAPE   O3117768   0.788   1.780   7.116 -0.0109 -1.0499  0.4085
  159SAPE   C3117769   0.724   1.851   7.218  0.6387  0.1024 -0.1770
  159SAPE   O3217770   0.758   1.852   7.332  0.1189 -0.0639  0.0707
  159SAPE   C3217771   0.601   1.919   7.162 -0.2880  0.2398 -0.3934
  159SAPE   H2X17772   0.565   1.889   7.062 -0.6684 -2.2497  0.4070
  159SAPE   H2Y17773   0.630   2.024   7.144 -0.3014 -0.2886 -4.2339
  159SAPE   C2317774   1.485   1.761   7.071 -0.7824 -0.3509  0.7061
  159SAPE   H3R17775   1.475   1.857   7.125  1.5077  0.3611  0.0135
  159SAPE   H3S17776   1.511   1.788   6.966 -0.3558  0.3000  0.9739
  159SAPE   C2417777   1.614   1.694   7.136 -0.1006 -0.0113 -0.6819
  159SAPE   H4R17778   1.610   1.674   7.245  3.5111 -0.5332 -0.5373
  159SAPE   H4S17779   1.698   1.766   7.136 -1.1875  1.4936  3.1356
  159SAPE   C2517780   1.644   1.567   7.064 -0.1295  0.0614  0.1060
  159SAPE   H5R17781   1.673   1.581   6.959  0.0926 -1.3819 -0.0417
  159SAPE   C2617782   1.643   1.437   7.113  0.3845 -0.1411 -0.1132
  159SAPE   H6R17783   1.646   1.345   7.052 -1.5369 -0.0513 -0.3803
  159SAPE   C2717784   1.608   1.410   7.251 -0.1594  0.0563  0.5871
  159SAPE   H7R17785   1.498   1.423   7.263  0.0125  2.9551 -0.2193
  159SAPE   H7S17786   1.639   1.492   7.319  2.3510 -1.1701  1.0437
  159SAPE   C2817787   1.662   1.279   7.305 -0.3186 -0.6200  0.3283
  159SAPE   H8R17788   1.708   1.204   7.238  2.9525  0.8633  0.7143
  159SAPE   C2917789   1.672   1.256   7.438 -0.1171  0.3252  0.1732
  159SAPE   H9R17790   1.711   1.157   7.468  3.7827  1.8975  0.8901
  159SAPE  C21017791   1.617   1.343   7.553  0.3631  0.7259  0.1134
  159SAPE  H10R17792   1.553   1.426   7.517 -0.7714  0.1394  0.7179
  159SAPE  H10S17793   1.696   1.383   7.619 -0.0390  0.5041  0.7353
  159SAPE  C21117794   1.529   1.239   7.631 -0.0133  0.3171 -0.0267
  159SAPE  H11R17795   1.455   1.185   7.570 -1.3100  1.6670  0.3050
  159SAPE  C21217796   1.526   1.226   7.763  0.3560  0.1934 -0.0609
  159SAPE  H12R17797   1.468   1.145   7.809 -0.0552 -0.1417 -1.1232
  159SAPE  C21317798   1.626   1.302   7.849  0.3523  0.0543 -0.3123
  159SAPE  H13R17799   1.734   1.291   7.825  0.2043  1.2655 -1.7479
  159SAPE  H13S17800   1.625   1.255   7.949 -1.9162 -0.5622 -0.5748
  159SAPE  C21417801   1.603   1.449   7.870  0.3179 -0.4986  0.8039
  159SAPE  H14R17802   1.621   1.510   7.780  1.3910 -0.8552  0.7598
  159SAPE  C21517803   1.563   1.515   7.982 -0.0986  0.1530  0.0215
  159SAPE  H15R17804   1.551   1.624   7.985 -0.9717  0.0475  0.7970
  159SAPE  C21617805   1.547   1.454   8.127 -0.4828 -0.4177  0.3954
  159SAPE  H16R17806   1.498   1.355   8.131 -2.5109  0.5824  2.4391
  159SAPE  H16S17807   1.456   1.505   8.164  0.7762  0.5135  2.4011
  159SAPE  C21717808   1.664   1.474   8.220 -0.0110  0.1889 -0.9434
  159SAPE  H17R17809   1.629   1.475   8.325 -0.8982  3.4928 -1.1858
  159SAPE  H17S17810   1.711   1.573   8.200 -0.6683  1.3915  2.8222
  159SAPE  C21817811   1.768   1.359   8.202  0.2528 -0.4070 -0.0558
  159SAPE  H18R17812   1.850   1.370   8.276 -0.5136  1.5177  0.5557
  159SAPE  H18S17813   1.805   1.353   8.098 -0.3743 -2.3537 -0.2035
  159SAPE  C21917814   1.721   1.223   8.236 -0.0152  0.0110 -0.4191
  159SAPE  H19R17815   1.648   1.181   8.163  0.8334 -1.6008 -0.3935
  159SAPE  H19S17816   1.682   1.233   8.339 -0.2484  0.1689 -0.5215
  159SAPE  C22017817   1.835   1.121   8.237  1.0349  0.4383  0.0864
  159SAPE  H20R17818   1.879   1.112   8.136 -0.0682 -0.0876 -0.3643
  159SAPE  H20S17819   1.787   1.028   8.276 -4.1875  2.2389 -1.2063
  159SAPE  H20T17820   1.910   1.152   8.313  0.9180  0.3255  0.2495
  159SAPE   C3317821   0.486   1.905   7.266 -0.4947  0.2322 -0.5336
  159SAPE   H3X17822   0.512   1.957   7.360 -2.7083 -0.9638  0.8237
  159SAPE   H3Y17823   0.478   1.798   7.293 -0.0364  0.8306  2.3066
  159SAPE   C3417824   0.352   1.958   7.218  0.5477  0.4510  0.7290
  159SAPE   H4X17825   0.339   1.900   7.124  0.9137 -1.2814  1.7053
  159SAPE   H4Y17826   0.365   2.066   7.199  0.4041  0.5445  1.1543
  159SAPE   C3517827   0.237   1.935   7.317  0.3267 -0.4259  0.1445
  159SAPE   H5X17828   0.206   1.829   7.320 -0.6562 -0.1394  0.5973
  159SAPE   H5Y17829   0.147   1.998   7.297  0.7152  0.6890  1.7616
  159SAPE   C3617830   0.263   1.982   7.464  0.3696 -0.4707  0.6063
  159SAPE   H6X17831   0.335   1.911   7.510  0.8811  1.8066  3.6788
  159SAPE   H6Y17832   0.163   1.987   7.511  0.5950  0.9733  0.9855
  159SAPE   C3717833   0.317   2.124   7.483  0.9253  0.0101 -0.0030
  159SAPE   H7X17834   0.247   2.188   7.426  1.1879 -1.5092 -2.1386
  159SAPE   H7Y17835   0.422   2.130   7.446  0.9836 -0.8180  0.0087
  159SAPE   C3817836   0.321   2.167   7.628  0.3196  0.6508 -0.4798
  159SAPE   H8X17837   0.363   2.087   7.692  2.5196  0.6828 -1.7733
  159SAPE   H8Y17838   0.220   2.183   7.672  0.9703  1.0809  0.9239
  159SAPE   C3917839   0.399   2.290   7.651 -0.2894  0.2742  0.3951
  159SAPE   H9X17840   0.345   2.374   7.603 -0.0022  0.3737  0.2431
  159SAPE   H9Y17841   0.497   2.291   7.598 -0.8513  1.0198 -0.6666
  159SAPE  C31017842   0.425   2.322   7.796 -0.4942  0.4202 -0.0346
  159SAPE  H10X17843   0.495   2.248   7.840  2.9844  2.3207 -1.9355
  159SAPE  H10Y17844   0.325   2.334   7.843 -0.0349  1.3805  0.7392
  159SAPE  C31117845   0.518   2.448   7.805  0.3341 -0.1035  0.1374
  159SAPE  H11X17846   0.494   2.519   7.724 -0.8462 -0.0685  0.5011
  159SAPE  H11Y17847   0.623   2.424   7.778  0.6799 -1.6571  2.4820
  159SAPE  C31217848   0.516   2.505   7.945 -0.0137 -0.1278  0.7390
  159SAPE  H12X17849   0.553   2.426   8.014 -1.4716 -1.0943  0.4769
  159SAPE  H12Y17850   0.410   2.518   7.976  0.4267 -0.3277  2.4481
  159SAPE  C31317851   0.596   2.632   7.967  0.0845  0.8828  0.1115
  159SAPE  H13X17852   0.553   2.705   7.895  0.7614  0.6473 -0.5447
  159SAPE  H13Y17853   0.704   2.610   7.948  0.0491  2.3428 -2.1744
  159SAPE  C31417854   0.586   2.692   8.112 -0.3106  0.2534  0.6416
  159SAPE  H14X17855   0.654   2.631   8.176  3.2908  2.0844 -1.0796
  159SAPE  H14Y17856   0.479   2.692   8.141 -0.4898 -3.0684  0.3276
  159SAPE  C31517857   0.645   2.839   8.124  0.0816  0.7122 -0.5485
  159SAPE  H15X17858   0.576   2.890   8.195  0.0383  2.7981 -2.0293
  159SAPE  H15Y17859   0.644   2.890   8.026 -0.8695 -2.0216 -2.0916
  159SAPE  C31617860   0.784   2.837   8.193 -0.0950 -0.2295 -0.6079
  159SAPE  H16X17861   0.861   2.825   8.114 -1.7507  3.4567 -3.0485
  159SAPE  H16Y17862   0.792   2.756   8.269 -2.5478 -0.3796 -0.4346
  159SAPE  C31717863   0.828   2.979   8.248 -0.4014 -0.2978  0.2799
  159SAPE  H17X17864   0.932   2.978   8.286  0.3868 -1.4425 -1.7202
  159SAPE  H17Y17865   0.781   2.994   8.347  1.7532  0.9109  1.2016
  159SAPE  C31817866   0.808   3.095   8.145  0.2362 -0.3474  0.6729
  159SAPE  H18X17867   0.831   3.183   8.209  0.3607 -0.9392  1.4611
  159SAPE  H18Y17868   0.701   3.113   8.122  0.7903 -0.0934 -1.9462
  159SAPE  H18Z17869   0.871   3.074   8.057  1.1143  1.4029  0.8339
  160SAPE     N17870   6.661   2.890   6.296 -0.0155 -0.5033  0.7206
  160SAPE   HN117871   6.740   2.823   6.309  2.9310  2.2959 -1.1810
  160SAPE   HN217872   6.580   2.881   6.360 -0.4387 -0.5577  0.1900
  160SAPE   HN317873   6.621   2.868   6.202 -0.9062  0.5613  0.8345
  160SAPE   C1217874   6.721   3.025   6.256 -0.5201 -0.3052 -0.1381
  160SAPE  H12A17875   6.645   3.099   6.224  0.2918  1.8705  2.5288
  160SAPE  H12B17876   6.790   3.011   6.170  0.8274 -2.6090  1.2210
  160SAPE   C1117877   6.808   3.074   6.374  0.5013  0.4152 -0.2025
  160SAPE  H11A17878   6.743   3.121   6.451 -1.1847 -1.4792 -0.3878
  160SAPE  H11B17879   6.882   3.152   6.346  1.4542 -0.2325  0.4596
  160SAPE     P17880   6.882   2.955   6.592  0.0513  0.4641  0.5340
  160SAPE   O1317881   6.742   2.921   6.625  0.1980 -0.1911  0.6056
  160SAPE   O1417882   6.987   2.855   6.635 -0.0762  0.1649  0.3387
  160SAPE   O1217883   6.887   2.967   6.432 -0.2594 -0.1654  0.7653
  160SAPE   O1117884   6.922   3.091   6.653 -0.1728 -0.4359  0.2825
  160SAPE    C117885   7.022   3.185   6.608  0.6176  0.5603 -0.3206
  160SAPE    HA17886   7.007   3.217   6.502 -0.0578 -1.7281 -0.9648
  160SAPE    HB17887   7.026   3.271   6.679  3.0423  0.0813  0.2264
  160SAPE    C217888   7.160   3.141   6.645 -0.5913 -0.0507  0.1420
  160SAPE    HS17889   7.182   3.049   6.586 -0.3265  0.2736 -0.2675
  160SAPE   O2117890   7.173   3.127   6.791 -0.5213  0.3310  0.0469
  160SAPE   C2117891   7.285   3.084   6.843 -0.0007 -0.0508 -0.2493
  160SAPE   O2217892   7.391   3.061   6.786  0.4681 -0.4219  0.2150
  160SAPE   C2217893   7.274   3.072   6.999  0.6164  0.2478 -0.2820
  160SAPE   H2R17894   7.218   3.160   7.035 -2.3680 -0.8258 -1.8811
  160SAPE   H2S17895   7.211   2.980   7.005 -2.0633  1.9558 -0.1958
  160SAPE    C317896   7.266   3.255   6.592  0.3983  1.1135  0.0077
  160SAPE    HX17897   7.227   3.298   6.497 -0.8504 -2.0703 -1.0683
  160SAPE    HY17898   7.359   3.206   6.556  0.6290  1.1094  0.5982
  160SAPE   O3117899   7.302   3.348   6.689  0.6463  0.2488  0.2562
  160SAPE   C3117900   7.234   3.459   6.682 -0.2225 -0.4239  0.5554
  160SAPE   O3217901   7.151   3.484   6.594 -0.4166  0.2378 -0.1550
  160SAPE   C3217902   7.261   3.547   6.808  0.3043 -0.2082 -0.0064
  160SAPE   H2X17903   7.175   3.616   6.816 -1.0596 -1.8183 -0.1118
  160SAPE   H2Y17904   7.360   3.591   6.782  0.3172 -0.5544 -0.5709
  160SAPE   C2317905   7.409   3.041   7.058 -0.1246  0.1131 -0.5318
  160SAPE   H3R17906   7.481   3.123   7.040  1.9976 -1.8204 -1.2505
  160SAPE   H3S17907   7.459   2.955   7.009  3.4211  1.0196  1.2195
  160SAPE   C2417908   7.394   3.037   7.212  0.1216  0.1884  0.1681
  160SAPE   H4R17909   7.379   3.137   7.257 -2.0256  0.7377 -1.5826
  160SAPE   H4S17910   7.499   3.003   7.225 -0.2130 -1.1107 -0.3672
  160SAPE   C2517911   7.286   2.941   7.262 -0.4232 -0.1943 -0.8224
  160SAPE   H5R17912   7.302   2.834   7.248 -0.1793 -0.4882  1.3281
  160SAPE   C2617913   7.172   2.974   7.325 -0.0453  0.2552 -0.1161
  160SAPE   H6R17914   7.119   2.885   7.364  2.3257 -1.6308 -0.9491
  160SAPE   C2717915   7.115   3.108   7.358 -0.1380  0.5888 -0.1708
  160SAPE   H7R17916   7.181   3.195   7.335  0.2138  0.7323  1.2923
  160SAPE   H7S17917   7.096   3.111   7.467  0.2699 -0.2679 -0.0700
  160SAPE   C2817918   6.990   3.127   7.279 -0.6020 -0.0236  0.1303
  160SAPE   H8R17919   6.997   3.077   7.181 -0.0080  1.9767 -0.9005
  160SAPE   C2917920   6.870   3.185   7.316 -0.4619  0.7604  1.1494
  160SAPE   H9R17921   6.795   3.189   7.235 -0.1822  0.0542  0.8475
  160SAPE  C21017922   6.844   3.260   7.447  0.3613  0.8076  0.3672
  160SAPE  H10R17923   6.749   3.318   7.446  0.0628  0.3176 -0.2764
  160SAPE  H10S17924   6.930   3.329   7.462 -0.3469  1.1703  3.8120
  160SAPE  C21117925   6.830   3.169   7.566  0.9760  0.6211  0.4544
  160SAPE  H11R17926   6.840   3.061   7.555 -0.5755  0.2552  2.0236
  160SAPE  C21217927   6.804   3.210   7.689 -0.0630 -0.5991 -0.5858
  160SAPE  H12R17928   6.819   3.142   7.774  0.3080  0.7238  0.4276
  160SAPE  C21317929   6.795   3.365   7.719 -0.0612  0.2454  0.1260
  160SAPE  H13R17930   6.689   3.397   7.709 -0.0472 -0.1356 -1.7352
  160SAPE  H13S17931   6.854   3.424   7.645  0.3428  0.1382  0.3617
  160SAPE  C21417932   6.849   3.400   7.856  0.1799 -0.0946 -0.1265
  160SAPE  H14R17933   6.959   3.403   7.859  0.2547 -0.6978 -1.5492
  160SAPE  C21517934   6.788   3.432   7.972 -0.1533 -0.2111  0.0895
  160SAPE  H15R17935   6.855   3.465   8.053  0.4131 -1.7823  0.3169
  160SAPE  C21617936   6.641   3.439   8.007  0.1819  0.1645  0.1962
  160SAPE  H16R17937   6.612   3.367   8.086  0.2068  0.1081  0.1551
  160SAPE  H16S17938   6.581   3.410   7.918 -0.0861  2.4571 -0.4325
  160SAPE  C21717939   6.584   3.576   8.042  0.0794  0.5874 -0.6454
  160SAPE  H17R17940   6.516   3.609   7.960  2.4614  2.7770 -1.8844
  160SAPE  H17S17941   6.658   3.659   8.045  3.3663 -2.1527 -0.5481
  160SAPE  C21817942   6.514   3.579   8.182 -0.1636  0.4423  0.1461
  160SAPE  H18R17943   6.458   3.483   8.184  3.4448 -1.9110 -0.8266
  160SAPE  H18S17944   6.448   3.668   8.182 -1.3618 -0.4143 -0.2281
  160SAPE  C21917945   6.608   3.570   8.304 -0.5263  0.1296  1.1151
  160SAPE  H19R17946   6.693   3.640   8.293 -0.8907  0.4194  0.0190
  160SAPE  H19S17947   6.659   3.472   8.311 -0.7971 -0.1202 -0.1203
  160SAPE  C22017948   6.539   3.605   8.434 -0.5365 -0.0720  0.1659
  160SAPE  H20R17949   6.503   3.710   8.430 -0.1778  0.1520  1.9861
  160SAPE  H20S17950   6.590   3.578   8.528 -1.0607 -1.7458  0.0088
  160SAPE  H20T17951   6.445   3.546   8.426  0.5415 -1.9997  1.0401
  160SAPE   C3317952   7.255   3.465   6.940 -0.5502  0.2241 -0.5107
  160SAPE   H3X17953   7.342   3.395   6.946 -1.9858 -1.5826  0.5839
  160SAPE   H3Y17954   7.157   3.415   6.956 -1.4832  1.9255 -0.7995
  160SAPE   C3417955   7.268   3.564   7.049 -0.5631  0.6727 -0.5671
  160SAPE   H4X17956   7.195   3.648   7.048 -2.1003 -0.3455  3.5536
  160SAPE   H4Y17957   7.372   3.603   7.037 -0.0971 -0.9233 -2.0267
  160SAPE   C3517958   7.257   3.492   7.185 -0.3151 -0.5975 -0.4853
  160SAPE   H5X17959   7.352   3.434   7.188  0.0842  0.0434 -0.5822
  160SAPE   H5Y17960   7.181   3.411   7.186  0.5318 -1.4037 -0.8949
  160SAPE   C3617961   7.233   3.587   7.300 -0.0988  0.2739  0.7303
  160SAPE   H6X17962   7.147   3.654   7.280 -0.8745 -1.1502 -0.9121
  160SAPE   H6Y17963   7.313   3.665   7.304  0.5635 -0.1995 -1.5508
  160SAPE   C3717964   7.231   3.516   7.439  0.7053  0.1337  0.7701
  160SAPE   H7X17965   7.324   3.461   7.469 -1.3463 -1.9176  4.0690
  160SAPE   H7Y17966   7.152   3.438   7.434 -0.0397  0.8927  0.6368
  160SAPE   C3817967   7.194   3.622   7.536 -0.0953 -0.0870 -0.2327
  160SAPE   H8X17968   7.090   3.661   7.524  0.4004  0.9342 -1.4290
  160SAPE   H8Y17969   7.263   3.708   7.525  0.2475 -0.1814  0.9794
  160SAPE   C3917970   7.211   3.562   7.681  0.1165 -0.1959 -0.6559
  160SAPE   H9X17971   7.308   3.528   7.722 -2.0851 -2.0987  3.6242
  160SAPE   H9Y17972   7.139   3.478   7.671 -1.6475  1.0583  0.7648
  160SAPE  C31017973   7.163   3.662   7.789 -0.3144  0.2222 -0.6970
  160SAPE  H10X17974   7.056   3.681   7.767 -0.1299  0.3449 -1.5231
  160SAPE  H10Y17975   7.229   3.750   7.777 -0.1124 -0.0380 -1.6111
  160SAPE  C31117976   7.173   3.604   7.932  0.0970  0.1604 -0.0101
  160SAPE  H11X17977   7.278   3.572   7.953  1.0066  2.7284 -0.2784
  160SAPE  H11Y17978   7.112   3.512   7.944 -1.1800  0.2115 -4.3492
  160SAPE  C31217979   7.133   3.708   8.031 -0.2999  0.1550 -0.1866
  160SAPE  H12X17980   7.022   3.719   8.035 -0.1957  1.0263  1.8842
  160SAPE  H12Y17981   7.181   3.805   8.007  1.0957 -0.7461 -1.1098
  160SAPE  C31317982   7.190   3.669   8.170  0.1098 -0.1280  0.1652
  160SAPE  H13X17983   7.294   3.707   8.162 -0.0349  0.1625 -0.3403
  160SAPE  H13Y17984   7.182   3.559   8.180  2.8396 -0.2414  2.7377
  160SAPE  C31417985   7.123   3.733   8.291  1.0031  1.3337 -0.1638
  160SAPE  H14X17986   7.148   3.704   8.395 -1.5081  0.6778  0.3357
  160SAPE  H14Y17987   7.014   3.711   8.287  1.3954 -0.7654 -0.4183
  160SAPE  C31517988   7.127   3.891   8.290  0.8748  1.0693 -0.6916
  160SAPE  H15X17989   7.093   3.922   8.188  2.1345  0.8451 -1.1994
  160SAPE  H15Y17990   7.233   3.919   8.305  1.5102 -1.8070  0.8803
  160SAPE  C31617991   7.056   3.963   8.410 -0.1779  0.4909  0.3930
  160SAPE  H16X17992   7.116   3.945   8.503 -0.8839 -1.0316  0.5848
  160SAPE  H16Y17993   6.954   3.920   8.419  1.0669 -2.2966  3.3009
  160SAPE  C31717994   7.063   4.111   8.395 -0.2131  0.1344 -0.3563
  160SAPE  H17X17995   6.998   4.140   8.310  0.4817  0.5637 -0.7438
  160SAPE  H17Y17996   7.165   4.140   8.362 -0.5081  0.3195 -1.1246
  160SAPE  C31817997   7.023   4.184   8.530 -0.7465  0.7053 -0.3230
  160SAPE  H18X17998   6.916   4.215   8.529 -0.3189  2.5750  2.3004
  160SAPE  H18Y17999   7.079   4.279   8.535 -1.2608  0.9717  0.5139
  160SAPE  H18Z18000   7.049   4.128   8.622 -1.2152 -2.2209 -1.8103
  161SAPE     N18001   4.136   0.369   6.461  0.3193 -0.3696 -0.0936
  161SAPE   HN118002   4.066   0.380   6.537  0.2081 -3.1866  0.3280
  161SAPE   HN218003   4.167   0.459   6.420  1.8420 -0.0233  1.6676
  161SAPE   HN318004   4.082   0.323   6.385  1.2488  1.7683 -2.1636
  161SAPE   C1218005   4.254   0.286   6.501  0.1716  0.0452 -0.0923
  161SAPE  H12A18006   4.224   0.191   6.550 -1.6635  0.8415  0.4328
  161SAPE  H12B18007   4.320   0.333   6.577 -0.5419 -0.7066  1.0259
  161SAPE   C1118008   4.340   0.272   6.372  0.0267  0.1664  0.1914
  161SAPE  H11A18009   4.297   0.203   6.296  2.9594 -1.0145 -0.5575
  161SAPE  H11B18010   4.432   0.221   6.408 -1.0769 -1.4173  0.8625
  161SAPE     P18011   4.509   0.453   6.286  0.5313  0.7918  0.0561
  161SAPE   O1318012   4.593   0.339   6.247  0.4989  0.3886  0.3103
  161SAPE   O1418013   4.484   0.563   6.192  0.2215 -0.2090  0.4490
  161SAPE   O1218014   4.359   0.399   6.316  0.1466 -0.4590 -0.1952
  161SAPE   O1118015   4.561   0.509   6.425  0.0918 -0.0843 -0.0689
  161SAPE    C118016   4.468   0.599   6.479 -0.0600 -0.4839 -0.0358
  161SAPE    HA18017   4.436   0.678   6.408  0.9306 -1.4924 -1.6605
  161SAPE    HB18018   4.373   0.544   6.500  0.5493 -2.6034 -2.3312
  161SAPE    C218019   4.527   0.656   6.609 -0.2527 -0.6165 -0.2007
  161SAPE    HS18020   4.447   0.719   6.654 -0.5172 -2.1479  1.6203
  161SAPE   O2118021   4.646   0.727   6.600 -0.2973 -0.8499  0.1425
  161SAPE   C2118022   4.639   0.841   6.525 -0.4249 -0.6385  0.6816
  161SAPE   O2218023   4.542   0.883   6.468  0.3780  0.2421 -0.1099
  161SAPE   C2218024   4.784   0.899   6.525  0.9704  0.2564 -0.2789
  161SAPE   H2R18025   4.843   0.855   6.608  0.0916  0.5512  0.5188
  161SAPE   H2S18026   4.821   0.860   6.427  0.4333  0.6839 -0.6563
  161SAPE    C318027   4.551   0.549   6.713  0.9654  0.3753 -0.1319
  161SAPE    HX18028   4.639   0.492   6.679  1.2809  0.0064  1.2424
  161SAPE    HY18029   4.458   0.489   6.724  2.1932 -1.3337  1.4335
  161SAPE   O3118030   4.577   0.604   6.844 -0.2911 -0.6659 -0.3111
  161SAPE   C3118031   4.636   0.519   6.921 -0.2757 -0.0069 -0.4441
  161SAPE   O3218032   4.673   0.412   6.892 -0.0594  0.8578  0.0762
  161SAPE   C3218033   4.636   0.576   7.066  0.4415 -0.4271  0.3391
  161SAPE   H2X18034   4.530   0.596   7.094  0.2734  1.4609 -1.3984
  161SAPE   H2Y18035   4.678   0.678   7.078 -2.6392  0.9541  0.2978
  161SAPE   C2318036   4.787   1.053   6.543  0.3938 -0.0765  0.1346
  161SAPE   H3R18037   4.732   1.101   6.459 -1.6978 -2.2024  0.2064
  161SAPE   H3S18038   4.893   1.086   6.556 -0.0624  1.3057  0.4794
  161SAPE   C2418039   4.714   1.089   6.677  0.0959  0.4132 -0.3210
  161SAPE   H4R18040   4.740   1.008   6.748 -0.7530  0.0110 -0.4656
  161SAPE   H4S18041   4.604   1.087   6.662 -0.4714  2.0740  2.8042
  161SAPE   C2518042   4.748   1.222   6.733 -0.0181 -0.5667  0.4160
  161SAPE   H5R18043   4.754   1.298   6.654 -0.9524 -0.6228  0.2800
  161SAPE   C2618044   4.778   1.246   6.861  0.8877 -0.0822 -0.0299
  161SAPE   H6R18045   4.793   1.353   6.881  1.4765 -0.0455 -0.6276
  161SAPE   C2718046   4.774   1.158   6.984 -0.2713  0.0957 -0.3813
  161SAPE   H7R18047   4.735   1.059   6.955 -2.2703  0.5870  0.4496
  161SAPE   H7S18048   4.708   1.210   7.056 -0.2018  1.5151 -1.3013
  161SAPE   C2818049   4.910   1.146   7.043 -0.0954 -0.0678 -0.5886
  161SAPE   H8R18050   4.997   1.207   7.013  0.3338  0.9111  2.2950
  161SAPE   C2918051   4.929   1.072   7.147 -0.0357  0.3996  0.2334
  161SAPE   H9R18052   5.028   1.051   7.190 -0.9394 -2.4589  1.1317
  161SAPE  C21018053   4.821   0.988   7.208  0.4063 -0.4559 -0.3932
  161SAPE  H10R18054   4.763   0.933   7.131 -1.1612  0.4911  0.0638
  161SAPE  H10S18055   4.754   1.052   7.269 -0.0608 -1.2982  0.0021
  161SAPE  C21118056   4.879   0.879   7.294 -0.2836 -0.1189 -0.6214
  161SAPE  H11R18057   4.880   0.779   7.248 -2.7247 -0.0387 -1.0005
  161SAPE  C21218058   4.897   0.884   7.426 -0.4519  0.4837  0.0188
  161SAPE  H12R18059   4.927   0.789   7.473 -2.2994  0.1702  0.6333
  161SAPE  C21318060   4.890   1.000   7.521  0.0453 -0.0188  0.5872
  161SAPE  H13R18061   4.826   1.074   7.470 -0.5822 -0.0190  1.3370
  161SAPE  H13S18062   4.984   1.055   7.543  1.0854 -1.4256 -0.1726
  161SAPE  C21418063   4.819   0.971   7.653 -0.3897  0.8501  0.1042
  161SAPE  H14R18064   4.711   0.950   7.650 -0.4194  0.8458  0.9580
  161SAPE  C21518065   4.874   0.976   7.775  0.2202 -0.0115 -0.2026
  161SAPE  H15R18066   4.823   0.950   7.870  0.4659 -0.5931 -0.2220
  161SAPE  C21618067   5.019   1.004   7.809  0.1483  0.2170  0.3028
  161SAPE  H16R18068   5.086   0.948   7.740 -0.9145 -3.0971  1.7702
  161SAPE  H16S18069   5.040   0.961   7.910 -1.7165  1.5132  1.2892
  161SAPE  C21718070   5.067   1.143   7.805 -0.1201 -0.6171  0.0609
  161SAPE  H17R18071   5.038   1.187   7.708  0.3004  0.2297  0.3095
  161SAPE  H17S18072   5.177   1.159   7.813  0.3185 -3.1217 -0.1555
  161SAPE  C21818073   5.007   1.231   7.915  0.0412 -0.6471  0.2175
  161SAPE  H18R18074   5.023   1.164   8.002  1.2915 -2.0427 -1.0498
  161SAPE  H18S18075   4.899   1.248   7.895  0.1136 -0.5256 -0.0769
  161SAPE  C21918076   5.072   1.367   7.930 -1.3003 -0.6503  0.4170
  161SAPE  H19R18077   5.076   1.431   7.840 -0.8928  1.4966  1.8776
  161SAPE  H19S18078   5.180   1.351   7.951 -1.0743  0.3094  0.0261
  161SAPE  C22018079   5.014   1.457   8.038  0.1630  0.5445 -0.5856
  161SAPE  H20R18080   4.922   1.509   8.006  0.8373  0.6797 -2.4135
  161SAPE  H20S18081   5.080   1.541   8.071  1.1144 -0.0356 -0.9563
  161SAPE  H20T18082   4.993   1.403   8.133 -0.0141  1.4463 -0.1045
  161SAPE   C3318083   4.703   0.485   7.171 -0.3190 -0.0747 -0.6445
  161SAPE   H3X18084   4.813   0.500   7.173 -0.2646 -0.5120  0.3544
  161SAPE   H3Y18085   4.667   0.382   7.150 -2.4307  0.3996  0.4060
  161SAPE   C3418086   4.671   0.519   7.320  0.4703  0.2876 -0.1591
  161SAPE   H4X18087   4.562   0.504   7.336  0.1236  0.8821 -1.7320
  161SAPE   H4Y18088   4.696   0.620   7.359 -2.1691  1.7266 -1.8588
  161SAPE   C3518089   4.742   0.419   7.400  0.4817  0.1345 -0.7427
  161SAPE   H5X18090   4.850   0.445   7.399  1.1406 -2.0359  1.9376
  161SAPE   H5Y18091   4.737   0.315   7.360  1.5924 -0.8563  1.5167
  161SAPE   C3618092   4.707   0.414   7.543  0.3357  0.8167 -0.3982
  161SAPE   H6X18093   4.717   0.310   7.582 -3.1723 -0.1267 -1.6257
  161SAPE   H6Y18094   4.599   0.442   7.551 -0.3352 -1.7407  0.4238
  161SAPE   C3718095   4.769   0.520   7.624 -1.0849 -0.0954  0.7022
  161SAPE   H7X18096   4.709   0.613   7.621  0.2522  0.7828  0.3552
  161SAPE   H7Y18097   4.868   0.534   7.576 -1.7932 -1.6185 -1.3554
  161SAPE   C3818098   4.789   0.476   7.766 -0.1170 -0.6359  0.0584
  161SAPE   H8X18099   4.870   0.542   7.802 -0.0854  0.4807 -1.9226
  161SAPE   H8Y18100   4.820   0.370   7.759 -2.1649 -1.3061  0.3039
  161SAPE   C3918101   4.662   0.475   7.850 -0.2106  0.4893 -0.6899
  161SAPE   H9X18102   4.593   0.397   7.811 -2.0773  0.1910  2.8140
  161SAPE   H9Y18103   4.606   0.570   7.841 -1.3859  0.0315  1.2968
  161SAPE  C31018104   4.676   0.443   8.009  0.4521  0.4354 -0.0701
  161SAPE  H10X18105   4.750   0.515   8.049 -0.5120  2.0575 -1.1215
  161SAPE  H10Y18106   4.713   0.339   8.026  1.8685  0.8258 -0.5876
  161SAPE  C31118107   4.542   0.451   8.091 -0.6580  0.0187 -0.4920
  161SAPE  H11X18108   4.472   0.371   8.062 -1.6350  0.7583 -0.2263
  161SAPE  H11Y18109   4.497   0.549   8.065  2.9489  1.7803 -0.7055
  161SAPE  C31218110   4.567   0.441   8.244  0.0743  0.7141  0.3762
  161SAPE  H12X18111   4.644   0.517   8.266  1.4665 -0.6714  0.4921
  161SAPE  H12Y18112   4.604   0.339   8.269 -3.4249 -1.1291 -1.2354
  161SAPE  C31318113   4.448   0.463   8.335  0.0512 -0.8193 -0.6650
  161SAPE  H13X18114   4.361   0.401   8.303  0.4904 -1.2159 -1.1060
  161SAPE  H13Y18115   4.402   0.563   8.319  0.1563 -0.3911  1.3960
  161SAPE  C31418116   4.476   0.446   8.480 -0.7353  0.1192  0.3631
  161SAPE  H14X18117   4.388   0.494   8.528 -0.2821 -0.4573  1.8466
  161SAPE  H14Y18118   4.569   0.489   8.524 -0.6203 -0.7830  1.0387
  161SAPE  C31518119   4.465   0.300   8.511 -0.6263  0.4630 -0.0864
  161SAPE  H15X18120   4.542   0.240   8.458 -1.4933 -2.1281  1.3918
  161SAPE  H15Y18121   4.368   0.253   8.485 -0.0757 -2.1995  2.2318
  161SAPE  C31618122   4.486   0.266   8.662 -0.6354  0.1137 -0.3321
  161SAPE  H16X18123   4.582   0.316   8.689  0.9228 -1.3106 -2.8037
  161SAPE  H16Y18124   4.501   0.157   8.682 -2.7708 -0.4171 -1.3127
  161SAPE  C31718125   4.369   0.308   8.754  1.1163 -0.1931 -1.0336
  161SAPE  H17X18126   4.278   0.247   8.735  0.4150  0.3644  0.3988
  161SAPE  H17Y18127   4.345   0.412   8.724  2.6800  0.2685 -0.7926
  161SAPE  C31818128   4.392   0.291   8.908 -0.0856 -0.0967 -0.4184
  161SAPE  H18X18129   4.422   0.189   8.941  0.7292  0.6243  1.1203
  161SAPE  H18Y18130   4.291   0.316   8.946  0.3123 -1.2301  1.4976
  161SAPE  H18Z18131   4.463   0.369   8.941 -1.2524 -0.2034  2.6151
  162SAPE     N18132   2.685   1.688   6.076  0.3737 -0.6796  0.0859
  162SAPE   HN118133   2.601   1.630   6.058 -0.6845  0.7185  0.2844
  162SAPE   HN218134   2.732   1.646   6.159 -1.5473  1.2059  2.2897
  162SAPE   HN318135   2.644   1.781   6.099  0.9626  0.4583 -3.0181
  162SAPE   C1218136   2.793   1.678   5.974 -0.2438  0.3800  0.0130
  162SAPE  H12A18137   2.779   1.744   5.886  0.1050  0.4346 -0.0024
  162SAPE  H12B18138   2.801   1.570   5.947  2.2572  0.3551  0.5859
  162SAPE   C1118139   2.926   1.712   6.033  0.6841  0.0345  0.4673
  162SAPE  H11A18140   3.012   1.689   5.967  1.9465 -0.9051  2.3374
  162SAPE  H11B18141   2.945   1.643   6.118 -1.3048 -1.1474  0.0078
  162SAPE     P18142   3.042   1.900   6.160  0.1819 -0.0090  0.1437
  162SAPE   O1318143   3.169   1.845   6.115 -0.0383  0.3891  0.5400
  162SAPE   O1418144   3.035   2.043   6.164 -0.3809 -0.2683 -0.0760
  162SAPE   O1218145   2.921   1.846   6.077 -0.0384 -0.1578 -0.0383
  162SAPE   O1118146   3.013   1.839   6.306 -0.3065  0.2849 -0.4875
  162SAPE    C118147   2.934   1.905   6.397 -0.0706  0.6276  0.4782
  162SAPE    HA18148   2.865   1.978   6.351 -0.5469 -0.8143 -1.1771
  162SAPE    HB18149   2.868   1.834   6.452  0.4310  0.7661  1.2839
  162SAPE    C218150   3.013   1.988   6.508 -0.7312 -0.0684  0.2655
  162SAPE    HS18151   3.075   2.052   6.443 -0.9508 -3.4867 -3.7135
  162SAPE   O2118152   3.096   1.888   6.570  0.0615 -0.1591 -0.2712
  162SAPE   C2118153   3.196   1.948   6.633  0.8646 -0.4022 -0.0011
  162SAPE   O2218154   3.216   2.065   6.636  0.4716 -0.5624  0.3720
  162SAPE   C2218155   3.284   1.834   6.707 -0.6270  0.2630 -0.4301
  162SAPE   H2R18156   3.209   1.765   6.751  0.6431 -0.8806 -0.0044
  162SAPE   H2S18157   3.346   1.792   6.626 -0.1488  2.5304 -1.3332
  162SAPE    C318158   2.917   2.068   6.610  0.3740  0.0406  0.1862
  162SAPE    HX18159   2.859   2.140   6.549  0.6196 -0.6389 -0.8647
  162SAPE    HY18160   2.973   2.124   6.688 -0.0965  0.4589  0.2271
  162SAPE   O3118161   2.813   1.988   6.674 -0.0896 -0.7014 -0.2298
  162SAPE   C3118162   2.855   1.909   6.777  0.5630  0.2877 -0.6031
  162SAPE   O3218163   2.963   1.914   6.830  0.1152 -0.0867 -0.3186
  162SAPE   C3218164   2.748   1.798   6.808  0.0900  0.2734  0.4736
  162SAPE   H2X18165   2.729   1.731   6.722 -0.2981  0.8205  0.1277
  162SAPE   H2Y18166   2.646   1.841   6.820 -1.7361 -2.5793 -3.0279
  162SAPE   C2318167   3.376   1.899   6.823 -1.1929  0.1332  0.3725
  162SAPE   H3R18168   3.426   1.982   6.769 -1.1257 -0.0340  0.1753
  162SAPE   H3S18169   3.451   1.822   6.850 -0.9564  0.5660  0.9601
  162SAPE   C2418170   3.300   1.960   6.939 -0.0158 -0.1912  0.5138
  162SAPE   H4R18171   3.237   2.045   6.905  0.4610 -0.6629 -1.7143
  162SAPE   H4S18172   3.380   2.013   6.995  4.2881 -1.3977 -3.7964
  162SAPE   C2518173   3.226   1.861   7.028 -0.0590  0.2169  0.3678
  162SAPE   H5R18174   3.120   1.858   6.998  0.2371  0.2664 -0.7425
  162SAPE   C2618175   3.268   1.777   7.126 -0.8828 -0.1985  0.0315
  162SAPE   H6R18176   3.196   1.701   7.161 -2.9464  2.4194  1.9743
  162SAPE   C2718177   3.398   1.756   7.187  0.2803  0.1660 -0.1440
  162SAPE   H7R18178   3.408   1.813   7.282 -1.7353 -0.3555  0.4248
  162SAPE   H7S18179   3.469   1.809   7.119 -0.4545  2.7204  0.9391
  162SAPE   C2818180   3.430   1.605   7.207 -0.4191 -0.1751  0.0927
  162SAPE   H8R18181   3.485   1.562   7.122  0.6618  0.2708  0.5600
  162SAPE   C2918182   3.404   1.527   7.316 -0.0713 -0.3234  0.7868
  162SAPE   H9R18183   3.426   1.420   7.305  1.7775  0.0481  0.4621
  162SAPE  C21018184   3.340   1.564   7.452 -0.4441  0.0565 -0.2601
  162SAPE  H10R18185   3.319   1.475   7.515  0.2050 -0.3572 -0.6090
  162SAPE  H10S18186   3.239   1.608   7.440 -1.3018 -1.3638  1.4016
  162SAPE  C21118187   3.427   1.668   7.527  0.7863  0.0460  0.0169
  162SAPE  H11R18188   3.489   1.727   7.457  1.9289  1.4444  2.0904
  162SAPE  C21218189   3.460   1.677   7.658  0.3117  0.5810  0.3554
  162SAPE  H12R18190   3.532   1.751   7.697 -1.8682  2.2410  1.4215
  162SAPE  C21318191   3.399   1.595   7.772 -0.0323 -0.0782 -0.2721
  162SAPE  H13R18192   3.323   1.524   7.732 -0.1368 -0.0548 -0.1136
  162SAPE  H13S18193   3.362   1.669   7.847 -0.6293  2.1703 -2.6231
  162SAPE  C21418194   3.514   1.518   7.845  0.1494  0.1417 -0.2123
  162SAPE  H14R18195   3.607   1.500   7.790 -0.5197 -1.6691 -0.8599
  162SAPE  C21518196   3.512   1.462   7.969 -0.2056 -0.4714 -1.5095
  162SAPE  H15R18197   3.595   1.402   8.009  0.0097  0.0611 -1.1277
  162SAPE  C21618198   3.388   1.459   8.057  0.3605 -0.0703 -0.7096
  162SAPE  H16R18199   3.364   1.352   8.078  0.9862 -0.1531 -0.3830
  162SAPE  H16S18200   3.294   1.497   8.012  0.1709  0.0425 -0.2336
  162SAPE  C21718201   3.389   1.540   8.185  1.0464  0.1865 -0.3080
  162SAPE  H17R18202   3.404   1.649   8.165  0.8483  0.3733  0.5489
  162SAPE  H17S18203   3.463   1.504   8.259 -1.5801 -2.6123  1.1303
  162SAPE  C21818204   3.264   1.528   8.276  0.3041  0.3955 -0.3033
  162SAPE  H18R18205   3.248   1.418   8.283  0.3950  0.4429  0.7330
  162SAPE  H18S18206   3.177   1.576   8.227  0.5674  0.5720 -0.5996
  162SAPE  C21918207   3.273   1.578   8.422  0.6641 -0.1169  0.4545
  162SAPE  H19R18208   3.329   1.673   8.417 -0.9328  0.7991 -2.8671
  162SAPE  H19S18209   3.331   1.500   8.477 -0.4130  0.8596  3.1426
  162SAPE  C22018210   3.133   1.595   8.481 -0.7864  0.1713  0.5761
  162SAPE  H20R18211   3.138   1.617   8.590  3.4926  0.4023  0.5223
  162SAPE  H20S18212   3.083   1.500   8.455  0.2465  0.1880 -1.7610
  162SAPE  H20T18213   3.082   1.668   8.415  1.6853  0.5404 -1.0784
  162SAPE   C3318214   2.778   1.707   6.935 -0.5848 -0.6263  0.3522
  162SAPE   H3X18215   2.888   1.702   6.947 -0.3236 -1.1321 -1.7834
  162SAPE   H3Y18216   2.749   1.600   6.926  0.8626 -1.1451  1.4157
  162SAPE   C3418217   2.719   1.773   7.061 -0.0977 -0.0615  0.0952
  162SAPE   H4X18218   2.608   1.767   7.061 -0.0445 -1.3248  0.5673
  162SAPE   H4Y18219   2.766   1.874   7.062 -0.9089  0.3380 -0.4271
  162SAPE   C3518220   2.760   1.701   7.191  0.0528  0.4302 -0.1958
  162SAPE   H5X18221   2.869   1.718   7.206  0.3718  0.8522 -2.6051
  162SAPE   H5Y18222   2.734   1.595   7.170 -0.3521  0.9696 -2.8379
  162SAPE   C3618223   2.697   1.753   7.317  0.3471 -0.3657  0.0145
  162SAPE   H6X18224   2.719   1.677   7.396 -1.9107 -1.3137 -0.2055
  162SAPE   H6Y18225   2.587   1.763   7.309  0.4117  1.9234  1.1693
  162SAPE   C3718226   2.747   1.894   7.371  0.1013  0.5098  0.1119
  162SAPE   H7X18227   2.662   1.954   7.411 -0.5366  0.8887 -1.6716
  162SAPE   H7Y18228   2.795   1.956   7.292 -0.9972  0.3892 -0.6832
  162SAPE   C3818229   2.846   1.872   7.486 -0.4850 -0.3000 -0.6112
  162SAPE   H8X18230   2.917   1.789   7.465 -1.8865 -1.8283  0.3901
  162SAPE   H8Y18231   2.791   1.852   7.580  0.8398  2.6478  0.9153
  162SAPE   C3918232   2.915   2.006   7.514  0.0017  0.1769 -0.3843
  162SAPE   H9X18233   2.947   2.050   7.417 -2.8304  0.2195 -1.4001
  162SAPE   H9Y18234   3.005   1.993   7.577  0.4126  1.0372 -0.7717
  162SAPE  C31018235   2.817   2.094   7.598 -0.1245 -0.9214 -0.4626
  162SAPE  H10X18236   2.798   2.035   7.691  0.7071 -0.1292  0.2345
  162SAPE  H10Y18237   2.727   2.117   7.537 -0.9189 -0.6527  0.7662
  162SAPE  C31118238   2.872   2.229   7.657  0.1671 -0.8129  0.6814
  162SAPE  H11X18239   2.801   2.303   7.699  1.0569 -0.1430  1.0540
  162SAPE  H11Y18240   2.933   2.283   7.581  0.4790  0.7838  2.0011
  162SAPE  C31218241   2.964   2.195   7.776 -0.7782 -0.1462 -0.5516
  162SAPE  H12X18242   2.992   2.087   7.771 -1.1337 -0.4028  1.6988
  162SAPE  H12Y18243   2.906   2.206   7.870  0.2414  2.3907 -0.1509
  162SAPE  C31318244   3.092   2.278   7.801 -0.4754  0.2109 -1.0257
  162SAPE  H13X18245   3.149   2.280   7.706 -0.7268  2.5839 -1.1774
  162SAPE  H13Y18246   3.155   2.230   7.879 -0.1833  1.5590 -0.4133
  162SAPE  C31418247   3.069   2.427   7.834  0.6703  0.0554 -0.5462
  162SAPE  H14X18248   2.980   2.429   7.900  0.0823  2.7751 -1.3207
  162SAPE  H14Y18249   3.044   2.482   7.741 -2.7370 -1.6189 -0.8000
  162SAPE  C31518250   3.186   2.496   7.904  0.3245  0.2969 -0.9681
  162SAPE  H15X18251   3.256   2.526   7.823 -0.1091  0.2928 -1.3478
  162SAPE  H15Y18252   3.227   2.423   7.977 -1.0368  0.5729  0.1007
  162SAPE  C31618253   3.138   2.629   7.968  0.2532  0.4055  0.0719
  162SAPE  H16X18254   3.062   2.605   8.045  2.5685  0.1424  2.4328
  162SAPE  H16Y18255   3.084   2.691   7.893  1.8328  0.7676 -0.8151
  162SAPE  C31718256   3.248   2.718   8.019 -0.1478  0.0877 -0.0647
  162SAPE  H17X18257   3.316   2.742   7.935 -2.2041  0.9815 -1.5605
  162SAPE  H17Y18258   3.307   2.654   8.088  0.5755 -0.7265 -1.4064
  162SAPE  C31818259   3.197   2.847   8.086 -0.1834 -0.7448 -0.0237
  162SAPE  H18X18260   3.146   2.834   8.183  1.1736 -1.6972  0.5869
  162SAPE  H18Y18261   3.119   2.891   8.020 -0.2454 -0.8442 -0.0169
  162SAPE  H18Z18262   3.278   2.923   8.092 -0.9439  0.1997 -1.2085
  163SAPE     N18263   1.709   0.593   6.336  0.4444  0.3984 -0.6117
  163SAPE   HN118264   1.728   0.694   6.321 -2.1452  1.1686  0.6369
  163SAPE   HN218265   1.799   0.546   6.312  0.8265  1.1862 -0.7513
  163SAPE   HN318266   1.634   0.551   6.278 -0.3792  0.0485  0.6572
  163SAPE   C1218267   1.682   0.562   6.480 -0.0625  0.4262 -0.1024
  163SAPE  H12A18268   1.688   0.451   6.480 -1.2290  0.2781  2.3531
  163SAPE  H12B18269   1.583   0.604   6.509  0.5912  0.8768  1.5779
  163SAPE   C1118270   1.784   0.630   6.572  0.3146 -0.7246 -0.4833
  163SAPE  H11A18271   1.879   0.573   6.566  1.4741  0.6025  2.9992
  163SAPE  H11B18272   1.753   0.617   6.678 -1.8598  2.1242 -0.6541
  163SAPE     P18273   1.913   0.853   6.583  0.3322  0.0275  0.2274
  163SAPE   O1318274   2.040   0.799   6.530 -0.2806 -0.7048  0.4032
  163SAPE   O1418275   1.888   0.999   6.570 -0.0146  0.3175 -0.4066
  163SAPE   O1218276   1.793   0.770   6.531  0.3287  0.3809  0.6387
  163SAPE   O1118277   1.910   0.822   6.737  0.0415  0.1837  0.3200
  163SAPE    C118278   1.810   0.833   6.837  0.0264  0.5691  0.0789
  163SAPE    HA18279   1.710   0.806   6.797 -1.3273  2.5673  1.8777
  163SAPE    HB18280   1.832   0.760   6.918  1.0090  0.4528 -0.2871
  163SAPE    C218281   1.791   0.976   6.900 -0.6790 -0.1845  0.3066
  163SAPE    HS18282   1.770   1.035   6.808  2.6663 -0.6240 -0.9169
  163SAPE   O2118283   1.918   1.022   6.949  0.4715  0.4228 -1.2831
  163SAPE   C2118284   1.915   1.151   6.972  0.2912 -0.3839 -0.2698
  163SAPE   O2218285   1.843   1.228   6.917 -0.1247  0.0113 -0.4642
  163SAPE   C2218286   2.032   1.191   7.058  0.1131 -0.0377 -0.4454
  163SAPE   H2R18287   2.049   1.107   7.130 -0.5831 -2.0560 -2.5092
  163SAPE   H2S18288   2.126   1.192   6.999  0.3562 -0.0636 -0.0662
  163SAPE    C318289   1.674   0.985   6.999 -0.6801 -0.1186  0.1409
  163SAPE    HX18290   1.583   0.929   6.971 -0.9590  1.4946 -2.4749
  163SAPE    HY18291   1.647   1.093   6.998  3.0598  1.0580  2.8233
  163SAPE   O3118292   1.723   0.957   7.130  0.0039 -0.0401 -0.0192
  163SAPE   C3118293   1.650   0.887   7.215 -0.3354 -0.5521  0.3929
  163SAPE   O3218294   1.531   0.860   7.198  0.1811  0.7831 -0.0688
  163SAPE   C3218295   1.741   0.849   7.328  0.4809 -0.6093  0.1123
  163SAPE   H2X18296   1.784   0.940   7.374 -0.5279 -0.2039  0.2829
  163SAPE   H2Y18297   1.830   0.804   7.279  0.4996 -1.5260  0.9519
  163SAPE   C2318298   2.017   1.320   7.133  0.5396 -0.4854 -0.2675
  163SAPE   H3R18299   1.912   1.341   7.165  0.2409 -0.5897 -1.1417
  163SAPE   H3S18300   2.043   1.391   7.051  1.2929 -2.9804 -2.3074
  163SAPE   C2418301   2.114   1.326   7.247  0.5528  0.4367 -0.1014
  163SAPE   H4R18302   2.152   1.430   7.259  0.0860  0.4731  1.1162
  163SAPE   H4S18303   2.189   1.246   7.228 -0.5762 -0.3900 -1.2891
  163SAPE   C2518304   2.049   1.286   7.378 -0.2981 -0.0019  0.4111
  163SAPE   H5R18305   2.023   1.179   7.382 -0.0341 -0.0423  2.7896
  163SAPE   C2618306   2.022   1.361   7.488  0.4501 -0.6925 -1.1498
  163SAPE   H6R18307   1.967   1.310   7.569  0.3152  2.1665  0.7052
  163SAPE   C2718308   2.044   1.511   7.503 -0.8944  0.3000  0.1821
  163SAPE   H7R18309   2.117   1.540   7.425 -1.2665  0.4818 -0.0994
  163SAPE   H7S18310   2.112   1.527   7.589  0.0410 -1.0418 -0.2759
  163SAPE   C2818311   1.919   1.596   7.500  0.3892  0.2408  0.6407
  163SAPE   H8R18312   1.837   1.559   7.436 -0.2988  2.2158  0.3089
  163SAPE   C2918313   1.886   1.712   7.565  0.6269  0.3750  0.3348
  163SAPE   H9R18314   1.798   1.765   7.524 -0.2162 -2.2815 -1.5444
  163SAPE  C21018315   1.969   1.781   7.672  0.0909 -0.2115 -0.8419
  163SAPE  H10R18316   1.954   1.891   7.676 -0.5864 -0.3166  2.6593
  163SAPE  H10S18317   2.072   1.759   7.635  0.4089 -0.7073  0.2894
  163SAPE  C21118318   1.942   1.729   7.819  0.2335  0.2081  0.1255
  163SAPE  H11R18319   2.024   1.665   7.853  1.8221  1.6374 -0.8393
  163SAPE  C21218320   1.835   1.753   7.896  0.3482  0.3839  0.4198
  163SAPE  H12R18321   1.830   1.707   7.996  0.7775  1.0355  0.7480
  163SAPE  C21318322   1.725   1.847   7.847 -0.3712  0.4915  0.6657
  163SAPE  H13R18323   1.781   1.924   7.791 -0.4452 -0.1315 -0.2862
  163SAPE  H13S18324   1.701   1.899   7.942 -0.6343  1.2988  0.1681
  163SAPE  C21418325   1.603   1.798   7.766 -0.2321 -0.0905  0.4734
  163SAPE  H14R18326   1.625   1.733   7.680  0.7683 -1.1226  1.4587
  163SAPE  C21518327   1.476   1.825   7.798  0.4366 -0.8800 -0.1574
  163SAPE  H15R18328   1.400   1.804   7.722 -1.2543 -0.9097  1.4739
  163SAPE  C21618329   1.427   1.903   7.920 -0.0805 -0.0721  0.7197
  163SAPE  H16R18330   1.502   1.953   7.985 -0.2213 -0.5759  1.2744
  163SAPE  H16S18331   1.362   1.848   7.990  0.0352  0.1246  0.9840
  163SAPE  C21718332   1.339   2.020   7.860 -0.0520  0.7245 -0.7713
  163SAPE  H17R18333   1.297   2.064   7.953  1.9888  0.1995  0.4775
  163SAPE  H17S18334   1.257   1.982   7.796 -0.9564  1.4462 -0.0722
  163SAPE  C21818335   1.429   2.138   7.812  0.2398  0.2511 -0.1448
  163SAPE  H18R18336   1.484   2.105   7.721  0.0608  0.4659 -0.3308
  163SAPE  H18S18337   1.504   2.163   7.890  0.4400 -2.3565  0.5826
  163SAPE  C21918338   1.355   2.256   7.763  0.1878 -0.3214  0.7545
  163SAPE  H19R18339   1.301   2.315   7.841  0.3936 -0.7892  1.2549
  163SAPE  H19S18340   1.272   2.217   7.699 -0.1287  2.9850 -1.0747
  163SAPE  C22018341   1.440   2.360   7.685 -0.3006 -0.0245  0.4026
  163SAPE  H20R18342   1.371   2.436   7.643 -0.2055 -0.0335  0.2296
  163SAPE  H20S18343   1.507   2.316   7.608  1.7356  0.5959  1.7495
  163SAPE  H20T18344   1.507   2.420   7.750  1.9445  0.3787 -2.1084
  163SAPE   C3318345   1.670   0.761   7.437  0.6292 -0.8793  0.1404
  163SAPE   H3X18346   1.743   0.708   7.503 -0.1126 -1.2278  0.6887
  163SAPE   H3Y18347   1.619   0.679   7.383  0.7782 -1.8377  1.4037
  163SAPE   C3418348   1.578   0.853   7.513  0.2785 -0.0962 -0.1626
  163SAPE   H4X18349   1.505   0.890   7.439  1.2676  2.3317 -0.0257
  163SAPE   H4Y18350   1.637   0.940   7.550 -1.6288  0.7024  1.1682
  163SAPE   C3518351   1.496   0.792   7.626 -0.1160 -0.2056  0.2323
  163SAPE   H5X18352   1.450   0.697   7.592  0.0235 -0.7744  1.5713
  163SAPE   H5Y18353   1.425   0.875   7.647  1.1818  1.6746 -2.3073
  163SAPE   C3618354   1.581   0.760   7.747 -0.0416  0.2282  0.6320
  163SAPE   H6X18355   1.667   0.829   7.752  0.7733 -0.8440  2.9343
  163SAPE   H6Y18356   1.624   0.659   7.727  3.7489  2.2073 -2.4764
  163SAPE   C3718357   1.509   0.774   7.875  0.1290 -1.0834  0.0362
  163SAPE   H7X18358   1.405   0.733   7.876 -0.2968 -0.0225  0.6585
  163SAPE   H7Y18359   1.504   0.877   7.916 -0.6249 -1.7109  1.6253
  163SAPE   C3818360   1.592   0.704   7.986  0.3507 -0.2026 -0.6554
  163SAPE   H8X18361   1.703   0.711   7.994  0.2538  0.3821  0.3061
  163SAPE   H8Y18362   1.567   0.597   7.974 -1.9257  0.0825  1.0028
  163SAPE   C3918363   1.544   0.750   8.126 -0.1357  0.2154  0.8278
  163SAPE   H9X18364   1.434   0.743   8.120 -0.0174 -2.6650  0.6770
  163SAPE   H9Y18365   1.571   0.858   8.129  0.4961  0.0531  1.3984
  163SAPE  C31018366   1.616   0.680   8.238  0.8078 -0.6790  0.0231
  163SAPE  H10X18367   1.723   0.689   8.209  0.2139  1.4096 -1.8082
  163SAPE  H10Y18368   1.575   0.578   8.224 -0.4572 -0.3548  1.0988
  163SAPE  C31118369   1.582   0.749   8.370  0.0312 -0.1396 -0.6061
  163SAPE  H11X18370   1.477   0.787   8.378 -0.2374 -1.2191  3.6810
  163SAPE  H11Y18371   1.651   0.834   8.388 -1.8418  1.4546 -0.5640
  163SAPE  C31218372   1.593   0.663   8.503 -0.1837  0.2191 -0.9727
  163SAPE  H12X18373   1.696   0.654   8.544 -1.3321 -0.1921  2.1197
  163SAPE  H12Y18374   1.578   0.555   8.483  2.3859 -0.6423  1.0995
  163SAPE  C31318375   1.504   0.715   8.617 -0.8690 -0.1897 -0.0228
  163SAPE  H13X18376   1.399   0.746   8.598 -0.3562  2.2540  0.7481
  163SAPE  H13Y18377   1.544   0.818   8.631 -1.3126  0.0499 -0.4538
  163SAPE  C31418378   1.506   0.632   8.745 -0.1635  0.6391 -0.4301
  163SAPE  H14X18379   1.608   0.600   8.774 -0.1717  2.1276  1.4133
  163SAPE  H14Y18380   1.443   0.540   8.747  0.9130 -0.1264 -0.9019
  163SAPE  C31518381   1.469   0.708   8.869  0.3890  0.3114  0.3485
  163SAPE  H15X18382   1.525   0.804   8.874  0.1787  0.3649  2.2447
  163SAPE  H15Y18383   1.495   0.647   8.958 -1.6110  0.1411  0.8629
  163SAPE  C31618384   1.320   0.731   8.864 -0.0349 -0.1823 -0.4796
  163SAPE  H16X18385   1.259   0.641   8.842  1.0563 -0.6634 -1.6661
  163SAPE  H16Y18386   1.291   0.793   8.777 -1.1835 -2.6656 -2.0002
  163SAPE  C31718387   1.271   0.802   8.995 -0.1343  0.5544 -0.4586
  163SAPE  H17X18388   1.160   0.808   8.992 -0.3626 -2.2740 -0.1949
  163SAPE  H17Y18389   1.301   0.908   8.984  2.8469 -0.1026  0.4277
  163SAPE  C31818390   1.321   0.743   9.126  0.1162  0.0448  0.3076
  163SAPE  H18X18391   1.432   0.746   9.130  0.1626 -1.3368  0.8485
  163SAPE  H18Y18392   1.299   0.634   9.128 -0.0358  0.0775  1.8419
  163SAPE  H18Z18393   1.281   0.796   9.215  0.8730  0.9010  0.1467
  164SAPE     N18394   2.444   3.441   5.524  0.0866  0.6116 -0.2800
  164SAPE   HN118395   2.410   3.413   5.430  1.3795  0.4977 -0.7455
  164SAPE   HN218396   2.390   3.408   5.606  1.1377  0.2370  0.2869
  164SAPE   HN318397   2.439   3.544   5.515 -0.6087  0.5070 -1.3206
  164SAPE   C1218398   2.589   3.390   5.542  0.2654  0.5672  0.3088
  164SAPE  H12A18399   2.642   3.418   5.449  0.7650  2.1701  1.0569
  164SAPE  H12B18400   2.592   3.279   5.542 -0.2050  0.5525 -0.5819
  164SAPE   C1118401   2.632   3.443   5.682  0.1626  0.0973 -0.0449
  164SAPE  H11A18402   2.734   3.398   5.680 -0.5452 -1.5927 -1.8699
  164SAPE  H11B18403   2.568   3.406   5.765  1.4369 -0.0624  0.8952
  164SAPE     P18404   2.632   3.670   5.818 -0.2199 -0.5008 -0.4783
  164SAPE   O1318405   2.669   3.806   5.766  0.3883  0.3855 -1.2047
  164SAPE   O1418406   2.506   3.658   5.899 -0.0538  0.1221 -0.1850
  164SAPE   O1218407   2.631   3.587   5.683 -0.4583 -0.1237 -0.2236
  164SAPE   O1118408   2.755   3.607   5.897 -0.5961  0.2009 -0.9931
  164SAPE    C118409   2.743   3.498   5.994 -0.4532  0.6909 -0.3383
  164SAPE    HA18410   2.640   3.469   6.023 -0.7343  0.5810 -1.4250
  164SAPE    HB18411   2.783   3.406   5.946 -0.2678  1.5306 -1.8445
  164SAPE    C218412   2.830   3.522   6.126 -0.0293 -0.4711  0.6831
  164SAPE    HS18413   2.830   3.424   6.180  0.2094 -1.6602 -1.3616
  164SAPE   O2118414   2.770   3.628   6.198  0.2743 -0.7419  0.2354
  164SAPE   C2118415   2.687   3.587   6.287 -0.7779 -0.1780 -0.2288
  164SAPE   O2218416   2.652   3.467   6.303 -0.3334 -0.0307 -0.2984
  164SAPE   C2218417   2.638   3.699   6.379 -0.5826  0.1143 -1.3038
  164SAPE   H2R18418   2.591   3.650   6.466  0.2357  1.5521 -0.0002
  164SAPE   H2S18419   2.736   3.741   6.409 -0.1550 -2.4132  1.1768
  164SAPE    C318420   2.971   3.567   6.100 -0.1169 -0.5021  0.1551
  164SAPE    HX18421   2.964   3.657   6.035 -1.4590 -1.9528 -1.8475
  164SAPE    HY18422   3.009   3.490   6.030 -4.0102 -2.1129 -0.4552
  164SAPE   O3118423   3.053   3.565   6.220  0.4806 -1.0733 -0.3337
  164SAPE   C3118424   3.119   3.682   6.249 -0.2322 -0.0518  0.1786
  164SAPE   O3218425   3.110   3.787   6.192  0.2373 -0.3376 -0.2772
  164SAPE   C3218426   3.191   3.669   6.385 -0.4616 -0.1102 -0.4425
  164SAPE   H2X18427   3.273   3.743   6.369 -0.0405 -0.6675 -0.9200
  164SAPE   H2Y18428   3.224   3.564   6.400 -0.4446  0.2352  2.4209
  164SAPE   C2318429   2.540   3.793   6.318  0.3238  0.4392 -0.1665
  164SAPE   H3R18430   2.471   3.732   6.256  0.7717 -1.3508  1.0231
  164SAPE   H3S18431   2.588   3.854   6.239  0.0363 -1.2905 -1.7364
  164SAPE   C2418432   2.463   3.882   6.416  0.7889  0.7133 -0.1414
  164SAPE   H4R18433   2.430   3.819   6.501  0.2868  2.0962  0.7344
  164SAPE   H4S18434   2.366   3.923   6.381  0.0516  0.8772  1.9362
  164SAPE   C2518435   2.561   3.990   6.466  0.7820  0.8840 -0.2006
  164SAPE   H5R18436   2.619   4.022   6.379  0.7390 -2.5825 -1.6789
  164SAPE   C2618437   2.601   4.016   6.593 -0.2914  0.2128 -0.3413
  164SAPE   H6R18438   2.684   4.086   6.611 -0.5406 -0.0797  2.2292
  164SAPE   C2718439   2.554   3.959   6.724 -0.1123  0.6621  0.0328
  164SAPE   H7R18440   2.461   3.903   6.702 -1.4973  2.2702  1.5050
  164SAPE   H7S18441   2.527   4.045   6.788  1.6676  0.5467  0.9953
  164SAPE   C2818442   2.666   3.870   6.776  0.1825  0.0373 -0.2726
  164SAPE   H8R18443   2.679   3.776   6.721  0.9014  0.2893 -0.5494
  164SAPE   C2918444   2.761   3.881   6.875  0.1978 -0.0294  0.2903
  164SAPE   H9R18445   2.828   3.799   6.904  0.5014  0.2909  0.5120
  164SAPE  C21018446   2.768   3.985   6.975  0.6377 -0.2624 -0.6858
  164SAPE  H10R18447   2.751   4.079   6.918 -0.8901  0.4532  0.8322
  164SAPE  H10S18448   2.872   3.999   7.012  0.5640  0.2504 -0.6628
  164SAPE  C21118449   2.656   3.998   7.074  0.2732  0.9484 -0.5267
  164SAPE  H11R18450   2.557   4.029   7.036  0.1637  0.2055 -0.8638
  164SAPE  C21218451   2.673   3.975   7.208  0.3052  0.0445  1.2640
  164SAPE  H12R18452   2.588   4.008   7.269  0.7030  1.3099  1.1777
  164SAPE  C21318453   2.796   3.942   7.291  0.3182 -0.5842  0.2975
  164SAPE  H13R18454   2.845   4.031   7.334  0.8284  0.1421 -1.6550
  164SAPE  H13S18455   2.874   3.901   7.223 -0.1542 -1.8685  0.5122
  164SAPE  C21418456   2.759   3.840   7.398  0.5529 -0.2170  0.5533
  164SAPE  H14R18457   2.767   3.735   7.368 -0.9888 -0.0406 -0.6038
  164SAPE  C21518458   2.719   3.865   7.522 -0.0183 -0.1099 -0.2977
  164SAPE  H15R18459   2.691   3.783   7.589  0.9750  0.9554  1.4835
  164SAPE  C21618460   2.696   3.999   7.581  0.4412 -0.1742 -0.4578
  164SAPE  H16R18461   2.624   3.999   7.665  2.3363  0.1194  1.2649
  164SAPE  H16S18462   2.660   4.070   7.503 -0.6846  0.4787  0.6365
  164SAPE  C21718463   2.826   4.055   7.640 -0.0537 -0.1036 -0.4312
  164SAPE  H17R18464   2.906   4.038   7.565  0.3793 -1.5733  0.3363
  164SAPE  H17S18465   2.844   3.997   7.733  3.0621  1.3705  0.0271
  164SAPE  C21818466   2.828   4.201   7.689 -0.3124 -0.2572 -0.2175
  164SAPE  H18R18467   2.749   4.232   7.761  0.5815  0.6712  0.3953
  164SAPE  H18S18468   2.828   4.273   7.604  0.8231 -1.0640 -0.9226
  164SAPE  C21918469   2.960   4.240   7.762  0.1579  0.1852  0.3712
  164SAPE  H19R18470   3.042   4.237   7.687 -0.1986  2.7306 -0.2222
  164SAPE  H19S18471   2.975   4.161   7.839 -2.2761  0.9728  1.7609
  164SAPE  C22018472   2.975   4.381   7.826  0.2834  0.2912 -0.3106
  164SAPE  H20R18473   2.948   4.449   7.742  0.0574 -2.7972 -2.9756
  164SAPE  H20S18474   3.081   4.391   7.856  0.7070  0.7930 -1.8752
  164SAPE  H20T18475   2.909   4.394   7.915  1.4836  0.8694  0.5123
  164SAPE   C3318476   3.104   3.696   6.513  0.6851 -0.3288 -0.0554
  164SAPE   H3X18477   3.042   3.788   6.514  0.9733 -0.1252 -0.5835
  164SAPE   H3Y18478   3.178   3.713   6.594  1.6655  0.0177 -1.0069
  164SAPE   C3418479   3.022   3.582   6.557 -0.2949  0.3458  0.2564
  164SAPE   H4X18480   3.084   3.491   6.548 -0.3310  0.4660 -1.7292
  164SAPE   H4Y18481   2.947   3.578   6.475  1.4505 -0.1830 -1.3829
  164SAPE   C3518482   2.948   3.595   6.693  0.3592 -0.1852  0.1092
  164SAPE   H5X18483   2.902   3.696   6.695  0.8213  0.0219  1.0260
  164SAPE   H5Y18484   3.023   3.595   6.775 -1.6823  0.3020  2.0818
  164SAPE   C3618485   2.845   3.482   6.706 -0.3632  0.0590 -0.0457
  164SAPE   H6X18486   2.888   3.379   6.705  2.2800  1.0919 -0.0625
  164SAPE   H6Y18487   2.780   3.495   6.617  1.8508 -0.3221 -1.8080
  164SAPE   C3718488   2.749   3.487   6.828 -0.3940 -0.4190 -0.3838
  164SAPE   H7X18489   2.664   3.417   6.816  0.7756 -1.8475 -0.6961
  164SAPE   H7Y18490   2.698   3.586   6.833 -1.0259 -0.7303 -0.5543
  164SAPE   C3818491   2.827   3.484   6.967  0.8194  0.3382  0.0927
  164SAPE   H8X18492   2.914   3.553   6.971  2.4695 -1.7126  1.4047
  164SAPE   H8Y18493   2.869   3.383   6.982 -1.3879 -0.5624  0.6995
  164SAPE   C3918494   2.720   3.509   7.084 -0.1544  0.2589 -0.3655
  164SAPE   H9X18495   2.646   3.426   7.082  0.8691 -0.6624 -0.6390
  164SAPE   H9Y18496   2.670   3.608   7.069 -1.0038 -0.1886 -0.5552
  164SAPE  C31018497   2.778   3.525   7.225 -0.2909 -0.3123 -0.3751
  164SAPE  H10X18498   2.703   3.564   7.297  2.6174  0.7179  2.3227
  164SAPE  H10Y18499   2.849   3.610   7.232 -0.6349 -0.1344  1.7155
  164SAPE  C31118500   2.830   3.387   7.280  0.6246  0.1253 -0.2190
  164SAPE  H11X18501   2.897   3.426   7.359  2.7163 -2.0402 -0.8213
  164SAPE  H11Y18502   2.886   3.330   7.204 -0.2758 -1.7394  0.4599
  164SAPE  C31218503   2.733   3.298   7.360  0.0950 -0.4091  0.1103
  164SAPE  H12X18504   2.664   3.258   7.284 -0.0327  0.0515 -0.0165
  164SAPE  H12Y18505   2.670   3.361   7.426  1.1571  0.1786  0.6046
  164SAPE  C31318506   2.799   3.189   7.445 -0.0990  0.2085 -0.3649
  164SAPE  H13X18507   2.879   3.235   7.507 -0.4769 -2.1324  2.0481
  164SAPE  H13Y18508   2.846   3.114   7.378  0.8630 -0.6171  1.1683
  164SAPE  C31418509   2.698   3.110   7.528 -0.0980  0.0880 -0.1626
  164SAPE  H14X18510   2.758   3.023   7.562 -0.4664 -0.0452  0.1509
  164SAPE  H14Y18511   2.630   3.073   7.449  1.7783  0.6155 -2.1434
  164SAPE  C31518512   2.626   3.184   7.641  0.5787 -0.4211 -0.5462
  164SAPE  H15X18513   2.580   3.276   7.597 -0.1405  0.0697  1.1398
  164SAPE  H15Y18514   2.700   3.209   7.720 -0.4782  0.8902  0.0808
  164SAPE  C31618515   2.517   3.107   7.711 -0.3763  0.4537 -0.2601
  164SAPE  H16X18516   2.565   3.048   7.792 -2.8772 -1.7969 -0.2958
  164SAPE  H16Y18517   2.460   3.046   7.638 -0.9003  0.9966 -0.3115
  164SAPE  C31718518   2.409   3.186   7.782  0.2844 -0.7291 -1.1471
  164SAPE  H17X18519   2.372   3.111   7.855  2.6305 -0.9968 -0.1265
  164SAPE  H17Y18520   2.339   3.208   7.698 -1.8010 -1.5961  0.2927
  164SAPE  C31818521   2.462   3.308   7.856 -0.0986 -0.5577  0.9088
  164SAPE  H18X18522   2.556   3.281   7.909 -1.2113 -1.4728  2.4902
  164SAPE  H18Y18523   2.388   3.342   7.932 -0.4004  0.5798  0.1269
  164SAPE  H18Z18524   2.487   3.396   7.792  0.0542 -0.9422  0.4307
  165SAPE     N18525   2.688   0.587   6.515  0.4345  0.5594 -0.1499
  165SAPE   HN118526   2.689   0.671   6.454  1.2543  0.3453 -0.4403
  165SAPE   HN218527   2.587   0.572   6.534 -0.3295 -0.9320 -4.3747
  165SAPE   HN318528   2.751   0.603   6.596  1.6686 -1.6896 -0.5937
  165SAPE   C1218529   2.738   0.483   6.420 -0.0677  0.0953 -0.8887
  165SAPE  H12A18530   2.658   0.457   6.347  1.1788 -0.6933 -2.0169
  165SAPE  H12B18531   2.759   0.393   6.481  0.0488  0.3023 -0.6183
  165SAPE   C1118532   2.860   0.533   6.334  0.0673  0.5500 -0.5492
  165SAPE  H11A18533   2.884   0.455   6.258 -1.6785 -0.1041 -0.4826
  165SAPE  H11B18534   2.948   0.536   6.402  2.2015 -2.8498 -2.8140
  165SAPE     P18535   2.937   0.768   6.243  0.2292  0.4135  0.2358
  165SAPE   O1318536   3.041   0.739   6.145 -0.1835 -0.1117  0.3665
  165SAPE   O1418537   2.860   0.891   6.227 -0.3284  0.1073  0.2943
  165SAPE   O1218538   2.830   0.654   6.259  0.0570 -0.6179 -0.7689
  165SAPE   O1118539   3.010   0.771   6.386 -0.6310  0.1033  0.4184
  165SAPE    C118540   2.976   0.881   6.473 -0.4600  0.7213 -0.3622
  165SAPE    HA18541   2.956   0.977   6.421  1.7272  0.8799 -1.0021
  165SAPE    HB18542   2.894   0.853   6.543  1.0901 -0.3281  1.0893
  165SAPE    C218543   3.106   0.912   6.550  0.6733  0.5979  0.1763
  165SAPE    HS18544   3.184   0.893   6.473 -0.4833  0.6241 -1.0391
  165SAPE   O2118545   3.107   0.808   6.653  0.6102 -0.8308  0.1736
  165SAPE   C2118546   3.216   0.795   6.713 -0.2393 -0.3687 -0.0409
  165SAPE   O2218547   3.328   0.841   6.685 -0.2266 -1.0475  0.6070
  165SAPE   C2218548   3.215   0.693   6.835 -0.3199 -0.2626 -0.1965
  165SAPE   H2R18549   3.140   0.616   6.807 -0.4097  0.1561 -1.1802
  165SAPE   H2S18550   3.312   0.640   6.835 -1.1634 -1.8665 -0.1388
  165SAPE    C318551   3.120   1.059   6.612 -0.5972  0.9072  0.5948
  165SAPE    HX18552   3.136   1.127   6.525 -0.0530 -1.8016 -1.5362
  165SAPE    HY18553   3.207   1.061   6.681  0.8584  1.4063 -1.1543
  165SAPE   O3118554   2.996   1.093   6.683 -0.4762  0.1692 -0.0560
  165SAPE   C3118555   2.994   1.074   6.814  0.2454  0.1859  0.6794
  165SAPE   O3218556   3.085   1.048   6.885 -0.4987 -0.5389 -0.1192
  165SAPE   C3218557   2.850   1.087   6.863  0.3936 -0.4466 -0.1071
  165SAPE   H2X18558   2.791   1.006   6.814 -1.9553  0.4006  1.1305
  165SAPE   H2Y18559   2.808   1.177   6.813 -1.6884 -1.3093 -0.0287
  165SAPE   C2318560   3.190   0.765   6.973 -0.1607 -0.1226  0.1964
  165SAPE   H3R18561   3.086   0.804   6.978 -0.2544 -0.5002  2.1853
  165SAPE   H3S18562   3.260   0.850   6.980 -0.8863  0.3897  1.5936
  165SAPE   C2418563   3.209   0.681   7.092 -0.5350  0.2289 -0.6418
  165SAPE   H4R18564   3.183   0.749   7.177  0.9408  0.0889 -0.0614
  165SAPE   H4S18565   3.312   0.641   7.098 -1.6815 -2.8215  0.3415
  165SAPE   C2518566   3.124   0.560   7.083  0.4668 -0.2934 -1.0034
  165SAPE   H5R18567   3.131   0.512   6.984  1.0172 -2.7823  0.1586
  165SAPE   C2618568   3.061   0.487   7.180  0.7422 -0.6059  0.4317
  165SAPE   H6R18569   2.990   0.408   7.153 -2.8620  2.3153  0.5628
  165SAPE   C2718570   3.065   0.519   7.327 -0.0550  0.1560 -0.7241
  165SAPE   H7R18571   2.982   0.463   7.375 -0.0594 -0.7484 -1.7735
  165SAPE   H7S18572   3.050   0.628   7.341  1.4864  0.4908 -1.5559
  165SAPE   C2818573   3.194   0.475   7.387  0.5649  0.0697 -0.0876
  165SAPE   H8R18574   3.272   0.469   7.309  0.0632 -1.0037 -0.5293
  165SAPE   C2918575   3.215   0.428   7.506  0.5584  0.6150  0.0077
  165SAPE   H9R18576   3.312   0.382   7.531  1.5091  1.6933 -1.5030
  165SAPE  C21018577   3.110   0.421   7.619 -0.8745  0.8045 -0.2851
  165SAPE  H10R18578   3.122   0.318   7.658 -2.5395  0.7259  0.1118
  165SAPE  H10S18579   3.003   0.414   7.590 -1.0076 -0.2421  0.3915
  165SAPE  C21118580   3.116   0.514   7.725  0.7744  0.1058 -0.7241
  165SAPE  H11R18581   3.105   0.622   7.708  2.9819  1.4666  4.5702
  165SAPE  C21218582   3.126   0.479   7.857 -0.4510 -0.1521 -0.0893
  165SAPE  H12R18583   3.138   0.563   7.927 -0.0765 -0.9553  0.8314
  165SAPE  C21318584   3.137   0.340   7.915 -0.0309 -0.5668 -0.1911
  165SAPE  H13R18585   3.230   0.302   7.867  0.2364 -0.5543  0.3069
  165SAPE  H13S18586   3.057   0.277   7.872  0.7425 -0.6723 -1.5377
  165SAPE  C21418587   3.153   0.329   8.067  0.3844  0.3976 -0.0692
  165SAPE  H14R18588   3.191   0.418   8.120  2.8487  1.0052 -2.6338
  165SAPE  C21518589   3.150   0.209   8.137  0.7220  0.1415  0.4746
  165SAPE  H15R18590   3.166   0.201   8.245 -0.3692  1.0241  0.7178
  165SAPE  C21618591   3.130   0.076   8.062  0.8493  0.3829 -0.5860
  165SAPE  H16R18592   3.118   0.079   7.952  1.0491 -0.8787 -0.6564
  165SAPE  H16S18593   3.033   0.039   8.102  0.9128  2.3870  1.6373
  165SAPE  C21718594   3.233  -0.030   8.102 -0.5595 -0.9035 -0.5786
  165SAPE  H17R18595   3.234  -0.038   8.213 -0.4980  1.4801 -0.3572
  165SAPE  H17S18596   3.333   0.007   8.073  0.2575 -0.9693  1.9563
  165SAPE  C21818597   3.204  -0.168   8.051 -0.1197 -1.1219 -0.7247
  165SAPE  H18R18598   3.105  -0.202   8.089  0.2435  0.0314  1.4314
  165SAPE  H18S18599   3.285  -0.230   8.095  0.9240  1.1464  0.7154
  165SAPE  C21918600   3.206  -0.185   7.901 -0.3688 -0.0876  1.0473
  165SAPE  H19R18601   3.295  -0.130   7.864 -0.3330 -0.7758  0.0919
  165SAPE  H19S18602   3.119  -0.131   7.856  0.1952 -0.0093  0.0331
  165SAPE  C22018603   3.217  -0.329   7.861  0.5799  0.0289 -0.5045
  165SAPE  H20R18604   3.182  -0.404   7.935  1.2999 -0.2818 -0.4631
  165SAPE  H20S18605   3.324  -0.358   7.846  0.7635 -0.2554  1.1902
  165SAPE  H20T18606   3.173  -0.328   7.759  0.7095 -1.2378 -0.5864
  165SAPE   C3318607   2.835   1.096   7.015  0.5723 -0.4793 -0.3265
  165SAPE   H3X18608   2.743   1.155   7.031  0.8280 -0.0830 -0.3094
  165SAPE   H3Y18609   2.920   1.153   7.057  2.2891 -2.3454 -1.0956
  165SAPE   C3418610   2.804   0.960   7.076 -0.3823 -0.0127  0.4049
  165SAPE   H4X18611   2.906   0.916   7.083 -0.8420 -0.9736  1.1843
  165SAPE   H4Y18612   2.750   0.882   7.018 -0.9784 -0.5998  1.7279
  165SAPE   C3518613   2.767   0.948   7.229  0.5199 -0.1060  0.4876
  165SAPE   H5X18614   2.665   0.904   7.236 -0.8380  2.4549 -1.5974
  165SAPE   H5Y18615   2.772   1.047   7.279  2.0330  0.3451 -0.4799
  165SAPE   C3618616   2.860   0.862   7.308  0.4494  0.6651 -0.4546
  165SAPE   H6X18617   2.960   0.909   7.316  1.2212 -1.1612  1.6876
  165SAPE   H6Y18618   2.860   0.767   7.250 -0.6606  1.7947 -2.4068
  165SAPE   C3718619   2.795   0.828   7.447 -0.6217 -0.0441 -0.0276
  165SAPE   H7X18620   2.842   0.741   7.499  0.5451  0.9450  0.6261
  165SAPE   H7Y18621   2.695   0.782   7.432 -0.4679 -0.2074 -0.5764
  165SAPE   C3818622   2.767   0.948   7.534 -0.1652 -0.5999  0.9014
  165SAPE   H8X18623   2.727   1.035   7.479 -0.9317 -0.1657  2.1260
  165SAPE   H8Y18624   2.853   0.981   7.595 -0.7890 -0.7070  1.8487
  165SAPE   C3918625   2.646   0.915   7.624 -0.1017 -0.1541  0.3567
  165SAPE   H9X18626   2.672   0.826   7.684 -2.0673 -0.8799  0.2035
  165SAPE   H9Y18627   2.559   0.902   7.556  1.9042 -0.9551 -2.1597
  165SAPE  C31018628   2.608   1.030   7.721 -0.9683 -0.1970  0.1515
  165SAPE  H10X18629   2.612   1.121   7.657  1.0291 -1.3451 -1.4830
  165SAPE  H10Y18630   2.682   1.043   7.803 -0.1141  0.2814 -0.6798
  165SAPE  C31118631   2.468   1.014   7.767  0.8826  0.5502  0.0705
  165SAPE  H11X18632   2.403   0.990   7.680  0.3243 -0.0129  0.6301
  165SAPE  H11Y18633   2.425   1.113   7.794  0.0679  0.3278 -0.3612
  165SAPE  C31218634   2.438   0.908   7.883  0.6020 -0.2060 -0.1387
  165SAPE  H12X18635   2.491   0.934   7.976  1.0680 -0.2130 -0.4004
  165SAPE  H12Y18636   2.488   0.814   7.849  1.3034  0.2399 -0.3572
  165SAPE  C31318637   2.297   0.887   7.931  1.4118  0.6128 -0.1273
  165SAPE  H13X18638   2.242   0.835   7.849  0.1361  1.0084  0.4645
  165SAPE  H13Y18639   2.246   0.981   7.960 -3.0102 -0.9181 -2.0293
  165SAPE  C31418640   2.297   0.789   8.049  0.8906 -0.0668  0.2396
  165SAPE  H14X18641   2.329   0.839   8.143 -1.1586 -2.5834  2.4485
  165SAPE  H14Y18642   2.360   0.700   8.031 -0.1293 -0.8813  0.6209
  165SAPE  C31518643   2.149   0.749   8.072  0.0470  0.9878 -0.3401
  165SAPE  H15X18644   2.107   0.713   7.976  0.6229 -0.7355  0.0114
  165SAPE  H15Y18645   2.090   0.839   8.101  0.3180  0.5377  1.7856
  165SAPE  C31618646   2.133   0.622   8.158  0.1218 -0.2499 -0.0610
  165SAPE  H16X18647   2.222   0.600   8.221 -1.5280  0.7403  2.7902
  165SAPE  H16Y18648   2.109   0.537   8.091  2.8960 -1.7191  0.6743
  165SAPE  C31718649   2.026   0.641   8.264 -0.2015  0.8929  0.0958
  165SAPE  H17X18650   1.935   0.670   8.208  0.8470  1.2631 -1.4929
  165SAPE  H17Y18651   2.054   0.716   8.342  2.6572 -0.2367  0.2865
  165SAPE  C31818652   1.987   0.516   8.352  0.4667  0.4038  0.7140
  165SAPE  H18X18653   1.901   0.537   8.419  0.5486 -0.9021  1.2569
  165SAPE  H18Y18654   2.074   0.474   8.406  0.2432  0.3656  1.0497
  165SAPE  H18Z18655   1.946   0.440   8.281  0.1731  0.8824  0.3679
  166SAPE     N18656   4.188   5.319   5.638  0.2949  0.5316 -0.8510
  166SAPE   HN118657   4.124   5.368   5.573 -1.2734 -1.3522 -0.8218
  166SAPE   HN218658   4.214   5.399   5.699  2.0373  0.9974 -2.1181
  166SAPE   HN318659   4.278   5.289   5.594  1.1055  1.2365  0.2695
  166SAPE   C1218660   4.139   5.207   5.725 -0.7643 -0.4114 -0.5141
  166SAPE  H12A18661   4.219   5.142   5.766  0.7787  0.0951 -2.5189
  166SAPE  H12B18662   4.068   5.151   5.660 -1.1902 -0.3395 -0.1156
  166SAPE   C1118663   4.054   5.252   5.844 -0.1035 -0.1173  0.0770
  166SAPE  H11A18664   4.102   5.257   5.944 -1.7149 -1.2661  0.9389
  166SAPE  H11B18665   3.994   5.161   5.860  0.3223 -0.1115  1.9142
  166SAPE     P18666   3.891   5.445   5.917 -0.7286 -0.3058  0.2723
  166SAPE   O1318667   3.971   5.568   5.947 -0.0107  0.2016 -0.2929
  166SAPE   O1418668   3.749   5.459   5.884  0.2801 -1.3356 -0.4696
  166SAPE   O1218669   3.974   5.368   5.813  0.3670  0.2439 -0.3066
  166SAPE   O1118670   3.890   5.351   6.045 -0.0016 -0.6183 -0.6687
  166SAPE    C118671   3.809   5.244   6.071  0.8312 -0.3754  0.2719
  166SAPE    HA18672   3.704   5.278   6.082  1.6392  2.2880  0.4284
  166SAPE    HB18673   3.798   5.181   5.980 -0.9959  1.8904 -1.1603
  166SAPE    C218674   3.847   5.161   6.196 -0.0487 -0.0427 -0.3753
  166SAPE    HS18675   3.764   5.089   6.214  1.8842 -1.9626  1.2945
  166SAPE   O2118676   3.883   5.242   6.310 -0.4117  0.4461 -0.6498
  166SAPE   C2118677   3.776   5.289   6.383  0.2799  0.6853  0.1745
  166SAPE   O2218678   3.665   5.241   6.368  0.3086  0.0535 -0.1711
  166SAPE   C2218679   3.817   5.395   6.482  0.6222  0.8765  0.3259
  166SAPE   H2R18680   3.898   5.446   6.425 -0.6406  1.3925 -1.0820
  166SAPE   H2S18681   3.735   5.470   6.489  0.9031  1.7804 -3.7167
  166SAPE    C318682   3.961   5.063   6.164 -0.1458 -0.3299 -0.5278
  166SAPE    HX18683   4.036   5.121   6.106  0.3829  0.3988  0.8249
  166SAPE    HY18684   3.932   4.985   6.091  3.5708 -2.8501  0.4203
  166SAPE   O3118685   4.023   5.008   6.277 -0.6032 -0.0484 -0.0174
  166SAPE   C3118686   4.148   5.061   6.314  0.1392 -0.0531  0.0035
  166SAPE   O3218687   4.206   5.153   6.258 -0.3501 -0.3800  0.2625
  166SAPE   C3218688   4.218   4.963   6.408 -0.0611  0.4698 -1.0488
  166SAPE   H2X18689   4.319   4.932   6.374  0.5513  0.3518  0.7607
  166SAPE   H2Y18690   4.158   4.873   6.431 -1.6511  1.6135 -0.5080
  166SAPE   C2318691   3.853   5.345   6.622 -0.1834  0.0166 -0.0934
  166SAPE   H3R18692   3.787   5.263   6.659 -0.1797  0.4551  0.9316
  166SAPE   H3S18693   3.834   5.420   6.701  1.7447  1.1228 -0.6065
  166SAPE   C2418694   3.997   5.287   6.629 -0.0080  0.8039  0.2710
  166SAPE   H4R18695   4.008   5.230   6.534 -2.1532  3.5943 -1.8207
  166SAPE   H4S18696   4.009   5.233   6.725  1.0215  1.9270  0.8035
  166SAPE   C2518697   4.106   5.391   6.632  0.0564 -0.1017 -0.5181
  166SAPE   H5R18698   4.124   5.444   6.537  1.0752  2.0883  0.8210
  166SAPE   C2618699   4.161   5.439   6.749 -0.0238  0.0976  0.3098
  166SAPE   H6R18700   4.250   5.503   6.756  1.1799 -1.5336  0.7338
  166SAPE   C2718701   4.128   5.405   6.889  0.1336  0.1778 -0.1758
  166SAPE   H7R18702   4.207   5.337   6.929  1.6344  2.3388  0.7365
  166SAPE   H7S18703   4.032   5.349   6.890 -0.7122  1.5481 -1.0767
  166SAPE   C2818704   4.136   5.525   6.984  0.3308 -0.1599 -0.5708
  166SAPE   H8R18705   4.171   5.616   6.933  1.0193 -0.6469 -0.9717
  166SAPE   C2918706   4.112   5.531   7.119 -0.1237  0.3356 -0.5424
  166SAPE   H9R18707   4.113   5.627   7.173  3.0472 -0.0825  0.3496
  166SAPE  C21018708   4.063   5.419   7.208 -0.0286 -0.3616 -0.1631
  166SAPE  H10R18709   4.096   5.434   7.313  0.5077 -1.1567 -0.2069
  166SAPE  H10S18710   4.100   5.320   7.174  0.3012 -0.4034  0.3167
  166SAPE  C21118711   3.913   5.425   7.221 -0.5215  0.6289  0.5245
  166SAPE  H11R18712   3.864   5.379   7.134 -1.1948 -0.6190  1.5319
  166SAPE  C21218713   3.838   5.482   7.315  0.2624 -0.5612 -0.3539
  166SAPE  H12R18714   3.729   5.485   7.302  0.1426 -0.0633  0.6647
  166SAPE  C21318715   3.883   5.572   7.431  0.4752  0.2150 -0.3351
  166SAPE  H13R18716   3.985   5.606   7.403 -0.4752  0.7352 -3.6368
  166SAPE  H13S18717   3.891   5.500   7.515  1.6609 -0.5496 -1.0666
  166SAPE  C21418718   3.784   5.686   7.460  0.1739  0.3450  0.3004
  166SAPE  H14R18719   3.766   5.753   7.375  0.4620  0.6282  0.4622
  166SAPE  C21518720   3.734   5.722   7.577  0.4097 -0.8284  0.0801
  166SAPE  H15R18721   3.673   5.814   7.582  1.2211 -0.3261  1.2463
  166SAPE  C21618722   3.762   5.658   7.708  0.2934 -0.2765 -0.7106
  166SAPE  H16R18723   3.812   5.559   7.708 -2.4179 -1.7410 -0.0486
  166SAPE  H16S18724   3.663   5.645   7.756  1.7693  1.2503  3.1073
  166SAPE  C21718725   3.840   5.750   7.802 -0.5092 -0.3217 -0.0272
  166SAPE  H17R18726   3.911   5.803   7.734 -2.6121  2.7700 -0.0282
  166SAPE  H17S18727   3.899   5.679   7.864  1.8867  0.1789 -1.5625
  166SAPE  C21818728   3.765   5.861   7.887 -0.1594 -0.2987  0.4715
  166SAPE  H18R18729   3.668   5.820   7.924  0.3971 -0.6986  1.5076
  166SAPE  H18S18730   3.740   5.945   7.818  4.2521  0.2325 -0.7579
  166SAPE  C21918731   3.838   5.912   8.008  0.3101 -0.3494 -0.1622
  166SAPE  H19R18732   3.941   5.940   7.979 -0.8083  2.0835 -2.2227
  166SAPE  H19S18733   3.850   5.836   8.088 -1.2896 -0.8691 -0.3668
  166SAPE  C22018734   3.759   6.037   8.069 -0.5785 -0.1409 -0.2007
  166SAPE  H20R18735   3.814   6.078   8.157  2.6215 -0.2400 -1.9969
  166SAPE  H20S18736   3.653   6.014   8.092 -0.9859  0.6357 -1.2136
  166SAPE  H20T18737   3.753   6.107   7.982 -1.6827  0.2415  0.1645
  166SAPE   C3318738   4.241   5.028   6.546  0.4062  0.1699 -0.2939
  166SAPE   H3X18739   4.140   5.052   6.583  0.9558  0.7735  0.8401
  166SAPE   H3Y18740   4.311   5.114   6.548 -1.0825  1.4694 -1.6395
  166SAPE   C3418741   4.296   4.928   6.655 -0.6190 -0.1062  0.3030
  166SAPE   H4X18742   4.378   4.861   6.620  0.4055 -0.4146  3.0779
  166SAPE   H4Y18743   4.217   4.860   6.692  2.0931 -2.3105  2.4948
  166SAPE   C3518744   4.343   5.010   6.784  0.2926 -0.5155 -0.1304
  166SAPE   H5X18745   4.261   5.082   6.801 -0.8133 -1.5512 -0.8586
  166SAPE   H5Y18746   4.427   5.071   6.746  0.0249 -0.6252 -0.9271
  166SAPE   C3618747   4.379   4.927   6.910  0.7294  0.0430 -0.0212
  166SAPE   H6X18748   4.431   4.834   6.880 -0.5478 -0.2107 -1.5801
  166SAPE   H6Y18749   4.291   4.875   6.954  1.0559 -0.4557  0.0498
  166SAPE   C3718750   4.447   5.021   7.013  0.0952  0.3654  0.2666
  166SAPE   H7X18751   4.403   5.122   7.015  0.4950  0.5412  0.2858
  166SAPE   H7Y18752   4.552   5.044   6.985  0.0844 -0.2314 -0.2873
  166SAPE   C3818753   4.467   4.951   7.148  0.4972 -0.7844  0.3046
  166SAPE   H8X18754   4.543   5.013   7.202  0.1874  0.4756 -0.6468
  166SAPE   H8Y18755   4.516   4.853   7.133  3.6882  0.4186  1.7663
  166SAPE   C3918756   4.339   4.931   7.239 -0.1153  0.3054  0.6592
  166SAPE   H9X18757   4.270   4.849   7.208 -0.3128  0.8581 -0.4408
  166SAPE   H9Y18758   4.292   5.031   7.237 -1.2994 -0.2291 -1.2178
  166SAPE  C31018759   4.381   4.901   7.385  0.5595 -0.0516 -0.2661
  166SAPE  H10X18760   4.433   4.991   7.424  1.2269 -1.1622  1.5414
  166SAPE  H10Y18761   4.456   4.819   7.394  1.8088  1.1799  1.2268
  166SAPE  C31118762   4.260   4.864   7.480  0.0115  0.3071  0.1948
  166SAPE  H11X18763   4.235   4.755   7.484 -3.0686  0.9053 -0.3498
  166SAPE  H11Y18764   4.168   4.918   7.452 -0.3369 -0.7430 -0.8032
  166SAPE  C31218765   4.285   4.899   7.629  0.5496 -0.3165  0.7523
  166SAPE  H12X18766   4.331   5.000   7.634 -0.2034  0.0178  1.2187
  166SAPE  H12Y18767   4.363   4.830   7.667  1.2500 -0.4598 -0.8675
  166SAPE  C31318768   4.160   4.878   7.719  0.2084 -0.0434  0.6516
  166SAPE  H13X18769   4.133   4.771   7.703  0.9118 -0.3128  1.2324
  166SAPE  H13Y18770   4.071   4.936   7.686 -0.0873 -0.9848 -0.2716
  166SAPE  C31418771   4.188   4.899   7.865  0.0034  0.1494  0.1742
  166SAPE  H14X18772   4.221   5.004   7.879  2.4682 -0.4809 -0.4592
  166SAPE  H14Y18773   4.270   4.838   7.910  0.5469  0.9972  0.3754
  166SAPE  C31518774   4.063   4.870   7.946  0.1420 -0.5866  0.1808
  166SAPE  H15X18775   3.998   4.786   7.913 -0.3625 -0.0779 -0.1413
  166SAPE  H15Y18776   3.999   4.960   7.956 -2.2890 -2.3112  1.0875
  166SAPE  C31618777   4.107   4.823   8.090  1.5708  0.2657  0.3111
  166SAPE  H16X18778   4.197   4.883   8.117  1.2660  0.4732  0.8842
  166SAPE  H16Y18779   4.142   4.719   8.070  2.7940  0.8501 -0.7145
  166SAPE  C31718780   3.996   4.824   8.198  0.7462 -0.0805  0.3485
  166SAPE  H17X18781   3.908   4.768   8.160 -0.2845  2.1536 -0.7168
  166SAPE  H17Y18782   3.953   4.926   8.203  1.2334  0.1524 -0.0972
  166SAPE  C31818783   4.040   4.767   8.331 -0.6312  0.5535  0.2889
  166SAPE  H18X18784   4.068   4.659   8.331  0.9183  0.8857 -2.1522
  166SAPE  H18Y18785   3.950   4.781   8.394  0.1212  2.8508  0.9541
  166SAPE  H18Z18786   4.125   4.824   8.374  0.7672 -0.9755 -0.3118
  167SAPE     N18787   4.058   5.794   6.078 -0.1289 -0.2422 -0.7260
  167SAPE   HN118788   4.157   5.816   6.102 -0.8849  1.7446  0.8653
  167SAPE   HN218789   3.995   5.808   6.159  0.9159  2.8660 -0.3066
  167SAPE   HN318790   4.049   5.695   6.048 -0.4149 -0.1728 -0.8738
  167SAPE   C1218791   4.014   5.893   5.982  0.7465 -0.0767  0.3948
  167SAPE  H12A18792   3.955   5.980   6.018 -0.8428 -0.2872 -1.4786
  167SAPE  H12B18793   3.959   5.846   5.897  2.4138 -1.3464 -0.0333
  167SAPE   C1118794   4.135   5.948   5.900  0.8579  0.0220  0.0194
  167SAPE  H11A18795   4.100   6.013   5.817 -3.5075 -0.8903  0.8827
  167SAPE  H11B18796   4.170   5.855   5.850 -1.6670 -0.1691 -1.5565
  167SAPE     P18797   4.225   6.156   6.047  0.0886 -0.4495  0.3304
  167SAPE   O1318798   4.353   6.203   6.114 -0.0409 -0.5679 -0.3457
  167SAPE   O1418799   4.161   6.249   5.950 -0.2329  0.2845  0.0541
  167SAPE   O1218800   4.242   6.008   5.983 -0.1983 -0.6599 -0.1665
  167SAPE   O1118801   4.116   6.118   6.155  0.4085 -0.1024  0.1700
  167SAPE    C118802   4.040   6.229   6.210  0.0654  0.4656 -0.5737
  167SAPE    HA18803   4.093   6.326   6.214  1.6794 -0.4273  2.5139
  167SAPE    HB18804   3.946   6.231   6.151 -1.6365 -0.9252  1.9078
  167SAPE    C218805   3.991   6.172   6.344 -0.3361  0.0970  0.1871
  167SAPE    HS18806   3.972   6.063   6.336 -1.6638  0.3252 -0.0567
  167SAPE   O2118807   3.883   6.255   6.396 -0.2421  0.4473  0.5960
  167SAPE   C2118808   3.764   6.208   6.376  0.4394 -0.2650 -0.4344
  167SAPE   O2218809   3.732   6.104   6.320  0.2932 -0.9166  0.2875
  167SAPE   C2218810   3.661   6.294   6.453 -0.4142  0.4238  0.5617
  167SAPE   H2R18811   3.668   6.398   6.414 -2.2872  1.1898  2.1079
  167SAPE   H2S18812   3.564   6.249   6.422  1.0212 -0.3837 -3.3623
  167SAPE    C318813   4.110   6.193   6.442 -0.7944  0.2828  0.2980
  167SAPE    HX18814   4.129   6.300   6.465  2.4198 -0.6364  2.6987
  167SAPE    HY18815   4.199   6.155   6.388 -1.2481  1.5491 -1.4304
  167SAPE   O3118816   4.088   6.120   6.565  0.2754  0.3030 -0.2621
  167SAPE   C3118817   4.100   6.184   6.682  0.2801  0.8322  0.6704
  167SAPE   O3218818   4.117   6.305   6.703 -0.4890 -0.2841 -0.2284
  167SAPE   C3218819   4.072   6.085   6.797 -0.5421  0.0015 -0.2967
  167SAPE   H2X18820   3.996   6.009   6.770 -0.6799 -0.0791  0.3036
  167SAPE   H2Y18821   4.046   6.141   6.890  1.8920  0.1250  0.3854
  167SAPE   C2318822   3.679   6.312   6.606  0.4055  0.0744 -0.5442
  167SAPE   H3R18823   3.612   6.391   6.644  2.2315  1.5776 -0.3013
  167SAPE   H3S18824   3.781   6.356   6.614 -0.0812  0.8924  2.5101
  167SAPE   C2418825   3.670   6.175   6.687  0.5851 -0.0746  0.4621
  167SAPE   H4R18826   3.694   6.185   6.795  1.4501  1.1719  0.1677
  167SAPE   H4S18827   3.762   6.121   6.656  0.8441 -0.9750  2.6083
  167SAPE   C2518828   3.546   6.093   6.663  0.1853  0.1831  0.1385
  167SAPE   H5R18829   3.533   6.063   6.558  2.0302 -1.7912  0.4098
  167SAPE   C2618830   3.451   6.063   6.755 -0.2377 -0.4288 -0.0379
  167SAPE   H6R18831   3.361   6.002   6.739  0.3253 -1.3000  0.0650
  167SAPE   C2718832   3.460   6.111   6.899 -0.3926  0.5990 -0.1466
  167SAPE   H7R18833   3.563   6.144   6.924 -0.1013  0.4106 -1.0491
  167SAPE   H7S18834   3.425   6.029   6.966  2.0249  0.7649  1.4364
  167SAPE   C2818835   3.365   6.228   6.939  0.2896 -0.0057  0.0221
  167SAPE   H8R18836   3.324   6.276   6.849  1.9003 -1.2249 -1.4382
  167SAPE   C2918837   3.314   6.252   7.057  0.2121 -0.4036 -0.3789
  167SAPE   H9R18838   3.250   6.342   7.058  0.8281  0.0901 -1.8525
  167SAPE  C21018839   3.345   6.185   7.185 -0.0834 -0.5795  0.5712
  167SAPE  H10R18840   3.448   6.143   7.176  0.6469  1.2382 -0.0456
  167SAPE  H10S18841   3.280   6.095   7.189  0.6284 -1.0858  0.9891
  167SAPE  C21118842   3.336   6.275   7.304  0.2315 -0.3155 -0.0777
  167SAPE  H11R18843   3.344   6.382   7.281 -1.0021 -0.4624 -1.2903
  167SAPE  C21218844   3.339   6.240   7.435 -0.0563  0.2040  0.8632
  167SAPE  H12R18845   3.339   6.325   7.505  2.9587  0.7973  0.2476
  167SAPE  C21318846   3.342   6.102   7.495  0.1535 -0.6362 -0.1502
  167SAPE  H13R18847   3.359   6.026   7.415  5.2129  1.7292 -1.8045
  167SAPE  H13S18848   3.242   6.077   7.536 -1.1998  0.3087 -2.6172
  167SAPE  C21418849   3.449   6.082   7.593 -0.0666  0.2107  0.0145
  167SAPE  H14R18850   3.546   6.124   7.564 -0.4149  0.8529 -0.2349
  167SAPE  C21518851   3.435   6.021   7.710  0.8469  0.5269  0.3115
  167SAPE  H15R18852   3.531   6.001   7.759  0.0945 -0.9798  1.2612
  167SAPE  C21618853   3.316   5.955   7.776  0.2604 -0.5699  0.3631
  167SAPE  H16R18854   3.353   5.859   7.817 -0.3593 -0.5015  1.0807
  167SAPE  H16S18855   3.228   5.934   7.711  0.8988 -0.6703 -0.5016
  167SAPE  C21718856   3.267   6.041   7.896 -0.0079  0.0705  0.5452
  167SAPE  H17R18857   3.173   5.995   7.932  0.5162 -3.3478 -1.9430
  167SAPE  H17S18858   3.240   6.144   7.863  0.6649  0.2358  0.5023
  167SAPE  C21818859   3.362   6.046   8.008 -0.4554 -0.4509  0.3612
  167SAPE  H18R18860   3.457   6.097   7.982 -0.0287 -0.8773  1.0384
  167SAPE  H18S18861   3.387   5.940   8.032 -0.6444 -0.9171 -1.4086
  167SAPE  C21918862   3.307   6.119   8.127 -0.5454 -0.8048  0.0795
  167SAPE  H19R18863   3.254   6.207   8.085  0.4580  0.4618  1.3908
  167SAPE  H19S18864   3.388   6.157   8.192  0.9039  2.3945 -3.2686
  167SAPE  C22018865   3.203   6.041   8.215  0.0877  0.3483  0.0328
  167SAPE  H20R18866   3.160   6.112   8.288  0.4600  0.0360  0.5619
  167SAPE  H20S18867   3.257   5.962   8.272 -0.8012 -0.0778  0.2986
  167SAPE  H20T18868   3.125   5.994   8.152  0.3465 -1.3983  0.9485
  167SAPE   C3318869   4.214   6.011   6.827  0.3361 -0.2931 -0.7562
  167SAPE   H3X18870   4.297   6.084   6.834  2.8721 -3.0006 -0.6068
  167SAPE   H3Y18871   4.225   5.951   6.734 -0.0974  0.5853 -1.3932
  167SAPE   C3418872   4.221   5.923   6.958  0.0858 -0.0881  0.4116
  167SAPE   H4X18873   4.164   5.828   6.947 -2.4802  1.4173 -0.0106
  167SAPE   H4Y18874   4.181   5.988   7.039  0.3255  0.8590 -0.2099
  167SAPE   C3518875   4.361   5.886   7.000 -0.3269  0.8044 -0.3317
  167SAPE   H5X18876   4.408   5.985   7.018  0.6164  0.2630  0.2430
  167SAPE   H5Y18877   4.403   5.829   6.914  0.7671 -0.3751  0.9530
  167SAPE   C3618878   4.372   5.797   7.129  0.4208  0.2866  0.8641
  167SAPE   H6X18879   4.469   5.744   7.135 -0.4117 -1.3189  0.7229
  167SAPE   H6Y18880   4.290   5.722   7.121 -1.1151  1.7862  1.7682
  167SAPE   C3718881   4.353   5.868   7.259  0.4151 -1.1548 -0.7932
  167SAPE   H7X18882   4.247   5.901   7.254  0.1856 -1.7975 -0.3226
  167SAPE   H7Y18883   4.416   5.957   7.280 -0.5784 -1.3159  3.7916
  167SAPE   C3818884   4.366   5.772   7.383 -0.1145 -0.4213  0.1558
  167SAPE   H8X18885   4.474   5.752   7.400 -0.0336  0.4410  0.6837
  167SAPE   H8Y18886   4.303   5.683   7.360 -0.6685  0.5159 -2.3871
  167SAPE   C3918887   4.332   5.836   7.513 -0.2385  0.0715 -0.3968
  167SAPE   H9X18888   4.244   5.901   7.490  0.3231  1.3079  0.8304
  167SAPE   H9Y18889   4.412   5.906   7.544 -0.3931  0.0001  0.1696
  167SAPE  C31018890   4.308   5.741   7.630 -0.3730  0.5527 -0.0389
  167SAPE  H10X18891   4.391   5.667   7.634  0.9709  2.0634  1.8562
  167SAPE  H10Y18892   4.222   5.675   7.607  1.8466 -2.2139 -0.9049
  167SAPE  C31118893   4.324   5.821   7.766 -0.6059  0.1562  0.3242
  167SAPE  H11X18894   4.230   5.877   7.783 -1.6505 -1.1445 -0.9216
  167SAPE  H11Y18895   4.401   5.901   7.758 -1.9601  1.3998 -0.6182
  167SAPE  C31218896   4.344   5.721   7.888 -0.2245 -0.2873  0.0858
  167SAPE  H12X18897   4.426   5.652   7.856 -0.5368 -1.0450  0.8778
  167SAPE  H12Y18898   4.248   5.666   7.899 -0.1726 -0.6465 -1.0630
  167SAPE  C31318899   4.379   5.793   8.019  0.0594 -0.5942 -0.3183
  167SAPE  H13X18900   4.296   5.861   8.046 -0.0307  0.2446 -2.4882
  167SAPE  H13Y18901   4.471   5.851   7.996  0.1759 -0.9307 -0.7297
  167SAPE  C31418902   4.406   5.699   8.135 -0.1367  0.7724  0.5541
  167SAPE  H14X18903   4.471   5.750   8.209  0.5431 -1.1238  1.3374
  167SAPE  H14Y18904   4.467   5.617   8.091  2.0394  2.5082  0.1656
  167SAPE  C31518905   4.280   5.635   8.199 -0.3759 -0.3031  0.5282
  167SAPE  H15X18906   4.251   5.553   8.130 -3.5832  1.5560 -0.5409
  167SAPE  H15Y18907   4.203   5.715   8.201  1.1990  1.2768  0.3844
  167SAPE  C31618908   4.313   5.588   8.336  0.1100  0.8766  0.0385
  167SAPE  H16X18909   4.378   5.500   8.315 -0.8764  0.8925 -3.8037
  167SAPE  H16Y18910   4.221   5.550   8.383  0.2532 -1.5796 -1.4981
  167SAPE  C31718911   4.395   5.685   8.430  0.8325  0.2772  0.0818
  167SAPE  H17X18912   4.341   5.782   8.437  1.3958  0.6466 -0.5046
  167SAPE  H17Y18913   4.493   5.716   8.387  0.6505  2.3943  1.0439
  167SAPE  C31818914   4.413   5.626   8.563 -0.4065  0.0106  0.6223
  167SAPE  H18X18915   4.486   5.542   8.565 -1.5823 -1.0291  1.5909
  167SAPE  H18Y18916   4.311   5.600   8.599 -0.7688  1.5455  0.7621
  167SAPE  H18Z18917   4.452   5.703   8.633  1.4980  0.8311 -1.2499
  168SAPE     N18918   6.513   4.867   6.277  0.6082 -0.2412  0.0178
  168SAPE   HN118919   6.427   4.808   6.271 -0.6277  1.5217 -0.3712
  168SAPE   HN218920   6.504   4.942   6.206  2.3536  0.2495  0.2837
  168SAPE   HN318921   6.595   4.808   6.251  1.1446  0.5149 -0.0312
  168SAPE   C1218922   6.536   4.937   6.402  0.3886  0.3143 -0.1004
  168SAPE  H12A18923   6.606   5.022   6.384  2.7955 -2.0963 -3.3410
  168SAPE  H12B18924   6.572   4.860   6.473  0.2323 -0.0495 -0.4141
  168SAPE   C1118925   6.395   4.981   6.451  0.0428 -0.5718  0.0778
  168SAPE  H11A18926   6.397   5.015   6.556 -0.6678 -0.0517 -0.0724
  168SAPE  H11B18927   6.324   4.895   6.449  1.0094 -1.3830 -0.5599
  168SAPE     P18928   6.342   5.237   6.393  0.0884  0.2137  0.2684
  168SAPE   O1318929   6.426   5.309   6.291 -0.9395  0.6295  0.0291
  168SAPE   O1418930   6.204   5.285   6.400  0.2748 -0.7340 -0.3839
  168SAPE   O1218931   6.340   5.078   6.362  0.3333  0.5760  0.0983
  168SAPE   O1118932   6.397   5.255   6.534  0.3025 -0.0527 -0.5598
  168SAPE    C118933   6.526   5.301   6.567  1.0983  0.0171  0.1205
  168SAPE    HA18934   6.613   5.246   6.525  3.4335  2.7685  0.9817
  168SAPE    HB18935   6.541   5.402   6.522  0.8099 -0.3707 -0.8857
  168SAPE    C218936   6.559   5.314   6.721  1.1841 -0.1403 -0.0270
  168SAPE    HS18937   6.668   5.309   6.739  1.2038  1.2678  0.3945
  168SAPE   O2118938   6.489   5.207   6.794 -0.1980  0.6256 -0.5652
  168SAPE   C2118939   6.548   5.088   6.784 -0.7409  0.3652 -0.5576
  168SAPE   O2218940   6.640   5.061   6.713 -0.4821  0.6384 -0.4290
  168SAPE   C2218941   6.465   4.980   6.849 -0.2478 -0.0903 -0.3534
  168SAPE   H2R18942   6.426   5.030   6.940  0.1322  0.1674 -0.3290
  168SAPE   H2S18943   6.388   4.949   6.775  0.2071 -3.1505  0.3258
  168SAPE    C318944   6.517   5.463   6.771 -1.1505 -0.1052  0.4604
  168SAPE    HX18945   6.418   5.483   6.724 -0.9860 -0.6641 -0.1271
  168SAPE    HY18946   6.594   5.533   6.732 -0.2084 -1.6036 -0.4585
  168SAPE   O3118947   6.520   5.486   6.910 -0.1506  0.0279 -1.1223
  168SAPE   C3118948   6.419   5.432   6.979  0.1948 -0.3809  0.2629
  168SAPE   O3218949   6.324   5.373   6.933  0.1172  0.2648  0.3771
  168SAPE   C3218950   6.431   5.475   7.122  0.0968  0.1841 -0.1919
  168SAPE   H2X18951   6.378   5.572   7.133 -0.4212 -0.1210  0.0403
  168SAPE   H2Y18952   6.539   5.474   7.148 -0.0011 -2.4243  0.4040
  168SAPE   C2318953   6.536   4.847   6.860  0.0698 -0.0389  0.2437
  168SAPE   H3R18954   6.641   4.860   6.894 -0.3507 -2.2450  2.6621
  168SAPE   H3S18955   6.535   4.810   6.755 -1.4741 -0.8335  0.5067
  168SAPE   C2418956   6.465   4.743   6.948  0.0270  0.1263  0.1743
  168SAPE   H4R18957   6.515   4.747   7.047  0.9892  2.2736 -0.3428
  168SAPE   H4S18958   6.490   4.643   6.908 -2.3596  0.4934 -2.6218
  168SAPE   C2518959   6.313   4.758   6.948  0.5107 -0.2810 -0.5908
  168SAPE   H5R18960   6.271   4.726   6.852  1.1192 -1.2686 -0.5366
  168SAPE   C2618961   6.243   4.801   7.058 -0.8446 -0.3260  0.4824
  168SAPE   H6R18962   6.134   4.794   7.047 -1.0880  2.7857  0.0568
  168SAPE   C2718963   6.301   4.852   7.183  0.0549 -0.3435 -0.6877
  168SAPE   H7R18964   6.410   4.832   7.183  0.0838 -0.5616  1.6093
  168SAPE   H7S18965   6.260   4.787   7.264  0.7745 -1.1942 -0.9950
  168SAPE   C2818966   6.292   4.996   7.212 -0.1321 -0.1267 -0.3760
  168SAPE   H8R18967   6.327   5.063   7.133 -1.3554 -1.8012 -2.4557
  168SAPE   C2918968   6.244   5.055   7.325 -1.2098 -0.1914  0.7432
  168SAPE   H9R18969   6.264   5.163   7.332 -0.4356 -0.2390 -0.4307
  168SAPE  C21018970   6.189   4.991   7.453 -0.7202 -0.1744  0.1903
  168SAPE  H10R18971   6.258   5.014   7.537  0.0840  1.9260 -0.9610
  168SAPE  H10S18972   6.179   4.883   7.427  3.2701 -0.5558 -0.3806
  168SAPE  C21118973   6.060   5.053   7.499  0.2768 -0.0772  0.4177
  168SAPE  H11R18974   5.995   5.084   7.416  1.0869 -2.2102 -1.1253
  168SAPE  C21218975   6.028   5.073   7.628 -0.7909 -0.2181 -0.3806
  168SAPE  H12R18976   5.933   5.123   7.652 -0.9738 -0.0253 -1.4403
  168SAPE  C21318977   6.113   5.036   7.747  0.3460 -0.3902  0.6962
  168SAPE  H13R18978   6.201   4.971   7.727  1.7062  0.7535  2.6473
  168SAPE  H13S18979   6.050   4.976   7.816 -0.2392  0.2606  0.7353
  168SAPE  C21418980   6.154   5.162   7.822 -0.8388  1.2161  0.1641
  168SAPE  H14R18981   6.224   5.227   7.768 -1.1815  1.5420  0.1064
  168SAPE  C21518982   6.125   5.192   7.950 -0.2217 -0.1492 -0.4834
  168SAPE  H15R18983   6.180   5.275   7.997  0.7975 -2.3956  2.5972
  168SAPE  C21618984   6.049   5.121   8.059 -0.5546 -0.0372  0.0480
  168SAPE  H16R18985   5.981   5.042   8.021 -1.8777  1.4847 -0.8796
  168SAPE  H16S18986   5.977   5.193   8.102 -1.4586 -0.0239 -1.4016
  168SAPE  C21718987   6.149   5.061   8.163  0.3606  0.2878  0.9550
  168SAPE  H17R18988   6.198   5.145   8.217 -0.0627  0.2492  1.4170
  168SAPE  H17S18989   6.227   5.007   8.106  0.0273  0.4362  0.3471
  168SAPE  C21818990   6.081   4.971   8.268  0.0250 -0.7746  0.1137
  168SAPE  H18R18991   6.157   4.915   8.326  1.6188  0.1592 -0.9948
  168SAPE  H18S18992   6.008   4.904   8.218 -1.5623 -0.2314  1.5933
  168SAPE  C21918993   5.987   5.049   8.363 -0.0251  0.5042  0.1892
  168SAPE  H19R18994   5.897   5.084   8.308 -0.0069 -2.0488 -1.6462
  168SAPE  H19S18995   6.029   5.147   8.394 -1.3908  1.2292 -0.1479
  168SAPE  C22018996   5.934   4.950   8.468 -0.0224  0.3794  0.8700
  168SAPE  H20R18997   5.950   4.845   8.435  1.1998  0.8189 -0.0323
  168SAPE  H20S18998   5.829   4.973   8.495 -0.1597 -1.4158  2.0760
  168SAPE  H20T18999   6.005   4.955   8.553 -0.7531  0.1929  1.4958
  168SAPE   C3319000   6.364   5.372   7.222  0.0887  0.5820 -0.0869
  168SAPE   H3X19001   6.388   5.266   7.195 -0.3063  0.4702 -0.0076
  168SAPE   H3Y19002   6.253   5.378   7.222  0.0526  0.0045  0.2882
  168SAPE   C3419003   6.408   5.381   7.368 -0.1288  0.0033 -0.1594
  168SAPE   H4X19004   6.510   5.425   7.375  0.2103 -1.0914  4.3723
  168SAPE   H4Y19005   6.417   5.281   7.414  0.7428 -0.9760 -2.3233
  168SAPE   C3519006   6.313   5.462   7.462 -0.6832 -0.2272  0.4351
  168SAPE   H5X19007   6.208   5.427   7.454 -0.1397 -2.2207  1.3564
  168SAPE   H5Y19008   6.303   5.569   7.431  0.5595  0.2865  1.7155
  168SAPE   C3619009   6.353   5.459   7.607 -0.7354 -0.1592  0.0194
  168SAPE   H6X19010   6.452   5.510   7.605  0.0312 -1.4710  1.8308
  168SAPE   H6Y19011   6.364   5.355   7.645 -1.8910 -0.2048  0.2589
  168SAPE   C3719012   6.248   5.527   7.700 -0.3321  0.2154  0.1985
  168SAPE   H7X19013   6.155   5.468   7.715  0.0455 -0.0105  1.8556
  168SAPE   H7Y19014   6.217   5.628   7.666 -1.3085 -0.0504  0.2587
  168SAPE   C3819015   6.304   5.552   7.839 -0.4818 -0.5160 -0.5092
  168SAPE   H8X19016   6.330   5.450   7.876 -1.2782 -0.8620 -0.8762
  168SAPE   H8Y19017   6.219   5.588   7.901  0.8430  0.0445  1.0604
  168SAPE   C3919018   6.413   5.657   7.865  0.1108 -0.3930 -0.2133
  168SAPE   H9X19019   6.365   5.757   7.870 -1.8987 -1.3369  0.2533
  168SAPE   H9Y19020   6.497   5.661   7.792  3.3584 -0.8328  3.1617
  168SAPE  C31019021   6.491   5.630   7.996 -0.2935 -0.4759  0.5018
  168SAPE  H10X19022   6.566   5.710   8.014  1.6650 -1.5582 -2.2116
  168SAPE  H10Y19023   6.543   5.533   7.987 -0.3024 -0.6323  1.9507
  168SAPE  C31119024   6.402   5.627   8.115  0.0805 -0.5561 -0.2875
  168SAPE  H11X19025   6.312   5.562   8.106 -1.2622  0.9468  1.6096
  168SAPE  H11Y19026   6.354   5.725   8.134  1.2206 -0.0492  0.0738
  168SAPE  C31219027   6.479   5.583   8.238 -0.1405 -0.0752 -0.3250
  168SAPE  H12X19028   6.566   5.653   8.246 -0.2255 -0.1169  1.4025
  168SAPE  H12Y19029   6.526   5.483   8.223 -1.7070 -1.0224  0.8499
  168SAPE  C31319030   6.402   5.571   8.372 -0.1943 -0.2893  0.0161
  168SAPE  H13X19031   6.374   5.671   8.411 -0.7383 -0.3650 -0.1769
  168SAPE  H13Y19032   6.469   5.519   8.444 -2.5394 -0.8161  1.9312
  168SAPE  C31419033   6.277   5.490   8.362 -0.0250 -0.0217 -0.7261
  168SAPE  H14X19034   6.302   5.393   8.313  0.3998  0.2002 -0.9484
  168SAPE  H14Y19035   6.197   5.541   8.305 -0.6204 -1.3803 -1.1665
  168SAPE  C31519036   6.221   5.459   8.501 -0.1653  0.3750 -0.5971
  168SAPE  H15X19037   6.299   5.422   8.570 -0.9257  2.0909  1.2826
  168SAPE  H15Y19038   6.151   5.374   8.490  1.9727 -1.2094 -3.0106
  168SAPE  C31619039   6.161   5.587   8.561  0.4867  0.3005 -0.3177
  168SAPE  H16X19040   6.099   5.648   8.492 -0.5674  0.0567  0.3836
  168SAPE  H16Y19041   6.247   5.649   8.594  0.3008  0.3200  0.1370
  168SAPE  C31719042   6.067   5.560   8.677  0.1394 -0.4722  0.2937
  168SAPE  H17X19043   6.130   5.511   8.755  0.7828 -2.6801 -1.5129
  168SAPE  H17Y19044   5.987   5.486   8.658 -0.8415  1.0235 -1.8917
  168SAPE  C31819045   6.006   5.690   8.732 -0.4519  0.3336  0.2971
  168SAPE  H18X19046   5.947   5.732   8.648 -0.3125  0.0119  0.0346
  168SAPE  H18Y19047   6.084   5.765   8.756  0.5032 -0.8463  1.0337
  168SAPE  H18Z19048   5.946   5.669   8.823 -0.9067 -3.0539 -0.6230
  169SAPE     N19049   0.267   0.096   6.533  0.4002  0.4719  0.4000
  169SAPE   HN119050   0.267  -0.007   6.525  2.5201  0.5128 -0.9752
  169SAPE   HN219051   0.349   0.136   6.584  1.9827 -1.0348 -0.8192
  169SAPE   HN319052   0.172   0.122   6.564 -0.3389 -1.2756 -0.2927
  169SAPE   C1219053   0.289   0.153   6.394  0.5042  0.0849  0.2782
  169SAPE  H12A19054   0.385   0.122   6.349 -0.2607  1.7024 -2.6850
  169SAPE  H12B19055   0.299   0.263   6.404  0.4614  0.1488 -0.3362
  169SAPE   C1119056   0.182   0.099   6.294 -0.2934  0.1287 -0.4080
  169SAPE  H11A19057   0.191  -0.012   6.286 -1.7498  0.0868 -2.0317
  169SAPE  H11B19058   0.211   0.151   6.201 -2.1074 -1.6227 -2.0793
  169SAPE     P19059  -0.065   0.076   6.228  0.1968 -0.3523  0.0168
  169SAPE   O1319060  -0.043   0.109   6.083 -0.1823 -0.4427 -0.1929
  169SAPE   O1419061  -0.087  -0.063   6.256  0.2957  0.9917 -1.3607
  169SAPE   O1219062   0.047   0.131   6.328 -0.5880  0.1969  0.2947
  169SAPE   O1119063  -0.192   0.156   6.284  0.5271  0.0138  0.1264
  169SAPE    C119064  -0.182   0.296   6.318  0.0822 -0.2046 -0.1697
  169SAPE    HA19065  -0.112   0.357   6.257 -2.0029  2.7317  0.1635
  169SAPE    HB19066  -0.285   0.337   6.324  0.7218  1.3447  0.7812
  169SAPE    C219067  -0.142   0.315   6.473  0.6350  0.3364  0.6321
  169SAPE    HS19068  -0.040   0.269   6.469  0.5233  0.1860 -0.6479
  169SAPE   O2119069  -0.241   0.241   6.551 -0.9125  0.1325  0.2130
  169SAPE   C2119070  -0.192   0.201   6.665 -0.6280  0.2174  0.1817
  169SAPE   O2219071  -0.073   0.189   6.692 -0.2605 -0.3786  0.2403
  169SAPE   C2219072  -0.309   0.179   6.767  0.2197  0.2793  0.4228
  169SAPE   H2R19073  -0.407   0.198   6.717  1.1423  0.7148 -1.3217
  169SAPE   H2S19074  -0.308   0.069   6.783 -1.4495  0.2046  0.2213
  169SAPE    C319075  -0.118   0.463   6.501  0.6970 -1.1029 -0.4378
  169SAPE    HX19076  -0.218   0.512   6.496  0.2938 -1.8466  0.1113
  169SAPE    HY19077  -0.046   0.502   6.426  0.2786 -2.1069 -1.3934
  169SAPE   O3119078  -0.062   0.481   6.635  0.1371 -0.6926  0.2297
  169SAPE   C3119079   0.066   0.446   6.650  0.7881  0.5327 -0.4714
  169SAPE   O3219080   0.135   0.406   6.563 -0.9947  0.9454 -0.4701
  169SAPE   C3219081   0.116   0.454   6.793  0.4967  0.3714 -0.5847
  169SAPE   H2X19082   0.042   0.411   6.864  2.5512  0.9503  2.0680
  169SAPE   H2Y19083   0.126   0.563   6.814  1.5873 -0.0429  1.3218
  169SAPE   C2319084  -0.294   0.272   6.894 -0.4115 -0.1835  0.1408
  169SAPE   H3R19085  -0.288   0.368   6.839 -0.8167 -0.5222 -0.5211
  169SAPE   H3S19086  -0.194   0.260   6.941  0.4274  1.0727 -1.2319
  169SAPE   C2419087  -0.414   0.274   6.992  0.4221 -0.0507  0.2155
  169SAPE   H4R19088  -0.438   0.169   7.017  0.1634  0.1217  0.7001
  169SAPE   H4S19089  -0.507   0.308   6.943 -1.5137 -2.5307  1.9279
  169SAPE   C2519090  -0.390   0.341   7.126  0.6270  0.7474  0.3677
  169SAPE   H5R19091  -0.359   0.446   7.114 -0.6758  1.1162  0.0954
  169SAPE   C2619092  -0.407   0.291   7.252  0.9739 -0.2033 -0.8152
  169SAPE   H6R19093  -0.377   0.348   7.342  1.7011  1.2387 -1.9415
  169SAPE   C2719094  -0.453   0.146   7.286  0.4797 -0.3456  0.0897
  169SAPE   H7R19095  -0.540   0.113   7.226  0.4428 -1.3556  0.6802
  169SAPE   H7S19096  -0.498   0.147   7.388 -2.0432 -1.0635 -0.9328
  169SAPE   C2819097  -0.337   0.053   7.281 -0.2332 -0.2979 -0.3547
  169SAPE   H8R19098  -0.305   0.033   7.177 -0.1056  1.8738 -0.7810
  169SAPE   C2919099  -0.264   0.005   7.384  0.0955  0.4601 -0.1276
  169SAPE   H9R19100  -0.206  -0.083   7.352 -1.7946 -0.7830 -0.3132
  169SAPE  C21019101  -0.298   0.033   7.525 -0.3550  0.1554 -0.6074
  169SAPE  H10R19102  -0.361  -0.047   7.570  0.3762 -0.0611  0.0533
  169SAPE  H10S19103  -0.359   0.126   7.537 -3.2117 -1.5458 -0.9912
  169SAPE  C21119104  -0.180   0.052   7.617  0.4904  0.0236 -0.2079
  169SAPE  H11R19105  -0.086  -0.001   7.595  0.8079 -1.0652  3.1175
  169SAPE  C21219106  -0.170   0.128   7.729  0.3107  0.0289 -0.0757
  169SAPE  H12R19107  -0.080   0.117   7.791 -1.2332 -1.4112  2.0531
  169SAPE  C21319108  -0.274   0.219   7.795 -0.5105 -0.1693 -0.0010
  169SAPE  H13R19109  -0.350   0.259   7.725 -1.0465 -0.5639  0.3536
  169SAPE  H13S19110  -0.215   0.307   7.831 -1.1108  0.7701 -1.2230
  169SAPE  C21419111  -0.351   0.139   7.897  0.2650 -0.2190 -0.4456
  169SAPE  H14R19112  -0.369   0.040   7.854  1.2242  0.0734 -1.6017
  169SAPE  C21519113  -0.387   0.175   8.022  0.7447  0.8153  0.0236
  169SAPE  H15R19114  -0.443   0.100   8.080  2.3432 -0.3875  0.0507
  169SAPE  C21619115  -0.357   0.312   8.087  0.2493  0.0735 -0.1687
  169SAPE  H16R19116  -0.445   0.363   8.132 -0.6760 -0.6157 -1.1187
  169SAPE  H16S19117  -0.339   0.387   8.007  0.3867 -0.3881 -0.5817
  169SAPE  C21719118  -0.240   0.286   8.189  0.1085 -0.5235 -0.1355
  169SAPE  H17R19119  -0.148   0.250   8.138  0.0670  0.3503 -0.8490
  169SAPE  H17S19120  -0.266   0.217   8.271 -0.5226 -0.3044 -0.1485
  169SAPE  C21819121  -0.195   0.425   8.245 -0.0532  0.6217  0.5346
  169SAPE  H18R19122  -0.283   0.487   8.273 -1.0046  0.4586 -1.8455
  169SAPE  H18S19123  -0.130   0.480   8.173 -0.8640 -0.0542 -0.7480
  169SAPE  C21919124  -0.101   0.406   8.370  0.1644 -0.4375 -0.0830
  169SAPE  H19R19125  -0.009   0.363   8.325  1.1350  1.5404 -0.0928
  169SAPE  H19S19126  -0.144   0.334   8.443 -0.2213  0.4625  0.5908
  169SAPE  C22019127  -0.071   0.538   8.440  0.2182  0.9752  0.5289
  169SAPE  H20R19128   0.012   0.537   8.514 -1.3758  1.1818  2.3905
  169SAPE  H20S19129  -0.152   0.568   8.509  1.0284  2.7700  0.7625
  169SAPE  H20T19130  -0.062   0.624   8.371  0.2492  2.0414  1.8228
  169SAPE   C3319131   0.259   0.397   6.820  0.2975  0.8902  0.0404
  169SAPE   H3X19132   0.338   0.411   6.742  0.1929 -0.1735 -0.2721
  169SAPE   H3Y19133   0.246   0.287   6.829  1.2690  0.3864 -3.2896
  169SAPE   C3419134   0.305   0.444   6.961  0.4540  0.5762 -0.5072
  169SAPE   H4X19135   0.341   0.549   6.959  0.0575  0.7293  0.1180
  169SAPE   H4Y19136   0.391   0.377   6.984  1.6442  2.0111 -0.5871
  169SAPE   C3519137   0.215   0.415   7.081  0.3450 -0.2532  0.8223
  169SAPE   H5X19138   0.184   0.308   7.074  0.3372 -0.2107  0.2209
  169SAPE   H5Y19139   0.121   0.475   7.075  0.8824  0.4683 -0.6776
  169SAPE   C3619140   0.275   0.427   7.221 -0.0822  0.6023  0.0989
  169SAPE   H6X19141   0.330   0.524   7.218  0.1004  0.4768 -0.9783
  169SAPE   H6Y19142   0.358   0.354   7.235 -0.4531  0.2284  0.3743
  169SAPE   C3719143   0.175   0.407   7.332 -0.0727 -0.0705  0.5615
  169SAPE   H7X19144   0.124   0.314   7.299  2.6801 -1.0971 -1.1913
  169SAPE   H7Y19145   0.102   0.491   7.334 -0.4948 -0.4119 -0.0842
  169SAPE   C3819146   0.243   0.404   7.466 -0.5022 -0.1665 -0.4522
  169SAPE   H8X19147   0.312   0.491   7.466  0.3543 -0.8298 -0.4374
  169SAPE   H8Y19148   0.308   0.314   7.464  2.2095  1.6430  0.0497
  169SAPE   C3919149   0.151   0.404   7.586 -0.0854  0.3227  0.3271
  169SAPE   H9X19150   0.122   0.300   7.614  2.6259 -0.0903  1.9023
  169SAPE   H9Y19151   0.052   0.447   7.558 -0.7718 -1.8375 -0.8348
  169SAPE  C31019152   0.213   0.491   7.698  0.2116  0.1734 -0.5353
  169SAPE  H10X19153   0.210   0.601   7.688 -0.2434  0.4792  2.1544
  169SAPE  H10Y19154   0.319   0.460   7.711  0.6478  2.1697  1.2313
  169SAPE  C31119155   0.144   0.459   7.833  0.1554  0.4286 -0.5775
  169SAPE  H11X19156   0.150   0.349   7.845  0.1869  0.1177 -2.9520
  169SAPE  H11Y19157   0.037   0.485   7.818  0.0444  0.7816  0.7396
  169SAPE  C31219158   0.205   0.537   7.949  0.0621 -0.0565 -0.3766
  169SAPE  H12X19159   0.144   0.629   7.952 -0.0365  0.1439 -4.1516
  169SAPE  H12Y19160   0.306   0.573   7.919  0.7674 -1.5410  0.0949
  169SAPE  C31319161   0.198   0.464   8.086 -0.5590  0.7223  0.4014
  169SAPE  H13X19162   0.093   0.428   8.083 -0.0912 -0.6268 -0.4691
  169SAPE  H13Y19163   0.216   0.533   8.171 -0.8223  0.2085  0.8809
  169SAPE  C31419164   0.302   0.352   8.101 -0.7040 -0.0946  0.3229
  169SAPE  H14X19165   0.394   0.396   8.143 -0.3740 -0.6166  0.1575
  169SAPE  H14Y19166   0.337   0.329   7.998  0.2169  4.6855 -0.6605
  169SAPE  C31519167   0.242   0.240   8.189 -0.3942 -0.3777  0.3903
  169SAPE  H15X19168   0.168   0.181   8.130  0.6067 -1.3488  0.0744
  169SAPE  H15Y19169   0.198   0.293   8.276 -1.6621  0.9048 -0.9699
  169SAPE  C31619170   0.366   0.144   8.223 -0.4989  0.2240  0.2659
  169SAPE  H16X19171   0.425   0.206   8.293 -1.1012 -1.6627  2.5715
  169SAPE  H16Y19172   0.419   0.123   8.127 -2.8098 -1.4670 -0.7390
  169SAPE  C31719173   0.336  -0.001   8.266 -0.6443 -0.0673 -0.1105
  169SAPE  H17X19174   0.439  -0.043   8.271 -0.3233  0.2420 -2.6701
  169SAPE  H17Y19175   0.290  -0.050   8.178  0.6630  0.0881 -0.9057
  169SAPE  C31819176   0.261  -0.027   8.390  0.8634 -0.4220  0.8048
  169SAPE  H18X19177   0.310   0.015   8.480 -0.4648 -1.2217  1.9418
  169SAPE  H18Y19178   0.255  -0.137   8.405 -1.2627 -0.8451 -2.2373
  169SAPE  H18Z19179   0.160   0.016   8.373  1.1140  0.6451  1.9142
  170SAPE     N19180   4.608   3.683   6.324  0.4140  0.0861 -0.4835
  170SAPE   HN119181   4.647   3.765   6.375  0.1556 -0.7607  1.1330
  170SAPE   HN219182   4.516   3.707   6.283  0.0073  0.8673  0.8080
  170SAPE   HN319183   4.590   3.606   6.391  0.4892  0.0839 -0.4654
  170SAPE   C1219184   4.703   3.638   6.218  0.4564  1.2825 -0.2029
  170SAPE  H12A19185   4.677   3.689   6.122  0.0387 -0.3310 -0.9785
  170SAPE  H12B19186   4.689   3.529   6.205 -1.0084  1.2670  1.1585
  170SAPE   C1119187   4.840   3.692   6.248 -0.0723  0.1060  0.3632
  170SAPE  H11A19188   4.908   3.640   6.177 -1.9847 -2.8219  0.4922
  170SAPE  H11B19189   4.873   3.653   6.347 -0.5020 -2.0741 -0.2946
  170SAPE     P19190   4.907   3.901   6.100 -0.2257  0.0713 -0.5587
  170SAPE   O1319191   4.855   3.823   5.984  0.4765 -0.1367  0.0585
  170SAPE   O1419192   4.887   4.048   6.096  0.4666 -0.4087 -0.0009
  170SAPE   O1219193   4.849   3.835   6.245  0.9794  0.0742  0.4693
  170SAPE   O1119194   5.062   3.873   6.118  0.2170  0.3870  0.9201
  170SAPE    C119195   5.161   3.966   6.164 -0.3137  0.4514  0.6590
  170SAPE    HA19196   5.260   3.932   6.128 -1.0906 -0.1940 -0.9749
  170SAPE    HB19197   5.156   4.064   6.112  1.6247  0.6562  0.7667
  170SAPE    C219198   5.165   3.992   6.317  0.4952 -0.2845  0.1805
  170SAPE    HS19199   5.070   4.046   6.334  3.0818  4.7958  0.2986
  170SAPE   O2119200   5.281   4.069   6.355  0.3280 -0.3404 -0.0650
  170SAPE   C2119201   5.259   4.200   6.349 -0.0364  0.2732 -0.3082
  170SAPE   O2219202   5.151   4.248   6.313 -0.7732  0.0836  0.2081
  170SAPE   C2219203   5.385   4.277   6.394  0.0008 -0.1412  0.2970
  170SAPE   H2R19204   5.474   4.221   6.358  1.3102  1.3205  1.1743
  170SAPE   H2S19205   5.385   4.367   6.330  1.9264 -1.1832 -1.2931
  170SAPE    C319206   5.161   3.861   6.388 -0.0894  0.1339  1.2167
  170SAPE    HX19207   5.237   3.793   6.343  1.4400  2.0754  0.7079
  170SAPE    HY19208   5.062   3.814   6.368 -0.0096 -0.5685  2.3901
  170SAPE   O3119209   5.199   3.872   6.525 -0.1011  0.0326 -0.3057
  170SAPE   C3119210   5.099   3.894   6.612 -0.2359  0.6599 -0.1518
  170SAPE   O3219211   4.979   3.894   6.587 -0.2091  0.6195  0.0562
  170SAPE   C3219212   5.163   3.917   6.757  0.8492  0.2261 -1.1481
  170SAPE   H2X19213   5.158   4.028   6.753 -2.3658  0.3019  0.8614
  170SAPE   H2Y19214   5.267   3.878   6.762  1.0322  0.3567 -3.2011
  170SAPE   C2319215   5.407   4.313   6.544 -0.3171  0.1144 -0.5057
  170SAPE   H3R19216   5.320   4.374   6.576 -0.4401  0.0480 -0.7097
  170SAPE   H3S19217   5.493   4.382   6.538 -1.4502  1.7164  0.7534
  170SAPE   C2419218   5.436   4.186   6.622 -0.2414  0.5340  0.6998
  170SAPE   H4R19219   5.535   4.158   6.581  0.5216 -3.2656  4.5138
  170SAPE   H4S19220   5.374   4.096   6.602 -0.6555  1.0069 -0.2197
  170SAPE   C2519221   5.423   4.219   6.772 -0.2392  0.0528 -0.3283
  170SAPE   H5R19222   5.347   4.296   6.795  0.2388 -0.2719  2.8014
  170SAPE   C2619223   5.499   4.160   6.869 -0.0787  0.2563  0.5219
  170SAPE   H6R19224   5.466   4.181   6.972  1.7916  1.3722  0.9453
  170SAPE   C2719225   5.606   4.049   6.858 -0.2138 -0.1432  0.1286
  170SAPE   H7R19226   5.712   4.081   6.861 -0.1746 -0.3084  0.7806
  170SAPE   H7S19227   5.605   3.987   6.766 -0.2814  0.1818 -0.0878
  170SAPE   C2819228   5.566   3.955   6.974  0.0314 -0.2448 -0.4970
  170SAPE   H8R19229   5.497   3.873   6.948  1.8846 -2.0257 -0.0752
  170SAPE   C2919230   5.609   3.978   7.102 -0.3417 -0.1512  0.0859
  170SAPE   H9R19231   5.580   3.914   7.187  2.6522 -1.2895  0.3552
  170SAPE  C21019232   5.694   4.099   7.134  0.2956  0.0212  0.3386
  170SAPE  H10R19233   5.653   4.191   7.088  0.0937  0.1234  0.7156
  170SAPE  H10S19234   5.783   4.084   7.070 -0.9889 -0.4566 -1.4180
  170SAPE  C21119235   5.728   4.133   7.281 -0.0822 -0.1610  0.5083
  170SAPE  H11R19236   5.793   4.053   7.319  1.4838  1.0918  0.6007
  170SAPE  C21219237   5.713   4.242   7.351  0.1402 -0.8973 -0.1423
  170SAPE  H12R19238   5.750   4.242   7.454 -1.6215 -0.3504  0.5258
  170SAPE  C21319239   5.643   4.376   7.311 -0.8005 -0.3881 -0.6237
  170SAPE  H13R19240   5.596   4.357   7.212 -1.3923 -1.2033 -0.1953
  170SAPE  H13S19241   5.711   4.464   7.312  0.0941 -1.0268  1.7783
  170SAPE  C21419242   5.543   4.420   7.414 -0.2797  0.2220  0.1228
  170SAPE  H14R19243   5.584   4.478   7.499  3.8184 -1.3763 -0.5263
  170SAPE  C21519244   5.412   4.379   7.418  0.1390  0.1153  0.5864
  170SAPE  H15R19245   5.344   4.419   7.495 -1.8752 -1.8243 -0.0801
  170SAPE  C21619246   5.346   4.295   7.311 -0.3136 -0.6024 -0.2517
  170SAPE  H16R19247   5.276   4.225   7.362 -0.5678  0.0349  0.2853
  170SAPE  H16S19248   5.414   4.235   7.247  0.0533  1.5056 -1.9212
  170SAPE  C21719249   5.262   4.393   7.226  0.0949  0.4627 -0.2732
  170SAPE  H17R19250   5.330   4.455   7.163 -0.6494  0.0306 -1.5215
  170SAPE  H17S19251   5.196   4.450   7.295 -0.5661 -1.2265  0.5397
  170SAPE  C21819252   5.179   4.313   7.134  0.1363  0.5819  0.8476
  170SAPE  H18R19253   5.087   4.278   7.186 -0.7178  1.1845 -0.2259
  170SAPE  H18S19254   5.235   4.223   7.102 -2.2959 -0.7498  0.1335
  170SAPE  C21919255   5.143   4.372   6.997 -0.2209 -0.0131  0.0738
  170SAPE  H19R19256   5.098   4.305   6.921 -2.6337  2.6464 -1.0329
  170SAPE  H19S19257   5.243   4.400   6.958 -1.1582  1.3244 -1.5042
  170SAPE  C22019258   5.056   4.501   6.986 -0.3195 -0.1758  0.6563
  170SAPE  H20R19259   5.110   4.584   7.037  1.4331 -1.2728  0.6641
  170SAPE  H20S19260   4.963   4.479   7.043 -0.9509 -0.8599 -0.6140
  170SAPE  H20T19261   5.054   4.525   6.878  1.6515  1.0152  0.8279
  170SAPE   C3319262   5.087   3.863   6.879 -0.0131  0.0404 -0.0440
  170SAPE   H3X19263   5.064   3.755   6.868  1.3389 -0.3364  0.6806
  170SAPE   H3Y19264   4.988   3.914   6.879 -3.0931 -5.1847  1.4950
  170SAPE   C3419265   5.168   3.891   7.002 -0.1495 -1.2769 -0.2037
  170SAPE   H4X19266   5.226   3.984   6.989 -0.7690 -0.9992 -1.0227
  170SAPE   H4Y19267   5.260   3.828   7.002 -0.0530 -1.1371 -0.7047
  170SAPE   C3519268   5.099   3.883   7.140 -0.4424  0.1202 -0.0692
  170SAPE   H5X19269   5.071   3.776   7.146  0.9413 -0.1952  1.5937
  170SAPE   H5Y19270   5.004   3.940   7.141 -1.2469 -1.1853  0.1560
  170SAPE   C3619271   5.189   3.915   7.258 -0.1448  0.1002 -0.6859
  170SAPE   H6X19272   5.206   4.024   7.272 -0.6651  0.1216 -0.2027
  170SAPE   H6Y19273   5.287   3.863   7.247  1.0155  1.8569  0.6944
  170SAPE   C3719274   5.115   3.884   7.393 -0.2598  0.3604  0.7466
  170SAPE   H7X19275   5.107   3.774   7.403  2.2572  0.0444 -0.2406
  170SAPE   H7Y19276   5.016   3.936   7.387  0.3873  1.4674 -1.1373
  170SAPE   C3819277   5.182   3.943   7.520  0.7355 -0.3151  0.3504
  170SAPE   H8X19278   5.189   4.052   7.499  2.0494 -0.3266  0.6334
  170SAPE   H8Y19279   5.278   3.888   7.533 -0.0757 -1.6027  1.1147
  170SAPE   C3919280   5.088   3.931   7.639 -0.6894 -0.2036  0.0451
  170SAPE   H9X19281   5.026   3.838   7.640 -3.9008  1.8010  0.8632
  170SAPE   H9Y19282   5.009   4.008   7.632 -0.0827  0.4554  0.3570
  170SAPE  C31019283   5.168   3.948   7.762 -0.3979  0.3616 -0.0756
  170SAPE  H10X19284   5.173   4.055   7.791  1.9411  0.0652  0.8311
  170SAPE  H10Y19285   5.268   3.905   7.739 -0.4006  0.7527 -0.8728
  170SAPE  C31119286   5.123   3.867   7.882  0.1601 -1.1465 -0.4143
  170SAPE  H11X19287   5.133   3.760   7.855  0.3475 -1.4665  0.8616
  170SAPE  H11Y19288   5.014   3.889   7.891  0.5075  1.1705 -1.0629
  170SAPE  C31219289   5.210   3.890   8.002  0.3625  0.4018  0.0108
  170SAPE  H12X19290   5.318   3.879   7.981  0.0724 -0.4596 -1.1313
  170SAPE  H12Y19291   5.182   3.817   8.082  1.3379  0.5949  0.5371
  170SAPE  C31319292   5.189   4.022   8.080  0.4355  0.9313  0.2403
  170SAPE  H13X19293   5.091   4.015   8.132 -0.8628 -0.6597 -2.2034
  170SAPE  H13Y19294   5.188   4.109   8.010  0.7183  0.1316 -0.7846
  170SAPE  C31419295   5.296   4.049   8.184 -0.1905 -0.0432 -0.2990
  170SAPE  H14X19296   5.383   4.077   8.121 -1.4521  1.3655 -1.4605
  170SAPE  H14Y19297   5.323   3.955   8.238 -2.4360 -1.1119 -0.9263
  170SAPE  C31519298   5.275   4.172   8.274  0.0694  0.2614 -0.3619
  170SAPE  H15X19299   5.177   4.157   8.324  0.4420 -0.1837  0.2455
  170SAPE  H15Y19300   5.272   4.256   8.201 -0.9944  1.4349  0.9840
  170SAPE  C31619301   5.381   4.198   8.384  0.0232 -0.7148  0.0575
  170SAPE  H16X19302   5.362   4.299   8.428 -0.7462 -2.1290  3.2486
  170SAPE  H16Y19303   5.481   4.196   8.337  0.0341  0.9341 -0.0772
  170SAPE  C31719304   5.369   4.105   8.507 -0.1796 -0.6809 -0.1025
  170SAPE  H17X19305   5.434   4.149   8.586 -1.3860 -1.0551  1.1482
  170SAPE  H17Y19306   5.412   4.005   8.485  1.0202 -0.1391 -0.3149
  170SAPE  C31819307   5.228   4.100   8.575 -0.2025  0.1081 -0.3742
  170SAPE  H18X19308   5.187   4.195   8.617  0.6875  0.1694  0.3810
  170SAPE  H18Y19309   5.230   4.024   8.655  0.6713  1.9105  1.4188
  170SAPE  H18Z19310   5.153   4.061   8.502  0.0282  0.6919 -0.9359
  171SAPE     N19311   0.873   5.552   6.491 -0.4899  0.2610  0.3891
  171SAPE   HN119312   0.952   5.496   6.453 -0.1733  0.3051  0.9759
  171SAPE   HN219313   0.843   5.498   6.574 -1.5995  2.5772  1.5716
  171SAPE   HN319314   0.791   5.554   6.426 -1.1383 -1.1112  1.1113
  171SAPE   C1219315   0.932   5.685   6.531  0.1472 -0.3472 -0.0642
  171SAPE  H12A19316   0.984   5.736   6.447  2.0643 -0.0512  1.2438
  171SAPE  H12B19317   1.005   5.666   6.613  0.4609 -0.6374 -0.4088
  171SAPE   C1119318   0.823   5.786   6.572  0.3984  0.4413 -0.0488
  171SAPE  H11A19319   0.874   5.872   6.621 -0.0323  1.8891 -2.0048
  171SAPE  H11B19320   0.771   5.746   6.662  2.9929  1.0224  1.8297
  171SAPE     P19321   0.695   5.970   6.427  0.0635 -0.0660  0.1183
  171SAPE   O1319322   0.819   6.042   6.397 -0.5531 -0.5426 -0.4843
  171SAPE   O1419323   0.600   5.963   6.316 -0.5717  0.4316  1.1292
  171SAPE   O1219324   0.726   5.820   6.469  0.5790  0.1282  0.2900
  171SAPE   O1119325   0.634   6.030   6.558  0.6778  0.3419  0.0773
  171SAPE    C119326   0.522   5.970   6.620 -0.1003 -0.0705 -0.1831
  171SAPE    HA19327   0.434   6.025   6.581  0.4555  2.0736  1.4108
  171SAPE    HB19328   0.514   5.861   6.598 -2.1764 -0.0348  0.1654
  171SAPE    C219329   0.530   5.999   6.773 -0.2449  0.9547  0.3956
  171SAPE    HS19330   0.524   6.110   6.784 -0.4371  0.9477  0.3628
  171SAPE   O2119331   0.656   5.949   6.822  0.2806  0.1645  0.3973
  171SAPE   C2119332   0.747   6.041   6.864 -0.1616  0.3340 -0.0118
  171SAPE   O2219333   0.731   6.162   6.867  0.0506 -0.0397  0.0355
  171SAPE   C2219334   0.872   5.966   6.903 -0.6398  0.2526 -0.2406
  171SAPE   H2R19335   0.862   5.856   6.905 -2.4111  0.3233 -1.9037
  171SAPE   H2S19336   0.948   6.010   6.834 -0.2218  1.9980  1.2395
  171SAPE    C319337   0.409   5.928   6.847 -0.5287 -0.7701  0.2986
  171SAPE    HX19338   0.417   5.822   6.813  0.2086 -0.6353  0.0329
  171SAPE    HY19339   0.319   5.961   6.791 -1.5206 -2.7876  0.5809
  171SAPE   O3119340   0.405   5.965   6.987 -0.2471  0.3513 -0.2255
  171SAPE   C3119341   0.433   5.864   7.067 -0.3123 -0.2727 -0.4206
  171SAPE   O3219342   0.463   5.752   7.026 -0.3923  0.4917 -0.3880
  171SAPE   C3219343   0.429   5.910   7.207  0.0607  0.4298 -0.0375
  171SAPE   H2X19344   0.408   6.019   7.206 -0.0043  0.4346 -2.4158
  171SAPE   H2Y19345   0.536   5.897   7.234  0.3996 -0.3332 -1.6741
  171SAPE   C2319346   0.920   5.990   7.051  0.2997  0.1491  0.0774
  171SAPE   H3R19347   0.927   6.101   7.062 -0.9558  0.1644  0.8774
  171SAPE   H3S19348   1.026   5.957   7.061 -0.5353 -2.1858  2.0946
  171SAPE   C2419349   0.845   5.914   7.158  0.3711 -0.5159 -0.4102
  171SAPE   H4R19350   0.856   5.804   7.150 -2.0514 -0.9816  1.4359
  171SAPE   H4S19351   0.735   5.928   7.163  0.6978  2.4081  0.2101
  171SAPE   C2519352   0.891   5.949   7.295  0.0099 -0.6943  0.1608
  171SAPE   H5R19353   0.978   6.016   7.300  1.0307 -1.8281 -1.6094
  171SAPE   C2619354   0.859   5.884   7.412 -0.0806 -0.3832  0.8207
  171SAPE   H6R19355   0.904   5.928   7.502  1.6479  0.9043 -0.5922
  171SAPE   C2719356   0.768   5.763   7.435 -0.6349  0.3204  0.5379
  171SAPE   H7R19357   0.823   5.667   7.445 -0.3288  0.5381  0.9837
  171SAPE   H7S19358   0.706   5.756   7.343  0.7786  0.0039 -0.4189
  171SAPE   C2819359   0.683   5.776   7.561  0.0796 -0.7234 -0.0043
  171SAPE   H8R19360   0.612   5.859   7.548 -0.3553 -0.7245  2.0359
  171SAPE   C2919361   0.667   5.699   7.674  0.3366  0.4616  0.4612
  171SAPE   H9R19362   0.612   5.732   7.764  1.1331 -0.5484  1.3567
  171SAPE  C21019363   0.747   5.576   7.701 -0.2385 -0.5382 -1.2260
  171SAPE  H10R19364   0.808   5.553   7.611 -0.7264  0.4325 -1.8247
  171SAPE  H10S19365   0.685   5.485   7.719 -0.4941  0.0289  1.0057
  171SAPE  C21119366   0.838   5.596   7.821 -0.3072  0.3560  0.0751
  171SAPE  H11R19367   0.919   5.670   7.816 -0.1387  0.4219  2.6455
  171SAPE  C21219368   0.823   5.519   7.934  0.5201 -0.3354  0.0199
  171SAPE  H12R19369   0.877   5.551   8.024 -0.7192  0.9493  0.3270
  171SAPE  C21319370   0.721   5.412   7.968 -0.5420  0.2267  0.2896
  171SAPE  H13R19371   0.777   5.327   8.012 -0.5198 -0.1423 -0.4309
  171SAPE  H13S19372   0.667   5.382   7.876  0.0330  1.1207 -0.3513
  171SAPE  C21419373   0.610   5.456   8.060 -0.0542  0.2082  0.5367
  171SAPE  H14R19374   0.549   5.542   8.029 -0.8253 -0.5173  0.0363
  171SAPE  C21519375   0.576   5.389   8.172  0.6139 -0.5408  0.2298
  171SAPE  H15R19376   0.499   5.428   8.240 -0.0023 -2.0431  0.4389
  171SAPE  C21619377   0.631   5.265   8.234  0.0453  0.3247  0.2826
  171SAPE  H16R19378   0.715   5.293   8.303  0.2899  1.3007 -0.3931
  171SAPE  H16S19379   0.681   5.204   8.156  0.7840  0.5104  0.5922
  171SAPE  C21719380   0.519   5.185   8.312 -0.6357 -0.1005  0.3599
  171SAPE  H17R19381   0.488   5.237   8.404  2.1016 -1.7606  2.3796
  171SAPE  H17S19382   0.560   5.087   8.342 -2.0666 -1.3644 -1.5458
  171SAPE  C21819383   0.403   5.152   8.216 -0.4800  1.0613 -0.3946
  171SAPE  H18R19384   0.444   5.118   8.118 -1.9942  0.2031 -0.7676
  171SAPE  H18S19385   0.337   5.240   8.197 -2.2561 -0.1486 -0.1180
  171SAPE  C21919386   0.323   5.040   8.272  0.2463 -0.0543  1.0322
  171SAPE  H19R19387   0.380   4.947   8.293 -0.2361 -0.6780 -0.3265
  171SAPE  H19S19388   0.244   5.004   8.202 -0.2613 -0.7469  1.9351
  171SAPE  C22019389   0.248   5.085   8.401 -0.5980 -0.6645 -0.1185
  171SAPE  H20R19390   0.184   5.168   8.365  0.2106 -0.7471 -1.8732
  171SAPE  H20S19391   0.321   5.128   8.472  0.1780 -0.3463 -1.0848
  171SAPE  H20T19392   0.184   5.004   8.442 -1.9250  0.1556 -0.5256
  171SAPE   C3319393   0.331   5.841   7.300 -0.0792  0.9684 -0.3558
  171SAPE   H3X19394   0.343   5.731   7.311 -1.8874  0.6135 -1.5076
  171SAPE   H3Y19395   0.227   5.860   7.267 -0.4724  0.9703  0.8207
  171SAPE   C3419396   0.323   5.897   7.438  0.8631 -0.9817 -0.1046
  171SAPE   H4X19397   0.263   5.991   7.438  0.9559 -0.9197  1.0041
  171SAPE   H4Y19398   0.422   5.926   7.477  0.2628 -0.7182  1.2594
  171SAPE   C3519399   0.260   5.805   7.544  0.2002 -0.5500 -0.4827
  171SAPE   H5X19400   0.328   5.717   7.546 -0.0814 -0.8508 -2.0877
  171SAPE   H5Y19401   0.158   5.772   7.512  0.4055 -0.9351 -0.7434
  171SAPE   C3619402   0.238   5.873   7.677 -0.1001  0.2186 -0.7721
  171SAPE   H6X19403   0.164   5.815   7.736  2.5960 -3.3099 -0.5503
  171SAPE   H6Y19404   0.199   5.977   7.671 -0.9244  0.0703  1.3190
  171SAPE   C3719405   0.381   5.893   7.750 -0.4031 -0.9584  0.3616
  171SAPE   H7X19406   0.454   5.941   7.681 -2.7531  1.3285 -0.7120
  171SAPE   H7Y19407   0.423   5.794   7.778  0.4169 -0.9531 -0.7602
  171SAPE   C3819408   0.386   5.972   7.886 -1.3629 -0.0336  0.3262
  171SAPE   H8X19409   0.294   5.939   7.938 -2.4225 -1.2624 -2.1831
  171SAPE   H8Y19410   0.390   6.081   7.865  0.8227  0.0888  1.0929
  171SAPE   C3919411   0.519   5.936   7.960 -0.4860  0.2841  0.5714
  171SAPE   H9X19412   0.605   5.977   7.902  0.0064 -0.5649  0.6952
  171SAPE   H9Y19413   0.516   5.826   7.966 -2.0458  0.3631  2.1966
  171SAPE  C31019414   0.524   6.002   8.099 -0.1887 -0.3300 -0.5468
  171SAPE  H10X19415   0.465   6.095   8.087  0.7847  0.5795  1.2875
  171SAPE  H10Y19416   0.629   6.030   8.122 -1.3044  3.1593  0.9744
  171SAPE  C31119417   0.463   5.908   8.207 -1.1132  0.3567 -0.1426
  171SAPE  H11X19418   0.484   5.803   8.176 -0.6344  0.2891  0.3783
  171SAPE  H11Y19419   0.353   5.922   8.201 -0.8493  4.3050  1.1241
  171SAPE  C31219420   0.518   5.939   8.346 -0.1112  0.4946  0.0947
  171SAPE  H12X19421   0.534   6.049   8.348  0.9340  0.3631 -0.4298
  171SAPE  H12Y19422   0.616   5.886   8.348 -0.5183 -0.3536 -1.1254
  171SAPE  C31319423   0.415   5.893   8.452 -0.1746  0.0270 -0.4194
  171SAPE  H13X19424   0.312   5.933   8.457  0.2958  1.1563  0.7014
  171SAPE  H13Y19425   0.463   5.922   8.548  0.1814  1.1950 -0.9381
  171SAPE  C31419426   0.399   5.738   8.445 -0.3327 -0.2824 -0.1170
  171SAPE  H14X19427   0.505   5.705   8.451 -0.3814 -0.3303  0.6148
  171SAPE  H14Y19428   0.370   5.712   8.341 -1.9286  0.0314  0.2234
  171SAPE  C31519429   0.306   5.681   8.550 -0.1665 -0.2809  0.8143
  171SAPE  H15X19430   0.206   5.706   8.510  0.8971  0.3450 -1.6869
  171SAPE  H15Y19431   0.322   5.721   8.652  1.8500  1.0215  0.0618
  171SAPE  C31619432   0.323   5.524   8.565 -0.0205 -0.3375 -0.1495
  171SAPE  H16X19433   0.380   5.503   8.658 -0.7975 -0.2360  0.3576
  171SAPE  H16Y19434   0.363   5.474   8.474 -0.9472 -2.9634  0.7907
  171SAPE  C31719435   0.188   5.445   8.581  0.0624  0.2976 -0.2218
  171SAPE  H17X19436   0.194   5.334   8.583  1.2234  0.2597 -2.4771
  171SAPE  H17Y19437   0.137   5.456   8.483  2.0223 -0.0352 -1.3255
  171SAPE  C31819438   0.106   5.492   8.703  0.1074  0.0681  0.1981
  171SAPE  H18X19439   0.143   5.588   8.744 -1.3878  0.7785 -0.0383
  171SAPE  H18Y19440   0.127   5.423   8.787  0.2230 -0.2092 -0.0572
  171SAPE  H18Z19441  -0.002   5.503   8.680 -0.6005 -3.8303  1.0867
  172SAPE     N19442   5.586   4.637   6.190  0.0831 -0.0455  0.5271
  172SAPE   HN119443   5.505   4.654   6.253 -1.1136 -0.7593 -0.7657
  172SAPE   HN219444   5.644   4.723   6.184 -1.2480  0.7789 -1.6256
  172SAPE   HN319445   5.548   4.600   6.101 -1.2202  1.0783  0.5911
  172SAPE   C1219446   5.669   4.529   6.255 -0.5820  0.0761  0.2235
  172SAPE  H12A19447   5.601   4.444   6.278  1.0593 -2.6349 -3.8726
  172SAPE  H12B19448   5.710   4.568   6.351 -1.0675 -0.7176  0.7583
  172SAPE   C1119449   5.780   4.475   6.165 -0.5001 -0.2676  0.2411
  172SAPE  H11A19450   5.845   4.559   6.133  1.2240 -1.7436 -0.2873
  172SAPE  H11B19451   5.734   4.451   6.067  2.1012 -0.1639 -1.1016
  172SAPE     P19452   5.849   4.223   6.176  0.1157 -0.1500  0.0976
  172SAPE   O1319453   5.707   4.203   6.142 -0.2446  0.6971 -0.4188
  172SAPE   O1419454   5.954   4.205   6.078 -0.9455  0.9250  0.3046
  172SAPE   O1219455   5.865   4.375   6.221 -0.2331 -0.4216  0.4464
  172SAPE   O1119456   5.878   4.148   6.305 -0.1757 -0.3148 -0.3137
  172SAPE    C119457   5.819   4.188   6.431 -0.0506  0.1616 -1.1666
  172SAPE    HA19458   5.736   4.260   6.414 -0.1280  0.7747  1.3775
  172SAPE    HB19459   5.765   4.097   6.465  2.3464 -0.9567 -0.1308
  172SAPE    C219460   5.919   4.226   6.538 -0.0639  0.1378 -0.3227
  172SAPE    HS19461   6.000   4.296   6.507  1.8946 -0.7506  2.4092
  172SAPE   O2119462   5.971   4.100   6.587  0.2007 -0.5767 -0.8446
  172SAPE   C2119463   6.103   4.085   6.567 -0.0211 -0.1798 -1.0340
  172SAPE   O2219464   6.176   4.149   6.495  0.2051  0.0838 -0.1498
  172SAPE   C2219465   6.137   3.957   6.649 -0.0259  0.5635 -0.1079
  172SAPE   H2R19466   6.153   3.988   6.754 -0.0905  0.9586 -0.2136
  172SAPE   H2S19467   6.054   3.885   6.633  0.9821 -0.6273 -0.1375
  172SAPE    C319468   5.851   4.302   6.656 -0.0214  0.4461  0.5587
  172SAPE    HX19469   5.766   4.235   6.681  1.4928 -1.3217  1.3230
  172SAPE    HY19470   5.805   4.398   6.627  0.6089  0.8366  0.8344
  172SAPE   O3119471   5.929   4.313   6.770  0.0352 -0.0893 -0.2385
  172SAPE   C3119472   6.020   4.408   6.773 -0.7709  0.7508 -0.4144
  172SAPE   O3219473   6.037   4.487   6.679  0.1628 -0.0278  0.4352
  172SAPE   C3219474   6.084   4.410   6.910 -0.2367  0.2764 -0.2163
  172SAPE   H2X19475   6.186   4.453   6.899 -0.1224 -0.0662 -0.5281
  172SAPE   H2Y19476   6.101   4.307   6.948  1.2029  0.7231  0.4100
  172SAPE   C2319477   6.274   3.900   6.606  0.4629 -0.1294 -0.0949
  172SAPE   H3R19478   6.344   3.984   6.584 -0.0778  0.4999  0.5433
  172SAPE   H3S19479   6.251   3.849   6.510  1.4364 -0.9000  0.0605
  172SAPE   C2419480   6.339   3.797   6.706 -0.7721  0.0911 -0.0405
  172SAPE   H4R19481   6.348   3.854   6.800  2.8078 -0.6354  0.1860
  172SAPE   H4S19482   6.442   3.769   6.674  0.1395  1.5281  1.5157
  172SAPE   C2519483   6.258   3.670   6.720  0.3068  0.3305  0.2236
  172SAPE   H5R19484   6.259   3.619   6.622 -2.0475  1.3929 -0.4107
  172SAPE   C2619485   6.183   3.624   6.816 -0.5743  0.2493  0.0684
  172SAPE   H6R19486   6.124   3.536   6.788 -1.0696  1.3468 -2.5237
  172SAPE   C2719487   6.166   3.684   6.958 -0.9683  0.9214  0.4228
  172SAPE   H7R19488   6.251   3.754   6.971  0.5647 -0.1311 -2.7511
  172SAPE   H7S19489   6.169   3.602   7.033  2.5573 -0.6026 -1.1767
  172SAPE   C2819490   6.032   3.763   6.962 -0.2173 -0.1657 -0.2957
  172SAPE   H8R19491   6.013   3.826   6.874 -1.9621  2.0525  1.5070
  172SAPE   C2919492   5.949   3.778   7.069  0.2113  0.4313 -0.1841
  172SAPE   H9R19493   5.853   3.826   7.044  0.3405  0.5985 -0.3650
  172SAPE  C21019494   5.964   3.732   7.209 -0.0359  0.6476 -0.0285
  172SAPE  H10R19495   6.012   3.809   7.274 -1.8177  0.4435  1.6056
  172SAPE  H10S19496   6.029   3.642   7.206 -0.2999  0.4617 -0.1876
  172SAPE  C21119497   5.827   3.678   7.259 -0.8684 -0.3658 -0.3257
  172SAPE  H11R19498   5.773   3.624   7.180  0.2662 -0.2748 -1.1892
  172SAPE  C21219499   5.786   3.688   7.389  0.0409 -0.0039 -0.0904
  172SAPE  H12R19500   5.679   3.671   7.403  0.5938 -1.8659  2.7724
  172SAPE  C21319501   5.864   3.769   7.494  0.3672 -0.1629 -0.6219
  172SAPE  H13R19502   5.852   3.876   7.465  1.6355  0.4553  0.9998
  172SAPE  H13S19503   5.973   3.746   7.496  0.9672  2.3793 -1.0700
  172SAPE  C21419504   5.812   3.738   7.641 -0.4813 -0.4120 -0.0626
  172SAPE  H14R19505   5.865   3.659   7.695  0.5284 -1.8609 -2.9821
  172SAPE  C21519506   5.701   3.796   7.703 -0.1616  0.4999  0.0229
  172SAPE  H15R19507   5.668   3.770   7.804 -0.7309  1.2752  0.0476
  172SAPE  C21619508   5.612   3.903   7.644  0.3026 -0.0422  0.2136
  172SAPE  H16R19509   5.539   3.864   7.570  1.1908  1.0741 -1.3116
  172SAPE  H16S19510   5.677   3.955   7.570  0.9777 -0.9718  0.1271
  172SAPE  C21719511   5.544   3.994   7.744 -0.0435  0.0959 -0.3903
  172SAPE  H17R19512   5.472   3.921   7.787 -0.1591  1.2177  1.4445
  172SAPE  H17S19513   5.493   4.079   7.694 -1.9709  1.0656  2.9225
  172SAPE  C21819514   5.631   4.047   7.857 -0.7333 -0.2020  0.0202
  172SAPE  H18R19515   5.694   3.963   7.891 -0.1290  0.2400  0.0217
  172SAPE  H18S19516   5.570   4.078   7.945  0.0890 -1.0215  0.9008
  172SAPE  C21919517   5.729   4.159   7.824  0.2275  0.0512  0.1097
  172SAPE  H19R19518   5.670   4.247   7.790 -0.8204 -1.6248 -2.7447
  172SAPE  H19S19519   5.786   4.119   7.737 -1.3705  1.8154 -1.8733
  172SAPE  C22019520   5.825   4.183   7.940  0.0648  0.0512 -0.0571
  172SAPE  H20R19521   5.884   4.092   7.963  0.2093 -0.0610 -0.8461
  172SAPE  H20S19522   5.763   4.215   8.026  0.6178  0.1299  0.3195
  172SAPE  H20T19523   5.891   4.270   7.917  1.7762 -1.0318  0.5158
  172SAPE   C3319524   6.010   4.498   7.011 -0.2925  0.3078 -0.4219
  172SAPE   H3X19525   5.914   4.445   7.026  1.4348 -3.0060 -0.0143
  172SAPE   H3Y19526   5.989   4.600   6.971 -0.6623  0.5709  0.4088
  172SAPE   C3419527   6.068   4.490   7.157  0.2777 -0.0936  0.0293
  172SAPE   H4X19528   6.176   4.514   7.147  0.2876 -0.9964 -3.3470
  172SAPE   H4Y19529   6.066   4.381   7.178  1.3710 -0.0344  0.4908
  172SAPE   C3519530   5.991   4.581   7.263  0.0382  0.0699  0.8758
  172SAPE   H5X19531   5.881   4.563   7.258  0.1193 -0.2400 -0.1535
  172SAPE   H5Y19532   6.002   4.682   7.218  0.6726 -0.0537  0.7519
  172SAPE   C3619533   6.032   4.576   7.408  0.5762 -0.2468 -0.8316
  172SAPE   H6X19534   6.138   4.603   7.429  0.4376 -0.1208 -0.2734
  172SAPE   H6Y19535   6.014   4.474   7.449 -1.5828  1.0648  1.7848
  172SAPE   C3719536   5.933   4.669   7.493  0.4387  0.3343 -0.0408
  172SAPE   H7X19537   5.834   4.621   7.482  0.6019 -0.4282  1.5547
  172SAPE   H7Y19538   5.919   4.775   7.463 -2.5417 -0.2458 -0.9980
  172SAPE   C3819539   5.963   4.663   7.642  0.2500 -0.4381  0.0209
  172SAPE   H8X19540   6.062   4.713   7.651  1.3650 -2.2161 -1.5655
  172SAPE   H8Y19541   5.968   4.559   7.680 -2.9495 -1.2242 -1.3525
  172SAPE   C3919542   5.843   4.722   7.723 -0.1742  0.0056 -0.4924
  172SAPE   H9X19543   5.754   4.658   7.704 -0.4130  0.1090  0.2362
  172SAPE   H9Y19544   5.814   4.824   7.691 -1.6970 -0.5295 -0.9025
  172SAPE  C31019545   5.864   4.744   7.876 -0.0443  0.1522 -1.1136
  172SAPE  H10X19546   5.766   4.761   7.925 -0.4330  0.4971 -1.9805
  172SAPE  H10Y19547   5.913   4.841   7.896  0.4301 -0.3622  0.3212
  172SAPE  C31119548   5.934   4.618   7.940 -0.3318 -0.0607 -0.1416
  172SAPE  H11X19549   6.027   4.589   7.887  0.3395  0.7128  0.5950
  172SAPE  H11Y19550   5.861   4.534   7.935 -1.3744  0.5768  2.6378
  172SAPE  C31219551   5.967   4.644   8.095 -0.5126  0.0795  0.5374
  172SAPE  H12X19552   5.869   4.672   8.141 -0.7497 -0.1828  0.2017
  172SAPE  H12Y19553   6.037   4.729   8.108 -2.3186  1.6016  0.7762
  172SAPE  C31319554   6.016   4.521   8.169  0.3352 -0.3589  0.1925
  172SAPE  H13X19555   6.107   4.494   8.110  0.9757  4.0029 -1.1390
  172SAPE  H13Y19556   5.941   4.440   8.156 -0.8821  0.8581 -0.6728
  172SAPE  C31419557   6.051   4.548   8.317 -0.6409  0.0013 -0.4668
  172SAPE  H14X19558   5.968   4.593   8.376  1.9457  0.7895  2.9155
  172SAPE  H14Y19559   6.122   4.633   8.328 -0.6452  0.0542 -0.8221
  172SAPE  C31519560   6.098   4.420   8.391 -0.5154  0.4571 -0.0457
  172SAPE  H15X19561   6.197   4.389   8.351 -0.8709 -0.2273 -0.4220
  172SAPE  H15Y19562   6.033   4.338   8.353 -1.0450  0.8665 -0.0296
  172SAPE  C31619563   6.080   4.431   8.547  0.2508  0.8612  0.7122
  172SAPE  H16X19564   5.989   4.485   8.580 -0.9432 -0.7915  0.2523
  172SAPE  H16Y19565   6.168   4.486   8.585  0.3520  0.1945  1.4574
  172SAPE  C31719566   6.073   4.291   8.608  0.4232 -0.2652 -0.2751
  172SAPE  H17X19567   6.160   4.230   8.575 -0.2209 -1.2191 -0.2380
  172SAPE  H17Y19568   5.992   4.239   8.553  1.2406  0.2078 -2.0224
  172SAPE  C31819569   6.056   4.300   8.767 -0.5610  0.6436  0.4119
  172SAPE  H18X19570   6.089   4.202   8.808  1.5348  0.8707 -0.5879
  172SAPE  H18Y19571   5.949   4.324   8.784 -0.7555 -0.8005  1.4199
  172SAPE  H18Z19572   6.130   4.376   8.799  0.0089  0.4776 -0.4633
  173SOPE     N19573   6.668   4.119  10.509 -0.9982  0.4436 -0.1143
  173SOPE   HN119574   6.677   4.029  10.458 -1.1627 -0.9786  2.2295
  173SOPE   HN219575   6.669   4.202  10.446 -2.7689  0.2484 -0.4340
  173SOPE   HN319576   6.761   4.137  10.553 -0.0831  0.7120 -2.0401
  173SOPE   C1219577   6.565   4.112  10.622  0.6768  0.0137  0.5788
  173SOPE  H12A19578   6.482   4.059  10.569  0.7036 -0.1507  0.7011
  173SOPE  H12B19579   6.535   4.216  10.647 -1.5024  0.0406 -1.6484
  173SOPE   C1119580   6.593   4.025  10.751  0.9016 -0.4396  1.1311
  173SOPE  H11A19581   6.502   4.054  10.808  0.6862  2.5159 -0.5123
  173SOPE  H11B19582   6.679   4.048  10.817  1.7988 -1.4285  0.3519
  173SOPE     P19583   6.557   3.783  10.821 -0.2432 -0.0562  0.2480
  173SOPE   O1319584   6.413   3.801  10.845 -0.2971  0.2060 -0.1269
  173SOPE   O1419585   6.652   3.782  10.934  0.1602 -0.6374 -0.0327
  173SOPE   O1219586   6.598   3.892  10.716 -0.4749 -0.1057  0.5981
  173SOPE   O1119587   6.567   3.647  10.745 -0.8672  0.8782 -0.0482
  173SOPE    C119588   6.679   3.606  10.663 -0.7664  0.3984 -0.7994
  173SOPE    HA19589   6.693   3.496  10.660  3.1632  0.8043 -2.3598
  173SOPE    HB19590   6.773   3.650  10.703  0.3053 -1.9487 -0.5589
  173SOPE    C219591   6.659   3.654  10.524  0.4898 -0.2400 -0.9305
  173SOPE    HS19592   6.644   3.765  10.523  0.4484 -0.2474 -1.9818
  173SOPE   O2119593   6.546   3.582  10.465  0.4766 -0.6333 -0.7448
  173SOPE   C2119594   6.468   3.665  10.397 -0.2076  0.2902 -0.2528
  173SOPE   O2219595   6.463   3.782  10.398 -0.2884 -0.1847 -0.2317
  173SOPE   C2219596   6.369   3.588  10.311 -0.2297  0.5940 -0.2052
  173SOPE   H2R19597   6.318   3.515  10.377 -0.7306 -0.1041 -1.3501
  173SOPE   H2S19598   6.431   3.524  10.246 -0.1242  0.0355  0.4374
  173SOPE    C319599   6.789   3.659  10.440 -0.1498  0.3355 -0.2222
  173SOPE    HX19600   6.828   3.556  10.452 -2.5510 -0.4175  2.0255
  173SOPE    HY19601   6.863   3.733  10.479  0.9145 -0.0100 -1.4965
  173SOPE   O3119602   6.763   3.695  10.304  1.0058  0.2587  0.1825
  173SOPE   C3119603   6.768   3.827  10.268  0.4131  0.7489 -0.4242
  173SOPE   O3219604   6.764   3.920  10.344  0.0711  0.2576 -0.4510
  173SOPE   C3219605   6.743   3.841  10.117 -0.1013 -0.4104  0.1707
  173SOPE   H2X19606   6.748   3.740  10.072  1.5891 -3.4618  6.1154
  173SOPE   H2Y19607   6.820   3.911  10.079 -0.3089 -0.0163  0.4644
  173SOPE   C2319608   6.269   3.668  10.227 -0.3553  0.2084  0.8826
  173SOPE   H3R19609   6.338   3.737  10.173  0.0115  0.1448  1.2683
  173SOPE   H3S19610   6.199   3.727  10.289 -0.9232  1.1079 -0.5562
  173SOPE   C2419611   6.185   3.600  10.115 -0.6003  0.1857 -0.2925
  173SOPE   H4R19612   6.245   3.530  10.053 -0.8923 -1.6910  1.4496
  173SOPE   H4S19613   6.107   3.543  10.170 -0.1063 -0.2586 -0.0448
  173SOPE   C2519614   6.102   3.700  10.026  0.0895  0.7292  0.1470
  173SOPE   H5R19615   6.054   3.778  10.089  0.8632  1.5962 -0.3070
  173SOPE   H5S19616   6.187   3.745   9.972 -0.0624  0.9994  0.1313
  173SOPE   C2619617   6.016   3.617   9.932  0.2562 -0.4173 -0.1606
  173SOPE   H6R19618   6.081   3.547   9.875  0.3537 -0.3495 -0.1330
  173SOPE   H6S19619   5.944   3.549   9.983  0.0848 -1.3777 -1.6362
  173SOPE   C2719620   5.941   3.717   9.848  0.5036  0.6075  0.5564
  173SOPE   H7R19621   5.859   3.757   9.911 -1.8321 -3.8965  0.7839
  173SOPE   H7S19622   5.999   3.803   9.809  1.4109 -1.0149 -1.9248
  173SOPE   C2819623   5.873   3.646   9.724 -0.7091 -0.0208  0.1524
  173SOPE   H8R19624   5.822   3.552   9.752  3.7154 -3.1576 -1.1955
  173SOPE   H8S19625   5.805   3.713   9.666  2.0580  0.8096 -2.4234
  173SOPE   C2919626   5.981   3.612   9.624  0.3994 -0.3638  0.1412
  173SOPE   H9119627   6.052   3.537   9.661  0.1367 -0.1962  1.0244
  173SOPE  C21019628   5.986   3.663   9.498 -0.7629  0.1578 -0.9322
  173SOPE  H10119629   6.068   3.630   9.432  0.5291  1.9686 -0.3219
  173SOPE  C21119630   5.896   3.772   9.443 -0.2388 -0.7216 -0.3369
  173SOPE  H11R19631   5.962   3.827   9.373  1.0281 -2.1447 -0.2879
  173SOPE  H11S19632   5.852   3.848   9.513 -0.4524 -1.2592  0.1205
  173SOPE  C21219633   5.788   3.709   9.357 -0.4817 -0.3953  0.1592
  173SOPE  H12R19634   5.735   3.629   9.412  0.3792  0.8520  2.9631
  173SOPE  H12S19635   5.831   3.667   9.264  0.8270  2.7548 -0.7905
  173SOPE  C21319636   5.690   3.824   9.319 -0.3609 -0.0154  0.1148
  173SOPE  H13R19637   5.734   3.864   9.225 -1.5011  0.9732 -0.0300
  173SOPE  H13S19638   5.681   3.903   9.397 -3.4981 -1.7604  1.6972
  173SOPE  C21419639   5.544   3.782   9.285 -0.1438 -0.2592 -0.6611
  173SOPE  H14R19640   5.469   3.840   9.344  0.4483  2.0634 -2.0371
  173SOPE  H14S19641   5.529   3.675   9.308 -0.6118 -0.3930 -1.5494
  173SOPE  C21519642   5.518   3.800   9.132 -0.2577 -0.3995 -0.7155
  173SOPE  H15R19643   5.437   3.729   9.103 -1.3837  0.5463  0.0032
  173SOPE  H15S19644   5.607   3.766   9.075  0.9705  2.3375 -0.6013
  173SOPE  C21619645   5.468   3.945   9.093 -0.4122 -0.1288  1.0139
  173SOPE  H16R19646   5.545   4.017   9.127  0.5037  0.3056 -1.6892
  173SOPE  H16S19647   5.377   3.967   9.152 -0.0949 -0.2552  1.5515
  173SOPE  C21719648   5.442   3.960   8.945 -0.0286  0.4367 -0.0879
  173SOPE  H17R19649   5.367   3.886   8.911  0.8770 -0.8868  0.6814
  173SOPE  H17S19650   5.539   3.934   8.898 -0.2206 -0.5035  0.0267
  173SOPE  C21819651   5.400   4.105   8.895 -0.3483  0.6103  0.2941
  173SOPE  H18R19652   5.302   4.131   8.942 -0.1877  0.6912  0.5897
  173SOPE  H18S19653   5.397   4.104   8.784  0.0112  0.1104  0.2885
  173SOPE  H18T19654   5.472   4.178   8.937 -0.4482 -0.5623  2.6801
  173SOPE   C3319655   6.603   3.904  10.099  0.7817  0.3330 -0.3998
  173SOPE   H3X19656   6.600   4.005  10.145  0.3847 -0.2394  0.8932
  173SOPE   H3Y19657   6.527   3.849  10.159  0.0282 -1.5385 -2.8648
  173SOPE   C3419658   6.549   3.924   9.962 -0.1816  0.5502 -0.9762
  173SOPE   H4X19659   6.549   3.825   9.911  1.4701 -0.5991  1.0770
  173SOPE   H4Y19660   6.622   3.990   9.908  1.6985 -0.3142  0.3841
  173SOPE   C3519661   6.399   3.978   9.956 -1.0396 -0.2009  0.0442
  173SOPE   H5X19662   6.393   4.055  10.036 -0.2134  0.4304 -0.4855
  173SOPE   H5Y19663   6.316   3.907   9.976 -1.7856  1.0573  1.6543
  173SOPE   C3619664   6.374   4.056   9.829 -0.0771 -0.3783  0.4488
  173SOPE   H6X19665   6.428   4.152   9.843 -1.6799  0.1377  4.2605
  173SOPE   H6Y19666   6.265   4.080   9.833  0.2926  1.7458 -0.7553
  173SOPE   C3719667   6.400   3.972   9.700  0.4475  0.0647 -0.7032
  173SOPE   H7X19668   6.358   3.869   9.705  2.0333 -0.6274 -1.2258
  173SOPE   H7Y19669   6.509   3.955   9.688  0.8199  2.8171 -2.1519
  173SOPE   C3819670   6.332   4.033   9.571 -0.3759 -0.1422  0.0450
  173SOPE   H8X19671   6.365   4.139   9.572 -2.3241  0.5073 -0.6636
  173SOPE   H8Y19672   6.224   4.042   9.594 -0.4602  0.0392 -0.4168
  173SOPE   C3919673   6.343   3.956   9.444 -0.2357 -0.1185  0.0441
  173SOPE   H9X19674   6.337   3.846   9.461 -0.2807 -0.7001 -3.0873
  173SOPE   H9Y19675   6.448   3.979   9.419 -0.0493  0.2154  1.1049
  173SOPE  C31019676   6.238   3.998   9.343 -0.4202  0.3459 -0.1646
  173SOPE  H10X19677   6.229   4.109   9.343 -0.0270  0.3824  0.4573
  173SOPE  H10Y19678   6.143   3.953   9.379 -0.7839  2.1088  1.2586
  173SOPE  C31119679   6.263   3.952   9.197  0.7724 -0.4538 -0.1449
  173SOPE  H11X19680   6.296   3.846   9.190 -0.3710 -0.8047 -0.4244
  173SOPE  H11Y19681   6.345   4.012   9.152  2.2340 -1.0398  1.6150
  173SOPE  C31219682   6.145   3.960   9.105  0.0126  0.6047 -0.3110
  173SOPE  H12X19683   6.087   4.055   9.110 -0.8826  0.1975 -1.9178
  173SOPE  H12Y19684   6.091   3.870   9.141  0.7428 -0.8457 -2.6214
  173SOPE  C31319685   6.183   3.927   8.966  0.5035 -0.8835  0.1125
  173SOPE  H13X19686   6.230   3.827   8.963  3.1379  0.2274  1.4345
  173SOPE  H13Y19687   6.253   4.003   8.926 -1.4766  0.9878 -0.0166
  173SOPE  C31419688   6.054   3.925   8.880  0.5235 -0.4720  0.3259
  173SOPE  H14X19689   6.014   4.027   8.869  0.5310 -0.5265 -0.2412
  173SOPE  H14Y19690   5.978   3.862   8.931  0.9873 -0.4327  1.0965
  173SOPE  C31519691   6.076   3.876   8.743 -0.1603 -0.3811 -0.1050
  173SOPE  H15X19692   6.088   3.766   8.753  3.1847 -0.1322 -0.3004
  173SOPE  H15Y19693   6.172   3.905   8.695 -0.6947  0.5589 -0.6281
  173SOPE  C31619694   5.963   3.908   8.650  0.1003 -0.3241 -0.2242
  173SOPE  H16X19695   5.949   4.013   8.615 -1.7793 -0.7882 -1.0324
  173SOPE  H16Y19696   5.870   3.876   8.701  1.2877 -0.4186  1.9720
  173SOPE  C31719697   5.969   3.828   8.524 -0.4920  0.1146 -0.6377
  173SOPE  H17X19698   5.963   3.720   8.549 -0.4910  0.2505 -0.0583
  173SOPE  H17Y19699   6.068   3.835   8.474  0.7706 -4.4179  0.7987
  173SOPE  C31819700   5.865   3.872   8.425 -0.0560  0.0231 -0.0100
  173SOPE  H18X19701   5.824   3.791   8.361 -1.2548  1.1733 -0.7536
  173SOPE  H18Y19702   5.908   3.937   8.346 -0.6092  0.3609 -0.0391
  173SOPE  H18Z19703   5.778   3.931   8.463 -0.5449  2.7917 -4.6723
  174SOPE     N19704   0.883   3.410  10.737 -0.3411 -0.4455 -0.0265
  174SOPE   HN119705   0.914   3.506  10.709  2.8534 -1.7547 -1.5104
  174SOPE   HN219706   0.783   3.397  10.715 -0.6175 -0.0217  0.8940
  174SOPE   HN319707   0.903   3.395  10.839 -0.0867  1.4955  0.2599
  174SOPE   C1219708   0.973   3.323  10.645  0.1736 -0.6653 -0.0189
  174SOPE  H12A19709   1.080   3.345  10.662  0.9274 -1.2238 -3.3434
  174SOPE  H12B19710   0.948   3.357  10.542  0.8395 -1.2290 -0.3811
  174SOPE   C1119711   0.952   3.176  10.665  0.6039  0.0550 -0.2959
  174SOPE  H11A19712   0.989   3.148  10.766  2.0007  2.4668 -0.0612
  174SOPE  H11B19713   1.017   3.122  10.593  1.2622  0.6568 -0.1559
  174SOPE     P19714   0.746   3.021  10.710 -0.2589 -0.0305 -0.2517
  174SOPE   O1319715   0.611   3.073  10.754 -0.1202  0.4790 -0.0663
  174SOPE   O1419716   0.837   2.970  10.820 -0.2436 -0.6052 -0.0901
  174SOPE   O1219717   0.815   3.142  10.639 -0.0143 -0.0679 -0.0634
  174SOPE   O1119718   0.730   2.917  10.593 -0.0534  0.0337  0.6399
  174SOPE    C119719   0.689   2.957  10.465 -0.1994 -0.0072 -0.1719
  174SOPE    HA19720   0.684   3.067  10.446  1.3026 -0.0460 -0.8993
  174SOPE    HB19721   0.588   2.916  10.441 -0.3247 -0.3711  0.9200
  174SOPE    C219722   0.784   2.901  10.349  0.1075  0.6880 -0.3317
  174SOPE    HS19723   0.743   2.921  10.248 -0.2506  0.1920 -0.2848
  174SOPE   O2119724   0.806   2.761  10.373 -0.1157 -1.0411  0.1771
  174SOPE   C2119725   0.709   2.688  10.330 -0.8116  0.3315  0.5597
  174SOPE   O2219726   0.608   2.722  10.269 -0.1858 -0.1739  0.1803
  174SOPE   C2219727   0.747   2.543  10.367  1.1076 -0.2487  0.0726
  174SOPE   H2R19728   0.681   2.480  10.304  1.3993 -0.2523 -0.2326
  174SOPE   H2S19729   0.735   2.528  10.477  2.0204  1.1674  0.4021
  174SOPE    C319730   0.925   2.971  10.344  0.1324 -0.5051  0.7422
  174SOPE    HX19731   0.984   2.954  10.436  1.1758  0.4573  0.2772
  174SOPE    HY19732   0.900   3.079  10.347 -1.1653 -0.7203 -0.8578
  174SOPE   O3119733   1.002   2.936  10.232  0.1819  0.6102  0.2109
  174SOPE   C3119734   0.973   2.997  10.117 -0.0726  0.3438  0.3711
  174SOPE   O3219735   0.884   3.076  10.088 -0.4680  0.4568 -0.8335
  174SOPE   C3219736   1.070   2.947  10.016 -0.2116  0.2712  0.9500
  174SOPE   H2X19737   1.013   2.904   9.931  1.1398 -0.1606  0.2360
  174SOPE   H2Y19738   1.133   2.865  10.059 -2.1032 -1.5801  0.3674
  174SOPE   C2319739   0.893   2.506  10.328 -0.7673 -0.2710  0.9504
  174SOPE   H3R19740   0.930   2.431  10.400 -2.0611 -1.0220  0.8677
  174SOPE   H3S19741   0.955   2.597  10.342 -1.8085  0.8901 -1.3162
  174SOPE   C2419742   0.910   2.455  10.180  0.8298 -0.1199 -0.3424
  174SOPE   H4R19743   1.000   2.390  10.173 -0.0387 -1.3696 -0.2484
  174SOPE   H4S19744   0.816   2.398  10.170  0.5013  0.5596 -1.3879
  174SOPE   C2519745   0.917   2.571  10.079 -1.0769  0.2486 -0.0892
  174SOPE   H5R19746   0.828   2.636  10.066 -0.5638  1.2734  1.3018
  174SOPE   H5S19747   1.012   2.627  10.094  0.5921 -2.1624 -1.0561
  174SOPE   C2619748   0.934   2.514   9.937  0.1666  0.2644 -0.3292
  174SOPE   H6R19749   1.024   2.447   9.935 -0.6796 -1.0261  1.7940
  174SOPE   H6S19750   0.843   2.452   9.922  1.0246 -1.1326 -0.0538
  174SOPE   C2719751   0.936   2.613   9.819 -0.6927  0.2274 -0.4379
  174SOPE   H7R19752   0.850   2.683   9.821 -0.8884 -0.0246  0.5600
  174SOPE   H7S19753   1.030   2.672   9.820 -0.9129  0.5791  0.6114
  174SOPE   C2819754   0.930   2.540   9.685 -0.1884 -0.1506  0.6626
  174SOPE   H8R19755   1.023   2.480   9.676  0.1689  0.5427 -0.4183
  174SOPE   H8S19756   0.839   2.477   9.676 -0.0688 -0.5407  1.9594
  174SOPE   C2919757   0.928   2.623   9.561 -0.2340 -0.2923  0.4257
  174SOPE   H9119758   0.847   2.697   9.561  0.3389  0.3438  1.6894
  174SOPE  C21019759   1.009   2.622   9.454 -0.1151  0.1305  0.1742
  174SOPE  H10119760   1.004   2.695   9.372  3.1166  1.6645  1.1834
  174SOPE  C21119761   1.128   2.530   9.430  0.1824  0.2336 -0.2372
  174SOPE  H11R19762   1.146   2.459   9.513 -0.2085  0.2462 -0.1423
  174SOPE  H11S19763   1.222   2.589   9.423 -0.4745  1.5998  1.5288
  174SOPE  C21219764   1.108   2.454   9.300 -0.6405  0.0344 -0.1367
  174SOPE  H12R19765   1.015   2.394   9.308  0.2390 -1.1868  2.0535
  174SOPE  H12S19766   1.190   2.379   9.294 -0.5203  0.0082  1.4900
  174SOPE  C21319767   1.097   2.533   9.176 -0.3629 -0.5498 -0.2439
  174SOPE  H13R19768   1.188   2.596   9.173  0.2535 -1.1923  2.5085
  174SOPE  H13S19769   1.019   2.612   9.181 -0.0707 -0.3375  1.4299
  174SOPE  C21419770   1.084   2.435   9.056  0.2636 -0.1698 -0.7160
  174SOPE  H14R19771   0.995   2.378   9.090  0.5863  0.2813  0.9723
  174SOPE  H14S19772   1.172   2.370   9.037  0.7492  0.6898 -1.5057
  174SOPE  C21519773   1.044   2.510   8.929  0.5951  0.2285 -0.0535
  174SOPE  H15R19774   1.128   2.570   8.887  0.8165 -1.3536 -2.0837
  174SOPE  H15S19775   0.959   2.581   8.943 -0.9975 -1.1541 -2.1113
  174SOPE  C21619776   1.009   2.414   8.821 -0.3638  0.5764  0.2293
  174SOPE  H16R19777   0.915   2.367   8.858 -1.0605  0.8675 -1.0901
  174SOPE  H16S19778   1.084   2.333   8.817 -0.6006  0.3763 -0.3112
  174SOPE  C21719779   1.011   2.482   8.683  0.3265  0.0185  0.6895
  174SOPE  H17R19780   1.112   2.522   8.659 -0.3286  1.1609 -0.2179
  174SOPE  H17S19781   0.937   2.565   8.682  0.1214 -0.0571  3.2311
  174SOPE  C21819782   0.966   2.382   8.571 -0.1252  0.6493  0.3118
  174SOPE  H18R19783   0.900   2.298   8.603  1.4946 -1.3857 -1.3253
  174SOPE  H18S19784   1.058   2.341   8.524  0.4035  2.6491 -0.4973
  174SOPE  H18T19785   0.930   2.438   8.482  2.2519 -0.5489 -1.5178
  174SOPE   C3319786   1.166   3.059   9.969  0.1071  0.0896  0.0565
  174SOPE   H3X19787   1.226   3.081  10.060 -0.0798  0.6494  0.0486
  174SOPE   H3Y19788   1.111   3.154   9.955 -1.1105 -0.6571 -0.3102
  174SOPE   C3419789   1.251   3.024   9.850 -0.6210  0.4078 -0.7951
  174SOPE   H4X19790   1.315   2.943   9.892  0.0118  2.0955  1.7066
  174SOPE   H4Y19791   1.323   3.108   9.841  0.3412 -0.4700 -1.5056
  174SOPE   C3519792   1.178   2.980   9.724  0.7272  0.3134 -0.3207
  174SOPE   H5X19793   1.130   2.882   9.743  2.5743 -0.4035  0.9438
  174SOPE   H5Y19794   1.259   2.958   9.650  0.8418  0.7143 -0.3166
  174SOPE   C3619795   1.079   3.076   9.672 -0.3531 -0.6745 -0.1175
  174SOPE   H6X19796   1.121   3.166   9.622 -0.9616 -1.3130 -1.8529
  174SOPE   H6Y19797   1.003   3.112   9.746  0.2609 -1.0593  0.7130
  174SOPE   C3719798   1.006   3.006   9.553 -0.2666  0.2002 -0.6536
  174SOPE   H7X19799   0.926   3.073   9.513  2.2786  3.1928 -1.1541
  174SOPE   H7Y19800   0.960   2.910   9.583  2.3328 -1.0338 -0.3094
  174SOPE   C3819801   1.099   2.970   9.433  0.5398 -0.4383 -0.3924
  174SOPE   H8X19802   1.133   2.868   9.463 -2.5248 -1.6028 -0.4485
  174SOPE   H8Y19803   1.189   3.030   9.414  2.6147 -3.0381  0.5677
  174SOPE   C3919804   1.009   2.955   9.305 -0.5098  0.0530  0.2850
  174SOPE   H9X19805   0.957   3.050   9.278  0.6565  0.6973  0.2117
  174SOPE   H9Y19806   0.934   2.875   9.323 -1.3243 -0.1131 -3.1525
  174SOPE  C31019807   1.080   2.917   9.177 -0.7560 -0.4861 -0.1848
  174SOPE  H10X19808   1.126   2.817   9.185 -0.5919 -0.3788  0.2316
  174SOPE  H10Y19809   1.162   2.990   9.158  0.5886 -2.4404 -2.5530
  174SOPE  C31119810   0.983   2.908   9.053  0.6575  0.4833 -0.5507
  174SOPE  H11X19811   0.908   2.984   9.085  1.1628  1.1341 -0.8849
  174SOPE  H11Y19812   0.929   2.811   9.055 -1.8485  1.8015 -0.4873
  174SOPE  C31219813   1.037   2.965   8.928 -0.8968 -0.3683  0.2962
  174SOPE  H12X19814   1.126   2.905   8.900 -1.5873 -1.6385  0.7091
  174SOPE  H12Y19815   1.056   3.074   8.939 -2.8125  0.2277 -1.5942
  174SOPE  C31319816   0.932   2.963   8.814 -0.6422  0.1454  0.0988
  174SOPE  H13X19817   0.869   3.053   8.830 -0.1473  0.4150  0.5233
  174SOPE  H13Y19818   0.860   2.880   8.834 -0.0756  0.2752  3.0713
  174SOPE  C31419819   0.989   2.965   8.661  0.7989 -0.0585 -0.7657
  174SOPE  H14X19820   1.072   3.039   8.656  1.4534 -0.8673 -4.0074
  174SOPE  H14Y19821   0.916   3.000   8.585 -0.7935 -0.2874  0.5779
  174SOPE  C31519822   1.043   2.823   8.619  0.3507 -0.3173  1.0571
  174SOPE  H15X19823   0.957   2.763   8.582 -1.1095  1.2907  1.7174
  174SOPE  H15Y19824   1.081   2.773   8.711  0.8327 -3.1262 -0.5481
  174SOPE  C31619825   1.155   2.837   8.514  1.1030 -0.1467  0.7550
  174SOPE  H16X19826   1.221   2.916   8.555  1.9161 -2.1196  3.5564
  174SOPE  H16Y19827   1.119   2.872   8.414 -0.1218  0.4096  1.3641
  174SOPE  C31719828   1.248   2.717   8.493  0.1398 -0.0778  0.0378
  174SOPE  H17X19829   1.185   2.630   8.465  0.5555  0.0013 -1.2479
  174SOPE  H17Y19830   1.306   2.701   8.587  2.7773  1.7624 -1.1329
  174SOPE  C31819831   1.333   2.723   8.366 -0.1958 -1.2252  0.3300
  174SOPE  H18X19832   1.411   2.802   8.366 -0.7495 -0.5660 -2.3232
  174SOPE  H18Y19833   1.264   2.748   8.283 -1.6741  1.2109  2.1651
  174SOPE  H18Z19834   1.378   2.622   8.355  1.1204 -0.8878  2.1201
  175SOPE     N19835   5.170   4.097  10.654 -0.6184 -0.3689  0.1178
  175SOPE   HN119836   5.238   4.046  10.714  2.2441  1.5803 -1.2175
  175SOPE   HN219837   5.196   4.198  10.644 -0.0115 -0.5848 -0.5330
  175SOPE   HN319838   5.082   4.100  10.709  1.0379 -0.6235  2.9689
  175SOPE   C1219839   5.170   4.028  10.522  0.6345  0.2277 -0.3979
  175SOPE  H12A19840   5.075   4.050  10.467 -0.1646 -2.1566 -0.0928
  175SOPE  H12B19841   5.150   3.922  10.550 -2.9968  1.3120  1.7725
  175SOPE   C1119842   5.302   4.045  10.448 -0.4007 -0.7679  0.4498
  175SOPE  H11A19843   5.315   4.155  10.443 -0.0645 -0.8505 -0.6163
  175SOPE  H11B19844   5.294   4.009  10.343 -1.3833  2.2277 -0.6082
  175SOPE     P19845   5.523   4.044  10.594 -0.0314 -0.0137  0.0249
  175SOPE   O1319846   5.569   3.945  10.695 -0.5687 -0.8382  0.0398
  175SOPE   O1419847   5.491   4.181  10.648 -0.7680  0.2610 -0.3711
  175SOPE   O1219848   5.405   3.976  10.514 -0.4980 -0.2225 -0.6065
  175SOPE   O1119849   5.637   4.065  10.486  0.4048  0.4895  0.0768
  175SOPE    C119850   5.672   3.966  10.391 -0.8830  0.4211 -0.6618
  175SOPE    HA19851   5.590   3.894  10.371 -0.7157  0.3913 -1.2850
  175SOPE    HB19852   5.761   3.914  10.434 -0.6521 -0.7058 -2.3838
  175SOPE    C219853   5.712   4.022  10.251  0.8060 -0.3356 -0.1473
  175SOPE    HS19854   5.780   4.108  10.269 -0.1619  0.6904 -1.2250
  175SOPE   O2119855   5.587   4.071  10.188 -0.4317  0.0823 -0.7963
  175SOPE   C2119856   5.562   4.197  10.220  0.7337  0.4723  0.0341
  175SOPE   O2219857   5.624   4.264  10.304  0.7186  0.9981  0.3698
  175SOPE   C2219858   5.444   4.250  10.141  0.5965  0.8544 -0.1337
  175SOPE   H2R19859   5.422   4.351  10.183  2.2383  0.6548  1.2830
  175SOPE   H2S19860   5.351   4.193  10.165 -0.3095  1.2993 -2.3329
  175SOPE    C319861   5.768   3.913  10.157 -0.3845  0.0518  0.0267
  175SOPE    HX19862   5.714   3.818  10.137  0.4672  0.1589 -3.5438
  175SOPE    HY19863   5.864   3.883  10.205 -0.2740 -0.9258 -0.7599
  175SOPE   O3119864   5.792   3.965  10.023 -0.2243 -0.1741 -0.8195
  175SOPE   C3119865   5.913   4.022  10.004 -0.2917  0.0573  0.0643
  175SOPE   O3219866   5.991   4.038  10.096  0.0575 -0.4744 -0.2341
  175SOPE   C3219867   5.939   4.075   9.864 -0.5464  0.7397 -0.1616
  175SOPE   H2X19868   6.020   4.015   9.818 -1.5093 -1.3024  0.7141
  175SOPE   H2Y19869   5.974   4.180   9.877 -2.4165  1.1159  2.7538
  175SOPE   C2319870   5.471   4.244   9.992 -0.0130  0.2434  0.0542
  175SOPE   H3R19871   5.500   4.143   9.956 -1.4981  0.0785 -0.7638
  175SOPE   H3S19872   5.547   4.318   9.961  0.4372 -0.4817 -0.6196
  175SOPE   C2419873   5.342   4.289   9.909 -0.3618 -0.1115 -0.3530
  175SOPE   H4R19874   5.267   4.207   9.912 -0.4921  0.0153  2.2961
  175SOPE   H4S19875   5.296   4.379   9.955  0.6771 -0.4013  1.3417
  175SOPE   C2519876   5.389   4.340   9.763  0.4697 -0.4084 -0.1156
  175SOPE   H5R19877   5.458   4.427   9.764  1.7653 -1.4010 -0.3009
  175SOPE   H5S19878   5.440   4.249   9.725  0.5291 -1.0597  1.4430
  175SOPE   C2619879   5.258   4.371   9.675 -0.2032 -0.3663 -0.5612
  175SOPE   H6R19880   5.191   4.283   9.675  1.3265 -1.5562 -0.2627
  175SOPE   H6S19881   5.196   4.449   9.725  0.5053  0.3137 -0.7195
  175SOPE   C2719882   5.306   4.409   9.529  0.1012 -0.2042  0.3129
  175SOPE   H7R19883   5.369   4.500   9.532  0.2656 -0.3012 -0.1780
  175SOPE   H7S19884   5.381   4.336   9.493  0.1237 -0.4981  0.9361
  175SOPE   C2819885   5.191   4.438   9.427  0.2823 -0.0383 -0.3114
  175SOPE   H8R19886   5.099   4.469   9.481 -0.3133  0.3299 -1.5002
  175SOPE   H8S19887   5.230   4.528   9.373  1.8492  0.5932  1.7252
  175SOPE   C2919888   5.168   4.331   9.320  0.5784 -0.1785  0.1321
  175SOPE   H9119889   5.126   4.238   9.363 -0.6428  1.0853  1.8337
  175SOPE  C21019890   5.199   4.336   9.194  0.0295  0.5513  0.2842
  175SOPE  H10119891   5.159   4.250   9.139 -0.2826  1.0612 -0.3105
  175SOPE  C21119892   5.269   4.447   9.126  0.1408  0.3866  0.0212
  175SOPE  H11R19893   5.356   4.399   9.077 -0.0005 -0.1003  0.2434
  175SOPE  H11S19894   5.319   4.520   9.194 -0.5959 -0.0278  1.0272
  175SOPE  C21219895   5.185   4.517   9.022 -0.0696 -0.2402  1.4569
  175SOPE  H12R19896   5.249   4.591   8.969 -3.2015  1.7383  0.1127
  175SOPE  H12S19897   5.106   4.584   9.063 -1.5946 -0.3532 -1.1069
  175SOPE  C21319898   5.115   4.425   8.921  0.1819  0.2672 -0.0532
  175SOPE  H13R19899   5.021   4.389   8.968 -0.2004  1.1360 -0.1309
  175SOPE  H13S19900   5.181   4.336   8.908 -0.5312 -0.4808  1.2440
  175SOPE  C21419901   5.072   4.490   8.784  0.0662  0.4724 -0.5619
  175SOPE  H14R19902   5.168   4.511   8.732  1.0545 -0.3931  0.8359
  175SOPE  H14S19903   5.028   4.584   8.824 -1.4097 -0.9043  1.1962
  175SOPE  C21519904   4.966   4.406   8.707  0.3361  0.6086  0.2693
  175SOPE  H15R19905   4.885   4.379   8.778 -1.8829  0.0145 -2.3243
  175SOPE  H15S19906   5.023   4.321   8.665  2.7436  2.1950  0.1710
  175SOPE  C21619907   4.895   4.489   8.589  0.3847 -0.3771  0.0719
  175SOPE  H16R19908   4.810   4.424   8.557  1.1544 -0.7322 -1.3455
  175SOPE  H16S19909   4.965   4.504   8.504 -0.9888  1.9198 -0.7519
  175SOPE  C21719910   4.826   4.618   8.627  0.3550  0.1528 -0.5996
  175SOPE  H17R19911   4.914   4.683   8.648  0.5227 -0.7472  1.8722
  175SOPE  H17S19912   4.763   4.600   8.717  1.2686 -0.7345 -0.1104
  175SOPE  C21819913   4.737   4.682   8.521 -0.4870  0.3584  0.2473
  175SOPE  H18R19914   4.653   4.616   8.492  0.2676 -0.7642  0.5162
  175SOPE  H18S19915   4.799   4.701   8.431 -0.0004 -1.4628  0.1548
  175SOPE  H18T19916   4.696   4.783   8.541  2.4330  1.5720  0.6206
  175SOPE   C3319917   5.806   4.073   9.778  0.3123  0.6962  0.0093
  175SOPE   H3X19918   5.716   4.111   9.831  0.1102 -0.1998  0.3198
  175SOPE   H3Y19919   5.784   3.966   9.757  0.6459  0.9175 -1.5337
  175SOPE   C3419920   5.830   4.138   9.646  0.1859 -0.8519  0.0375
  175SOPE   H4X19921   5.879   4.073   9.570  0.1875 -3.7123  2.3047
  175SOPE   H4Y19922   5.892   4.227   9.665  0.8874 -1.2272 -0.4418
  175SOPE   C3519923   5.697   4.200   9.590  0.5767 -0.1181  0.5167
  175SOPE   H5X19924   5.658   4.271   9.665 -1.2837  0.6877 -1.1108
  175SOPE   H5Y19925   5.625   4.115   9.587 -0.6638  0.8965 -2.1435
  175SOPE   C3619926   5.709   4.289   9.464 -0.1421  0.0125 -0.1770
  175SOPE   H6X19927   5.813   4.322   9.444  0.3331 -2.4083 -2.1845
  175SOPE   H6Y19928   5.653   4.384   9.483 -1.4575 -0.5422 -1.1124
  175SOPE   C3719929   5.660   4.224   9.339 -0.8464 -0.4385 -0.3856
  175SOPE   H7X19930   5.553   4.198   9.347 -1.4101  1.7284 -0.2605
  175SOPE   H7Y19931   5.709   4.125   9.334 -1.1256 -0.6977  1.3061
  175SOPE   C3819932   5.676   4.313   9.221 -0.0828  0.5298  0.6559
  175SOPE   H8X19933   5.598   4.391   9.233  0.1072  0.7552  0.4325
  175SOPE   H8Y19934   5.651   4.256   9.129  0.6653 -0.0108  0.7777
  175SOPE   C3919935   5.818   4.376   9.183 -0.2854 -0.1142  0.6865
  175SOPE   H9X19936   5.903   4.312   9.214  0.5343  0.1520 -0.9089
  175SOPE   H9Y19937   5.833   4.470   9.240  2.5900 -0.0266 -0.0399
  175SOPE  C31019938   5.827   4.421   9.031  0.0578 -0.0653  0.0494
  175SOPE  H10X19939   5.814   4.328   8.970 -1.3866  0.1788 -0.0616
  175SOPE  H10Y19940   5.913   4.486   9.005 -0.0361 -0.2804 -0.8323
  175SOPE  C31119941   5.701   4.503   8.974 -0.2263 -0.1985  0.1600
  175SOPE  H11X19942   5.723   4.609   9.002  0.3626 -0.0036 -0.9988
  175SOPE  H11Y19943   5.611   4.462   9.025 -0.9235 -0.1976 -1.0267
  175SOPE  C31219944   5.687   4.500   8.822  0.7516  0.0951 -0.0940
  175SOPE  H12X19945   5.667   4.395   8.791 -0.4862  0.3477 -0.2011
  175SOPE  H12Y19946   5.781   4.524   8.769  0.3484 -2.3954 -2.1187
  175SOPE  C31319947   5.559   4.591   8.781  0.5122  0.4969 -0.3240
  175SOPE  H13X19948   5.592   4.696   8.775 -0.4844  0.7755 -1.2415
  175SOPE  H13Y19949   5.484   4.577   8.863  1.8053  1.5053  1.0915
  175SOPE  C31419950   5.489   4.561   8.642  0.2267 -0.4129  0.1008
  175SOPE  H14X19951   5.417   4.640   8.611  1.5312  1.2567  1.1670
  175SOPE  H14Y19952   5.428   4.469   8.658 -1.3406  0.4959 -0.3624
  175SOPE  C31519953   5.574   4.538   8.521  0.1403 -0.3045  0.0125
  175SOPE  H15X19954   5.508   4.531   8.433 -0.5252  0.1991  0.4615
  175SOPE  H15Y19955   5.621   4.438   8.535 -0.4952 -0.6289 -0.1127
  175SOPE  C31619956   5.668   4.651   8.476 -0.3155 -0.0119  0.7756
  175SOPE  H16X19957   5.709   4.607   8.382 -2.7524  0.0118 -0.3734
  175SOPE  H16Y19958   5.749   4.673   8.549  0.8405  2.9830 -1.2143
  175SOPE  C31719959   5.597   4.782   8.428 -0.7859  0.3243 -0.1417
  175SOPE  H17X19960   5.613   4.858   8.507 -1.0543  1.5524 -1.2390
  175SOPE  H17Y19961   5.487   4.773   8.418 -0.6056 -0.7654 -1.4756
  175SOPE  C31819962   5.644   4.837   8.298  0.4757 -0.6526  0.3528
  175SOPE  H18X19963   5.607   4.794   8.203 -0.4940 -1.1501  0.9379
  175SOPE  H18Y19964   5.754   4.850   8.305  0.4117 -0.0878  0.3230
  175SOPE  H18Z19965   5.606   4.941   8.306 -3.4660 -1.7823 -1.2349
  176SOPE     N19966   3.237   0.178  11.211  0.6208  0.5132  0.2196
  176SOPE   HN119967   3.331   0.161  11.168 -0.2175 -2.9596 -0.5448
  176SOPE   HN219968   3.236   0.203  11.311 -1.6341  0.9154  0.1435
  176SOPE   HN319969   3.201   0.081  11.198  0.0893  0.6025  0.9950
  176SOPE   C1219970   3.146   0.265  11.122 -0.0551 -0.7913  0.2480
  176SOPE  H12A19971   3.157   0.369  11.159  3.8307 -1.3085  0.9736
  176SOPE  H12B19972   3.043   0.227  11.142  0.8367 -3.4775  0.0829
  176SOPE   C1119973   3.184   0.259  10.968  0.6417 -0.1898  0.4233
  176SOPE  H11A19974   3.279   0.314  10.950 -0.3007  0.6575 -2.6081
  176SOPE  H11B19975   3.100   0.309  10.916  0.6349 -1.4410 -0.8328
  176SOPE     P19976   3.327   0.059  10.881 -0.1536 -0.6522  0.0717
  176SOPE   O1319977   3.327  -0.090  10.876 -0.5929 -0.3315  0.5221
  176SOPE   O1419978   3.426   0.129  10.966 -0.3193  0.1916 -0.0890
  176SOPE   O1219979   3.188   0.118  10.930 -0.1456 -0.1011  0.2388
  176SOPE   O1119980   3.334   0.115  10.733 -0.7054  0.3127  0.8033
  176SOPE    C119981   3.257   0.046  10.632  0.3391 -0.5152  0.2256
  176SOPE    HA19982   3.152   0.044  10.669  1.2207  1.5528  3.2220
  176SOPE    HB19983   3.298  -0.057  10.621  2.9023  0.5085 -0.2513
  176SOPE    C219984   3.263   0.125  10.494  0.2370 -0.7666 -0.3370
  176SOPE    HS19985   3.225   0.062  10.411  0.6115  0.7229 -1.6760
  176SOPE   O2119986   3.398   0.173  10.467 -0.3268 -0.0673 -0.5799
  176SOPE   C2119987   3.494   0.089  10.429  0.3208  0.0748  0.1399
  176SOPE   O2219988   3.484  -0.031  10.418  0.0858  0.0387  0.2190
  176SOPE   C2219989   3.618   0.165  10.387 -0.2433  0.9801  0.5096
  176SOPE   H2R19990   3.671   0.189  10.482  0.7635 -0.4972  0.3585
  176SOPE   H2S19991   3.602   0.262  10.335 -1.7573 -0.6216 -2.2312
  176SOPE    C319992   3.171   0.245  10.500 -0.1494 -0.2056  0.1892
  176SOPE    HX19993   3.192   0.323  10.576 -1.5787 -0.4365  0.8424
  176SOPE    HY19994   3.069   0.211  10.527 -0.4732  0.1702 -0.5428
  176SOPE   O3119995   3.153   0.313  10.366  0.2951  0.7977  0.2471
  176SOPE   C3119996   3.249   0.397  10.335  0.3020 -0.4134 -0.4676
  176SOPE   O3219997   3.328   0.438  10.420  0.3227  0.1104  0.5845
  176SOPE   C3219998   3.261   0.435  10.190  0.1140  0.3746 -0.0526
  176SOPE   H2X19999   3.370   0.445  10.172 -0.1678 -0.5455 -2.6887
  176SOPE   H2Y20000   3.217   0.534  10.167  0.4970  0.5568 -0.0072
  176SOPE   C2320001   3.722   0.076  10.313 -0.1194 -0.9739  0.5671
  176SOPE   H3R20002   3.711  -0.032  10.335  1.4571 -1.3924 -0.5415
  176SOPE   H3S20003   3.818   0.110  10.357  0.0230  1.2281 -1.2608
  176SOPE   C2420004   3.717   0.102  10.163  0.3990  0.0692  1.1318
  176SOPE   H4R20005   3.737   0.210  10.147  0.1147 -0.1019 -0.5425
  176SOPE   H4S20006   3.799   0.045  10.116 -1.1775 -0.8722 -0.6183
  176SOPE   C2520007   3.586   0.065  10.093 -0.0147 -0.0729  0.5710
  176SOPE   H5R20008   3.562  -0.041  10.115  1.0377 -0.7284 -1.3013
  176SOPE   H5S20009   3.502   0.130  10.128 -0.7299 -0.9377  0.4814
  176SOPE   C2620010   3.596   0.074   9.938 -0.4257 -0.1311  0.1369
  176SOPE   H6R20011   3.501   0.024   9.907 -0.8491  0.9414 -0.3351
  176SOPE   H6S20012   3.592   0.179   9.902  2.4571  0.5601  1.5363
  176SOPE   C2720013   3.713   0.010   9.861 -0.8535 -0.3898 -0.2100
  176SOPE   H7R20014   3.805   0.059   9.898 -2.5472  1.3757  1.9527
  176SOPE   H7S20015   3.710  -0.098   9.886  3.1273 -0.6877 -0.4189
  176SOPE   C2820016   3.707   0.020   9.708 -0.7194  0.1674 -0.0099
  176SOPE   H8R20017   3.609  -0.024   9.681 -0.4909 -1.2174  1.2693
  176SOPE   H8S20018   3.709   0.123   9.666  0.3170  0.2852  0.2772
  176SOPE   C2920019   3.814  -0.053   9.634  0.2840 -0.0170 -0.1961
  176SOPE   H9120020   3.868  -0.129   9.693 -0.2088 -0.3682 -0.1938
  176SOPE  C21020021   3.846  -0.027   9.501 -0.3287 -0.3211  0.1462
  176SOPE  H10120022   3.916  -0.094   9.449 -0.8081 -1.2754  0.7055
  176SOPE  C21120023   3.773   0.064   9.406  0.3895 -0.3724 -0.7213
  176SOPE  H11R20024   3.801   0.171   9.418 -3.1307  0.8696 -2.1959
  176SOPE  H11S20025   3.667   0.072   9.438  0.2419 -0.0089 -1.2849
  176SOPE  C21220026   3.767   0.026   9.254 -0.4621  0.5019 -0.7835
  176SOPE  H12R20027   3.869  -0.004   9.220 -0.3137  0.5188 -0.3567
  176SOPE  H12S20028   3.732   0.118   9.202  1.3806  1.3339 -0.6259
  176SOPE  C21320029   3.676  -0.094   9.229 -0.2245  0.5543 -0.4500
  176SOPE  H13R20030   3.575  -0.063   9.264 -0.3467 -0.3649  0.0531
  176SOPE  H13S20031   3.709  -0.179   9.293 -1.0351 -0.1522 -0.9535
  176SOPE  C21420032   3.675  -0.148   9.087  0.1001  0.0340 -0.5129
  176SOPE  H14R20033   3.778  -0.190   9.080  0.6646  0.2721  3.5704
  176SOPE  H14S20034   3.653  -0.065   9.017 -1.3075 -0.9374 -1.2606
  176SOPE  C21520035   3.565  -0.253   9.075 -0.5373 -0.6269 -0.6823
  176SOPE  H15R20036   3.467  -0.211   9.107 -0.2749 -0.8805  0.4918
  176SOPE  H15S20037   3.608  -0.332   9.140  0.6676  2.0747  1.9964
  176SOPE  C21620038   3.538  -0.306   8.933 -0.6123  0.2686 -0.9435
  176SOPE  H16R20039   3.634  -0.355   8.904 -0.2351  0.2559  0.2799
  176SOPE  H16S20040   3.521  -0.219   8.866  0.8356 -0.3485 -2.1824
  176SOPE  C21720041   3.431  -0.412   8.924 -0.0273 -0.5068  0.1739
  176SOPE  H17R20042   3.339  -0.365   8.966  1.3246 -0.3054  3.2339
  176SOPE  H17S20043   3.452  -0.497   8.993  0.3708 -1.0754 -0.6361
  176SOPE  C21820044   3.404  -0.465   8.784  0.1002  0.2858 -0.4739
  176SOPE  H18R20045   3.487  -0.513   8.729  0.7826  0.4878  0.3612
  176SOPE  H18S20046   3.354  -0.384   8.726 -0.5479  1.1040  1.1688
  176SOPE  H18T20047   3.318  -0.533   8.799 -0.8556  1.7776  1.1603
  176SOPE   C3320048   3.201   0.339  10.090  0.8073 -0.1752 -0.7701
  176SOPE   H3X20049   3.091   0.353  10.086  0.6895 -1.1939 -1.3927
  176SOPE   H3Y20050   3.210   0.230  10.108 -0.2613 -0.2608 -0.6893
  176SOPE   C3420051   3.277   0.352   9.962  0.5708 -0.5389  0.1824
  176SOPE   H4X20052   3.381   0.322   9.983  1.0935  2.4684  2.5481
  176SOPE   H4Y20053   3.286   0.454   9.918 -0.2371 -0.4790  0.1391
  176SOPE   C3520054   3.217   0.267   9.849 -0.4469 -0.0405 -0.1372
  176SOPE   H5X20055   3.129   0.325   9.813 -0.0480  0.5845 -0.1318
  176SOPE   H5Y20056   3.188   0.175   9.903 -2.4050  0.5874 -0.0336
  176SOPE   C3620057   3.315   0.236   9.735 -1.1457 -0.4934  1.2158
  176SOPE   H6X20058   3.419   0.206   9.758 -0.6213 -0.9608 -1.4271
  176SOPE   H6Y20059   3.317   0.337   9.688 -0.0618 -1.6222 -1.3202
  176SOPE   C3720060   3.252   0.145   9.632  0.1555  0.7772  0.3726
  176SOPE   H7X20061   3.146   0.174   9.617  0.6585  1.7265 -1.7415
  176SOPE   H7Y20062   3.262   0.042   9.671 -0.4373  0.9257  0.9234
  176SOPE   C3820063   3.318   0.159   9.497  0.4754  0.1440 -0.1903
  176SOPE   H8X20064   3.426   0.141   9.512  0.1154 -2.4004 -0.1357
  176SOPE   H8Y20065   3.302   0.256   9.445  0.6585  0.2393 -0.0690
  176SOPE   C3920066   3.265   0.051   9.401 -0.2706 -0.7947  1.0551
  176SOPE   H9X20067   3.154   0.058   9.411 -0.1855 -1.4184  2.9006
  176SOPE   H9Y20068   3.292  -0.052   9.432 -2.2065 -0.7144  3.2974
  176SOPE  C31020069   3.303   0.082   9.250  0.3242 -0.3570 -0.3963
  176SOPE  H10X20070   3.412   0.070   9.232  1.0065  1.1563  2.1670
  176SOPE  H10Y20071   3.270   0.187   9.233  2.6658  0.6594  0.8535
  176SOPE  C31120072   3.226  -0.017   9.155  0.2149 -0.2642  1.2672
  176SOPE  H11X20073   3.118  -0.010   9.177  0.0990 -1.7566  1.3206
  176SOPE  H11Y20074   3.269  -0.117   9.176  0.3432 -0.5874 -0.3493
  176SOPE  C31220075   3.250   0.022   9.008  0.4635 -0.5651  0.4140
  176SOPE  H12X20076   3.350  -0.007   8.969  0.2718 -0.8855  0.1587
  176SOPE  H12Y20077   3.239   0.133   9.006 -1.9947 -0.7594 -1.3561
  176SOPE  C31320078   3.155  -0.063   8.921  0.6253 -0.1659 -0.3639
  176SOPE  H13X20079   3.047  -0.038   8.934  0.6833  1.2182 -2.2297
  176SOPE  H13Y20080   3.176  -0.166   8.957  1.6352  0.1642  0.0246
  176SOPE  C31420081   3.199  -0.072   8.778 -0.5648 -0.0019 -0.2333
  176SOPE  H14X20082   3.305  -0.106   8.781 -1.1776 -2.1959 -1.7096
  176SOPE  H14Y20083   3.202   0.030   8.733 -0.3033 -0.4259 -1.1804
  176SOPE  C31520084   3.127  -0.157   8.675 -0.1342 -0.0816  0.1119
  176SOPE  H15X20085   3.038  -0.103   8.635  1.1026  1.1314 -1.1375
  176SOPE  H15Y20086   3.089  -0.253   8.716 -1.2131  0.0289 -0.5915
  176SOPE  C31620087   3.226  -0.193   8.562  0.3723  0.0880 -0.4177
  176SOPE  H16X20088   3.326  -0.213   8.606 -0.3585 -0.9675  0.8179
  176SOPE  H16Y20089   3.223  -0.100   8.502  1.7608  1.6002  1.6909
  176SOPE  C31720090   3.188  -0.309   8.475  0.0416  0.1755  0.4361
  176SOPE  H17X20091   3.169  -0.397   8.541  0.9962 -1.0209 -0.8213
  176SOPE  H17Y20092   3.275  -0.345   8.416  0.2977  0.4334  0.6510
  176SOPE  C31820093   3.066  -0.293   8.380  0.8167 -0.1339  1.1153
  176SOPE  H18X20094   3.091  -0.245   8.283 -1.9672 -3.5880 -1.5891
  176SOPE  H18Y20095   2.994  -0.229   8.436 -1.6857 -0.7270 -1.2409
  176SOPE  H18Z20096   3.025  -0.393   8.356  0.0992  0.1925  0.9674
  177SOPE     N20097   2.039   0.252  11.223  0.4532  0.1111 -0.3175
  177SOPE   HN120098   2.037   0.231  11.325 -0.7998 -1.7835 -0.6728
  177SOPE   HN220099   2.084   0.167  11.182  0.8793 -0.1977  0.7489
  177SOPE   HN320100   2.101   0.330  11.195  2.0309 -0.8281  0.4172
  177SOPE   C1220101   1.908   0.252  11.153  0.1210 -0.2275 -0.7498
  177SOPE  H12A20102   1.837   0.322  11.201 -2.0363 -1.6328 -1.7375
  177SOPE  H12B20103   1.864   0.152  11.172 -2.4039  1.0141  0.4470
  177SOPE   C1120104   1.916   0.276  11.006  0.7976 -0.8758  0.2160
  177SOPE  H11A20105   1.815   0.249  10.969 -0.1637  1.0691  1.2720
  177SOPE  H11B20106   1.990   0.205  10.963  0.6901  0.6297 -2.7643
  177SOPE     P20107   2.105   0.445  10.933  0.4799  0.0650 -0.0245
  177SOPE   O1320108   2.190   0.400  11.044 -0.5260  0.1440 -0.8139
  177SOPE   O1420109   2.120   0.582  10.874  0.2740  0.5889 -0.5766
  177SOPE   O1220110   1.953   0.407  10.973  0.2556 -0.1811  0.4447
  177SOPE   O1120111   2.129   0.340  10.815 -0.8609 -0.5996 -0.2346
  177SOPE    C120112   2.069   0.358  10.684  0.3897 -0.0255 -0.5136
  177SOPE    HA20113   1.977   0.422  10.687 -0.1165 -0.7877  0.7132
  177SOPE    HB20114   2.044   0.261  10.636  0.0593 -0.2265  0.0623
  177SOPE    C220115   2.160   0.448  10.590  0.4896 -0.2001  0.4682
  177SOPE    HS20116   2.164   0.542  10.649  2.0695 -1.5954  2.7279
  177SOPE   O2120117   2.095   0.461  10.463 -0.3109 -0.5320  0.6969
  177SOPE   C2120118   2.112   0.578  10.401 -0.1726 -0.6906  0.5428
  177SOPE   O2220119   2.178   0.672  10.440 -0.3941  0.2853  0.2793
  177SOPE   C2220120   2.055   0.571  10.255 -0.6108  0.9016  0.1463
  177SOPE   H2R20121   1.967   0.503  10.247  0.1204  0.0879 -1.7525
  177SOPE   H2S20122   2.131   0.514  10.196  2.5098  2.9748  1.8886
  177SOPE    C320123   2.307   0.399  10.583  0.2891  0.6996 -0.8521
  177SOPE    HX20124   2.311   0.292  10.556  1.5801  0.5309 -0.0643
  177SOPE    HY20125   2.336   0.388  10.689 -0.1628 -3.2088 -0.9993
  177SOPE   O3120126   2.400   0.469  10.499  0.0093  0.0418 -0.4810
  177SOPE   C3120127   2.411   0.416  10.373 -0.2792 -0.0929 -0.4153
  177SOPE   O3220128   2.342   0.329  10.321 -0.7416  0.0130  0.0020
  177SOPE   C3220129   2.526   0.479  10.303 -0.6915  0.2698 -0.1257
  177SOPE   H2X20130   2.597   0.402  10.268  1.0494  1.5296  0.4969
  177SOPE   H2Y20131   2.570   0.562  10.362 -0.0964 -0.1075 -0.0408
  177SOPE   C2320132   2.039   0.694  10.179  0.8846 -0.4350 -1.1047
  177SOPE   H3R20133   2.110   0.770  10.219 -1.0880  1.2346 -0.6178
  177SOPE   H3S20134   1.936   0.732  10.197  0.7090 -1.7286  0.9454
  177SOPE   C2420135   2.064   0.696  10.031 -0.0871  0.3418  0.4229
  177SOPE   H4R20136   2.165   0.653  10.015 -0.1354  0.2781  0.2877
  177SOPE   H4S20137   2.000   0.623   9.977  0.9827 -0.4030  0.1299
  177SOPE   C2520138   2.059   0.836   9.968  1.6301 -0.0686  0.2249
  177SOPE   H5R20139   1.954   0.863   9.944  1.2822 -1.9371 -0.5993
  177SOPE   H5S20140   2.089   0.909  10.046 -1.5122 -1.1084  2.5771
  177SOPE   C2620141   2.163   0.851   9.854  0.6054  0.4158  0.5076
  177SOPE   H6R20142   2.155   0.951   9.806  4.0497 -0.8143 -3.1996
  177SOPE   H6S20143   2.269   0.833   9.882  1.8564  2.5525 -2.2432
  177SOPE   C2720144   2.136   0.746   9.739 -0.8651  0.3235  0.1402
  177SOPE   H7R20145   2.188   0.650   9.761 -0.7085  0.7319  1.6862
  177SOPE   H7S20146   2.025   0.735   9.732 -0.8874  0.5026  0.2223
  177SOPE   C2820147   2.190   0.798   9.611 -0.3594 -0.3364  0.7249
  177SOPE   H8R20148   2.145   0.899   9.603  1.9345  0.6471 -1.3017
  177SOPE   H8S20149   2.301   0.804   9.615 -0.3300  0.4468 -0.5394
  177SOPE   C2920150   2.149   0.721   9.488  0.3307  0.2767  0.1142
  177SOPE   H9120151   2.144   0.612   9.501  0.5778  0.1153 -1.0553
  177SOPE  C21020152   2.129   0.769   9.366  0.6094 -0.6058  1.2409
  177SOPE  H10120153   2.104   0.699   9.286 -1.4289  1.1186  0.2737
  177SOPE  C21120154   2.154   0.914   9.322 -0.2688  0.3226 -0.7406
  177SOPE  H11R20155   2.231   0.920   9.242 -0.0716  0.1204 -0.5678
  177SOPE  H11S20156   2.183   0.977   9.409  0.0088 -0.5480 -0.1830
  177SOPE  C21220157   2.030   0.988   9.270  0.7635  0.3974  0.1214
  177SOPE  H12R20158   2.050   1.096   9.255 -0.3821  0.4890 -0.9832
  177SOPE  H12S20159   1.944   0.984   9.340  0.0731  1.5276 -0.6192
  177SOPE  C21320160   1.990   0.935   9.134  0.0023 -0.5811 -0.1525
  177SOPE  H13R20161   1.973   0.826   9.142 -3.3200 -0.8289 -5.6836
  177SOPE  H13S20162   2.076   0.949   9.065  2.3983 -1.1083  2.5231
  177SOPE  C21420163   1.866   1.008   9.081 -0.0413  0.1807  0.0596
  177SOPE  H14R20164   1.888   1.112   9.049 -0.2974  0.3599  0.4652
  177SOPE  H14S20165   1.801   1.015   9.171 -0.1110 -1.1203  0.1286
  177SOPE  C21520166   1.805   0.948   8.952  0.4729 -0.0598 -0.0292
  177SOPE  H15R20167   1.714   1.007   8.926  1.1354  0.8632 -0.3062
  177SOPE  H15S20168   1.775   0.844   8.977  1.9730 -0.6287 -0.5086
  177SOPE  C21620169   1.905   0.969   8.843 -0.2725 -0.5911  0.7088
  177SOPE  H16R20170   1.999   0.913   8.864 -0.4237 -0.9580  0.4145
  177SOPE  H16S20171   1.934   1.075   8.854 -2.5476  0.4593 -2.2706
  177SOPE  C21720172   1.853   0.947   8.699  0.5241  0.0821 -0.1586
  177SOPE  H17R20173   1.776   1.027   8.691  0.2026 -0.3476 -2.1443
  177SOPE  H17S20174   1.804   0.848   8.685 -1.9554  1.2277 -0.0773
  177SOPE  C21820175   1.953   0.962   8.584  0.1760 -0.3694 -0.2053
  177SOPE  H18R20176   1.891   0.963   8.492  2.2248 -0.7892 -1.6614
  177SOPE  H18S20177   2.020   0.873   8.588 -0.2706 -0.6993  0.0710
  177SOPE  H18T20178   2.005   1.059   8.592  0.2396 -0.4733  0.7107
  177SOPE   C3320179   2.479   0.547  10.169  0.0684 -0.1733 -0.1291
  177SOPE   H3X20180   2.560   0.619  10.144  0.3200 -0.8788 -1.4389
  177SOPE   H3Y20181   2.387   0.610  10.173 -0.6393 -1.1928  0.1060
  177SOPE   C3420182   2.492   0.461  10.047  0.2317  0.0683 -0.3642
  177SOPE   H4X20183   2.431   0.371  10.070  0.5223 -0.6280 -2.1739
  177SOPE   H4Y20184   2.600   0.436  10.047 -0.3634 -3.0685  1.2746
  177SOPE   C3520185   2.444   0.522   9.911  0.3145 -0.5897 -0.0169
  177SOPE   H5X20186   2.489   0.624   9.908 -0.7380 -0.1042  0.0946
  177SOPE   H5Y20187   2.333   0.529   9.924  0.3028  0.0332 -0.3797
  177SOPE   C3620188   2.503   0.454   9.789 -0.0842  0.4386  0.8896
  177SOPE   H6X20189   2.502   0.345   9.806  0.8920  0.5288  1.6295
  177SOPE   H6Y20190   2.611   0.476   9.772 -0.4174  0.0675 -2.2721
  177SOPE   C3720191   2.435   0.492   9.657 -0.2600  0.0517  0.7380
  177SOPE   H7X20192   2.414   0.601   9.658  0.3270  0.2134 -0.8432
  177SOPE   H7Y20193   2.334   0.446   9.658 -0.3365  0.2167  0.6542
  177SOPE   C3820194   2.515   0.451   9.529 -0.4205 -0.0432 -0.0434
  177SOPE   H8X20195   2.525   0.341   9.524 -1.8857 -0.3881  2.7939
  177SOPE   H8Y20196   2.615   0.492   9.555  1.4288 -3.0950 -1.7108
  177SOPE   C3920197   2.461   0.502   9.393  0.4917 -0.0898 -0.2148
  177SOPE   H9X20198   2.447   0.611   9.409  1.7651 -0.3597  4.1772
  177SOPE   H9Y20199   2.364   0.455   9.366  0.4436 -1.7920  2.5080
  177SOPE  C31020200   2.555   0.482   9.270  0.1112 -0.3736  0.3455
  177SOPE  H10X20201   2.583   0.375   9.283 -2.2001 -0.9397  1.2095
  177SOPE  H10Y20202   2.641   0.551   9.267  0.0140 -0.2712 -1.1264
  177SOPE  C31120203   2.484   0.486   9.130  0.8327  0.1186 -0.1495
  177SOPE  H11X20204   2.380   0.448   9.144  0.5333  1.1423  0.4616
  177SOPE  H11Y20205   2.539   0.424   9.056 -0.6950  0.5469 -1.7163
  177SOPE  C31220206   2.465   0.632   9.082 -0.0265  0.0902  0.7457
  177SOPE  H12X20207   2.563   0.683   9.097  0.8978 -2.0069  2.3838
  177SOPE  H12Y20208   2.392   0.668   9.157 -0.0269  1.8421 -0.0325
  177SOPE  C31320209   2.413   0.643   8.938  0.3739 -0.1303 -0.5063
  177SOPE  H13X20210   2.326   0.575   8.930  0.5039 -0.5357  1.1586
  177SOPE  H13Y20211   2.489   0.610   8.865 -0.8753  0.1953 -2.0117
  177SOPE  C31420212   2.360   0.795   8.913  0.1563 -0.0292  0.1485
  177SOPE  H14X20213   2.432   0.872   8.948  0.6354  0.7799 -2.3945
  177SOPE  H14Y20214   2.271   0.816   8.977  1.3675  2.4164  1.1435
  177SOPE  C31520215   2.326   0.841   8.767 -0.4810  0.4235 -0.1129
  177SOPE  H15X20216   2.304   0.950   8.767  1.6568  0.9107  1.6605
  177SOPE  H15Y20217   2.244   0.789   8.713 -1.2171  1.4955 -0.0747
  177SOPE  C31620218   2.449   0.837   8.669  0.0072  0.0805 -0.8857
  177SOPE  H16X20219   2.484   0.733   8.654 -2.2247 -0.4707 -2.7645
  177SOPE  H16Y20220   2.528   0.902   8.713  0.3808  0.1549 -1.6649
  177SOPE  C31720221   2.408   0.884   8.527 -0.2477  0.2894 -0.5874
  177SOPE  H17X20222   2.504   0.888   8.472  0.2641  1.9924  0.3534
  177SOPE  H17Y20223   2.355   0.982   8.533 -1.6167 -0.3881 -1.0720
  177SOPE  C31820224   2.310   0.804   8.443 -0.1650  0.3111 -0.5712
  177SOPE  H18X20225   2.212   0.790   8.492  0.9524 -0.5061  1.5883
  177SOPE  H18Y20226   2.345   0.698   8.439 -0.3568  0.2466 -0.5499
  177SOPE  H18Z20227   2.311   0.845   8.339  2.4268  0.8115 -0.4238
  178SOPE     N20228   5.066   1.382  10.482  0.0524 -0.1726 -0.2478
  178SOPE   HN120229   5.122   1.296  10.495 -0.5161 -0.5734 -0.4062
  178SOPE   HN220230   5.121   1.459  10.524  0.9233  0.4389 -2.3561
  178SOPE   HN320231   4.979   1.374  10.538 -0.6967 -1.3601 -1.5230
  178SOPE   C1220232   5.037   1.420  10.338  0.0024 -0.1606  0.0207
  178SOPE  H12A20233   5.049   1.328  10.277 -4.6158 -1.2718  0.4228
  178SOPE  H12B20234   5.093   1.510  10.305 -1.0898 -0.6289 -3.5257
  178SOPE   C1120235   4.883   1.442  10.337  0.2019 -0.1660  0.2255
  178SOPE  H11A20236   4.823   1.349  10.341 -2.8666  1.6827 -0.0469
  178SOPE  H11B20237   4.866   1.497  10.241  1.3047  0.7020  0.4948
  178SOPE     P20238   4.697   1.566  10.473 -0.0234 -0.0096 -0.3301
  178SOPE   O1320239   4.689   1.574  10.621 -0.0344 -0.1561 -0.7900
  178SOPE   O1420240   4.610   1.475  10.401 -0.0408 -0.1999 -0.0358
  178SOPE   O1220241   4.850   1.531  10.446 -1.0713 -0.9751  0.7287
  178SOPE   O1120242   4.671   1.709  10.412  0.6272 -0.4968 -0.5630
  178SOPE    C120243   4.773   1.812  10.392  0.6430 -0.5427 -0.3320
  178SOPE    HA20244   4.874   1.785  10.430  1.0283 -0.4495 -1.2796
  178SOPE    HB20245   4.747   1.900  10.455  0.3924 -0.7595 -0.1309
  178SOPE    C220246   4.782   1.847  10.240 -0.2113  0.5297 -0.1618
  178SOPE    HS20247   4.681   1.883  10.214  0.4834  1.7296 -1.3146
  178SOPE   O2120248   4.818   1.734  10.164  0.0874  0.0294  0.0017
  178SOPE   C2120249   4.745   1.701  10.057 -0.2048  0.0903 -0.9962
  178SOPE   O2220250   4.649   1.766  10.021  0.1336 -0.4628  0.6289
  178SOPE   C2220251   4.797   1.571   9.989 -0.2078  0.0013  0.5152
  178SOPE   H2R20252   4.761   1.490  10.056  1.2791 -0.0328  1.3072
  178SOPE   H2S20253   4.908   1.578   9.995 -0.0285 -2.1386  0.4199
  178SOPE    C320254   4.878   1.960  10.211 -0.7880 -0.6915 -0.0966
  178SOPE    HX20255   4.986   1.933  10.213 -0.1602  1.6616  1.2727
  178SOPE    HY20256   4.859   2.038  10.287  1.9304  1.2154 -1.2216
  178SOPE   O3120257   4.846   2.028  10.078 -0.9157 -0.3679  0.2973
  178SOPE   C3120258   4.940   1.992   9.982 -0.6714 -0.0546  0.5955
  178SOPE   O3220259   5.027   1.913   9.996 -0.3530 -0.4885  0.8116
  178SOPE   C3220260   4.904   2.074   9.856  0.7166 -0.2394 -0.4436
  178SOPE   H2X20261   4.836   2.157   9.885 -1.6115 -2.6386  1.5063
  178SOPE   H2Y20262   4.841   2.006   9.794  1.4372 -1.8856  0.5677
  178SOPE   C2320263   4.742   1.543   9.842  1.0856 -1.1375  0.9676
  178SOPE   H3R20264   4.633   1.566   9.839  1.3331  0.2147 -2.1472
  178SOPE   H3S20265   4.767   1.442   9.803 -1.4720 -1.2130 -0.7840
  178SOPE   C2420266   4.811   1.649   9.759 -0.1808  0.2803  0.3682
  178SOPE   H4R20267   4.793   1.747   9.808 -0.3817  0.8063 -0.7424
  178SOPE   H4S20268   4.920   1.632   9.762 -0.3390 -1.0526 -0.6745
  178SOPE   C2520269   4.790   1.641   9.606 -0.0203 -0.8025  0.6502
  178SOPE   H5R20270   4.810   1.540   9.565  0.6373 -0.0159 -1.1019
  178SOPE   H5S20271   4.684   1.659   9.581  0.4485  1.2682 -0.0921
  178SOPE   C2620272   4.887   1.728   9.518 -0.2425 -0.0673 -0.1587
  178SOPE   H6R20273   4.869   1.836   9.536 -1.6676 -0.3225  0.0983
  178SOPE   H6S20274   4.983   1.705   9.567 -1.1745 -0.5883  1.4839
  178SOPE   C2720275   4.870   1.703   9.366 -0.6634 -0.6320  0.8121
  178SOPE   H7R20276   4.862   1.597   9.336 -1.1154 -1.0716  2.3658
  178SOPE   H7S20277   4.772   1.748   9.339 -0.7103 -0.7362  0.8088
  178SOPE   C2820278   4.976   1.774   9.280  0.3012 -0.3793 -0.1983
  178SOPE   H8R20279   4.932   1.786   9.178  0.9919 -0.2690 -0.4896
  178SOPE   H8S20280   4.982   1.875   9.327  0.6506 -0.3174 -0.3676
  178SOPE   C2920281   5.103   1.701   9.287 -0.5618 -0.2612 -0.1729
  178SOPE   H9120282   5.132   1.684   9.391  3.1461 -1.8966 -1.3070
  178SOPE  C21020283   5.188   1.670   9.195 -0.5391  0.3780  0.3153
  178SOPE  H10120284   5.277   1.611   9.224 -1.5525 -2.5868 -2.0224
  178SOPE  C21120285   5.171   1.689   9.048 -0.1486 -0.5657 -0.1063
  178SOPE  H11R20286   5.272   1.708   9.005 -0.1178  1.0991  0.5902
  178SOPE  H11S20287   5.102   1.772   9.020 -1.5592 -1.0727  1.7199
  178SOPE  C21220288   5.134   1.563   8.965  0.1291 -0.2233 -0.0674
  178SOPE  H12R20289   5.030   1.531   8.987 -0.2602  2.2211  2.1486
  178SOPE  H12S20290   5.201   1.482   9.001 -0.7645  0.0754  2.5145
  178SOPE  C21320291   5.138   1.579   8.814  0.0507  0.6338 -0.5646
  178SOPE  H13R20292   5.243   1.612   8.799 -0.1438  1.6588  0.2855
  178SOPE  H13S20293   5.073   1.658   8.773  1.4813  1.3695 -1.4937
  178SOPE  C21420294   5.120   1.447   8.751 -0.3321  0.2491 -0.0691
  178SOPE  H14R20295   5.015   1.412   8.760 -0.3258  0.5440  1.2576
  178SOPE  H14S20296   5.177   1.363   8.795 -1.5667 -1.1286 -0.9751
  178SOPE  C21520297   5.155   1.459   8.600  0.1989 -0.0210  1.1055
  178SOPE  H15R20298   5.251   1.511   8.578 -0.6258  1.9267  1.8185
  178SOPE  H15S20299   5.069   1.514   8.555  1.1795  2.1500  1.7363
  178SOPE  C21620300   5.145   1.326   8.510  0.6099 -0.3129 -0.1087
  178SOPE  H16R20301   5.038   1.293   8.507  0.4964  0.0668 -0.2989
  178SOPE  H16S20302   5.213   1.267   8.575  0.0008  0.8377  1.6450
  178SOPE  C21720303   5.198   1.332   8.366  0.3365 -0.2225 -0.0010
  178SOPE  H17R20304   5.299   1.376   8.357 -0.4896  1.4220 -2.0023
  178SOPE  H17S20305   5.139   1.410   8.314  0.7377 -0.2219 -0.4572
  178SOPE  C21820306   5.197   1.207   8.273  0.5777 -0.3132  0.3880
  178SOPE  H18R20307   5.286   1.140   8.276  0.4219 -0.5292  0.2616
  178SOPE  H18S20308   5.191   1.246   8.169  1.2488  0.2622  0.5594
  178SOPE  H18T20309   5.101   1.151   8.278 -0.2469  0.5806 -2.8990
  178SOPE   C3320310   5.019   2.136   9.776 -0.0701 -1.1227 -0.7687
  178SOPE   H3X20311   5.080   2.055   9.731 -0.5118 -1.3555 -0.9578
  178SOPE   H3Y20312   5.082   2.186   9.852 -2.1921  0.2234  0.1994
  178SOPE   C3420313   4.977   2.260   9.691  0.4932  0.3286  0.2078
  178SOPE   H4X20314   4.918   2.325   9.758 -2.4853 -0.8051 -1.1203
  178SOPE   H4Y20315   4.914   2.235   9.603  2.0413  0.1283 -0.8735
  178SOPE   C3520316   5.097   2.327   9.636 -1.0901  0.1973 -0.2682
  178SOPE   H5X20317   5.128   2.284   9.539 -0.4365  0.7953 -0.3276
  178SOPE   H5Y20318   5.177   2.336   9.712  0.3489  0.8480 -1.8060
  178SOPE   C3620319   5.083   2.473   9.599  0.3414 -0.2381 -0.1033
  178SOPE   H6X20320   5.041   2.514   9.694 -1.6157  0.1667 -1.0942
  178SOPE   H6Y20321   5.001   2.490   9.526 -1.2197  0.3756  1.6884
  178SOPE   C3720322   5.208   2.540   9.551 -0.0609 -0.6932 -0.1555
  178SOPE   H7X20323   5.277   2.566   9.634  1.0160 -0.3279 -1.1308
  178SOPE   H7Y20324   5.190   2.641   9.508  0.2417  0.3312  2.0013
  178SOPE   C3820325   5.275   2.460   9.441 -0.0472 -0.4974  0.7639
  178SOPE   H8X20326   5.204   2.418   9.367  0.4282  1.6537 -1.0225
  178SOPE   H8Y20327   5.316   2.366   9.487 -1.1078 -1.3380  0.0399
  178SOPE   C3920328   5.378   2.533   9.354 -0.0030 -0.4311  0.3487
  178SOPE   H9X20329   5.428   2.466   9.280  1.0164  0.7389 -0.0579
  178SOPE   H9Y20330   5.455   2.575   9.422  3.1439 -1.6634 -2.1950
  178SOPE  C31020331   5.319   2.647   9.266 -0.4727  0.4159 -0.2482
  178SOPE  H10X20332   5.254   2.711   9.329 -0.6142 -0.8975  0.9616
  178SOPE  H10Y20333   5.252   2.596   9.194  0.5952 -0.8419 -0.3908
  178SOPE  C31120334   5.414   2.733   9.191 -0.0682 -0.1882 -0.0632
  178SOPE  H11X20335   5.442   2.674   9.101 -0.5992  0.2396 -0.5130
  178SOPE  H11Y20336   5.508   2.756   9.245  1.0420 -1.7874 -1.2183
  178SOPE  C31220337   5.348   2.864   9.135 -0.3850 -0.3062  0.0765
  178SOPE  H12X20338   5.287   2.920   9.208  2.4383  1.9364  0.9075
  178SOPE  H12Y20339   5.262   2.841   9.069  1.6462 -1.0013 -2.5277
  178SOPE  C31320340   5.452   2.957   9.073  0.6244 -0.4407  1.5295
  178SOPE  H13X20341   5.534   2.974   9.145  1.1559  0.7164  0.6911
  178SOPE  H13Y20342   5.415   3.061   9.062  4.2582  0.8813  0.2202
  178SOPE  C31420343   5.502   2.910   8.932 -0.1753  0.4309  0.4834
  178SOPE  H14X20344   5.409   2.881   8.878  1.5640 -3.1110 -0.9023
  178SOPE  H14Y20345   5.559   2.815   8.938 -1.1021 -0.2237 -0.5733
  178SOPE  C31520346   5.593   3.005   8.857 -0.5044 -0.1199 -0.2091
  178SOPE  H15X20347   5.691   3.014   8.911  0.7879 -2.3241 -2.0145
  178SOPE  H15Y20348   5.543   3.104   8.857 -0.7359 -0.2364  0.0619
  178SOPE  C31620349   5.638   2.953   8.719 -0.8204 -0.3276  0.3213
  178SOPE  H16X20350   5.698   3.039   8.682 -1.4667  0.4908  1.1188
  178SOPE  H16Y20351   5.547   2.935   8.659 -2.4309  0.6394  2.3610
  178SOPE  C31720352   5.719   2.827   8.719 -0.1265 -0.7128 -0.0084
  178SOPE  H17X20353   5.666   2.741   8.766  0.4054  0.5153  3.0928
  178SOPE  H17Y20354   5.804   2.856   8.783 -0.8719  1.6858 -0.0125
  178SOPE  C31820355   5.771   2.788   8.580  0.2628 -0.2290 -0.6293
  178SOPE  H18X20356   5.695   2.734   8.519  1.4356 -3.3504  0.4692
  178SOPE  H18Y20357   5.858   2.721   8.595  1.0032  1.1582  1.7387
  178SOPE  H18Z20358   5.790   2.881   8.523 -1.6676  1.7366  1.7512
  179SOPE     N20359   6.436   1.529   6.467  0.7853  0.0133 -0.2160
  179SOPE   HN120360   6.356   1.560   6.409 -0.8696 -3.1427  0.1307
  179SOPE   HN220361   6.477   1.622   6.487 -1.1231  1.0647 -0.9219
  179SOPE   HN320362   6.487   1.466   6.402  0.3160 -0.3816 -0.2075
  179SOPE   C1220363   6.387   1.461   6.594  0.1268  0.3873  0.0120
  179SOPE  H12A20364   6.476   1.437   6.656  1.1258  1.0480 -1.1097
  179SOPE  H12B20365   6.341   1.363   6.570  2.1743 -0.2305 -1.6977
  179SOPE   C1120366   6.279   1.557   6.666 -0.3785  0.4365  0.1813
  179SOPE  H11A20367   6.329   1.652   6.693 -2.1177  2.1153 -2.1441
  179SOPE  H11B20368   6.234   1.501   6.751 -3.2276 -0.3107 -1.6992
  179SOPE     P20369   6.039   1.500   6.559 -0.0786  0.3059  0.6758
  179SOPE   O1320370   6.079   1.368   6.507 -0.1523 -0.2885  0.2826
  179SOPE   O1420371   5.958   1.578   6.471 -0.2855  0.5121  0.6268
  179SOPE   O1220372   6.172   1.587   6.580 -0.0440  0.3350  0.2644
  179SOPE   O1120373   5.975   1.481   6.703 -0.5097 -0.3170  0.0916
  179SOPE    C120374   5.903   1.587   6.758  0.0587 -0.0063  0.5150
  179SOPE    HA20375   5.866   1.540   6.851 -0.2848 -0.7894 -0.0110
  179SOPE    HB20376   5.812   1.602   6.696  1.2403  2.4755 -0.7536
  179SOPE    C220377   5.987   1.703   6.812  0.1148 -0.0068  0.1555
  179SOPE    HS20378   6.048   1.734   6.724 -1.0245  0.6697 -0.4228
  179SOPE   O2120379   6.069   1.658   6.916  0.3248 -0.0209 -0.4235
  179SOPE   C2120380   6.160   1.731   6.973  0.1620 -0.1387  0.1186
  179SOPE   O2220381   6.196   1.837   6.930 -0.3057  0.0857  0.2243
  179SOPE   C2220382   6.187   1.666   7.112 -0.6444 -0.2454  0.5283
  179SOPE   H2R20383   6.282   1.609   7.104 -0.6027 -0.0291 -0.8355
  179SOPE   H2S20384   6.107   1.591   7.131  2.4494 -3.4948  1.9310
  179SOPE    C320385   5.895   1.815   6.871  0.2535 -0.4057  0.1484
  179SOPE    HX20386   5.832   1.855   6.789  0.3398 -0.9285 -0.1813
  179SOPE    HY20387   5.965   1.896   6.900 -0.4408  0.2060  0.1594
  179SOPE   O3120388   5.797   1.768   6.967  0.6176  0.0636 -0.0350
  179SOPE   C3120389   5.801   1.833   7.084  0.9170  0.1822 -0.7067
  179SOPE   O3220390   5.865   1.930   7.106 -0.1463  0.1960  0.1728
  179SOPE   C3220391   5.701   1.772   7.184  0.8749 -0.5949  0.7105
  179SOPE   H2X20392   5.736   1.667   7.187  1.4448 -0.3782  2.2830
  179SOPE   H2Y20393   5.599   1.775   7.141  0.4266 -3.7943  1.3045
  179SOPE   C2320394   6.182   1.769   7.227 -0.1074 -0.3516 -1.0771
  179SOPE   H3R20395   6.084   1.821   7.221  1.4297  2.9202 -0.0441
  179SOPE   H3S20396   6.262   1.846   7.216 -0.9621  0.5412 -1.2002
  179SOPE   C2420397   6.215   1.685   7.350 -0.1412 -0.0515 -0.2750
  179SOPE   H4R20398   6.133   1.611   7.362 -0.6410  0.6931  1.0339
  179SOPE   H4S20399   6.311   1.630   7.342  0.3009  0.7422 -0.5037
  179SOPE   C2520400   6.214   1.775   7.477 -0.0657  0.0613 -0.2334
  179SOPE   H5R20401   6.296   1.846   7.456  0.6588 -0.4132  0.9007
  179SOPE   H5S20402   6.116   1.828   7.482 -0.4261 -0.6466  0.4483
  179SOPE   C2620403   6.239   1.699   7.606 -0.5116 -0.1294  0.3404
  179SOPE   H6R20404   6.175   1.609   7.622 -3.0235  1.0850 -2.0467
  179SOPE   H6S20405   6.343   1.662   7.602 -0.2494  0.5514  0.7570
  179SOPE   C2720406   6.228   1.788   7.730  1.2215 -0.3036 -0.6512
  179SOPE   H7R20407   6.259   1.891   7.703  2.7713 -1.0794 -1.9927
  179SOPE   H7S20408   6.119   1.804   7.743  0.9290 -0.7541 -2.3091
  179SOPE   C2820409   6.295   1.731   7.862  0.2172 -0.9616  0.1357
  179SOPE   H8R20410   6.262   1.798   7.945 -1.3585  0.0971 -1.2914
  179SOPE   H8S20411   6.243   1.634   7.874  1.9794 -2.0852 -0.7985
  179SOPE   C2920412   6.445   1.708   7.866 -0.5208 -1.0002 -0.7972
  179SOPE   H9120413   6.505   1.687   7.776  1.0465 -2.8363  0.5931
  179SOPE  C21020414   6.527   1.758   7.963  0.6525  1.1529  0.3463
  179SOPE  H10120415   6.634   1.732   7.963 -0.0173 -2.0288  0.3415
  179SOPE  C21120416   6.486   1.837   8.091 -0.2617 -0.3521  0.1200
  179SOPE  H11R20417   6.422   1.920   8.053  0.8112 -0.6778 -2.6116
  179SOPE  H11S20418   6.578   1.875   8.139  0.5177  0.1472 -1.7018
  179SOPE  C21220419   6.400   1.749   8.190  0.1906  0.0737 -0.0103
  179SOPE  H12R20420   6.478   1.687   8.239  1.5288  1.9130  0.2841
  179SOPE  H12S20421   6.322   1.690   8.137  1.8173  0.5446 -3.1599
  179SOPE  C21320422   6.319   1.840   8.295 -0.8211 -0.6914  0.3790
  179SOPE  H13R20423   6.250   1.907   8.240  0.7713  0.0804 -0.7291
  179SOPE  H13S20424   6.389   1.906   8.350 -0.3768 -0.2980 -0.6420
  179SOPE  C21420425   6.245   1.758   8.402  0.4107 -0.2201  0.6440
  179SOPE  H14R20426   6.316   1.693   8.457  0.8110 -1.0116 -0.7608
  179SOPE  H14S20427   6.171   1.687   8.358  0.1340  0.1037  0.5767
  179SOPE  C21520428   6.164   1.847   8.505 -0.0581 -0.1952 -0.6045
  179SOPE  H15R20429   6.078   1.900   8.460 -1.6108 -0.3602  1.9807
  179SOPE  H15S20430   6.232   1.926   8.546  0.5324 -1.5758  1.1896
  179SOPE  C21620431   6.117   1.769   8.631 -0.1230 -0.3100  0.6291
  179SOPE  H16R20432   6.205   1.718   8.675  0.3510  0.8946  1.1141
  179SOPE  H16S20433   6.045   1.690   8.599  0.2157 -0.7568  0.9647
  179SOPE  C21720434   6.082   1.864   8.742 -0.4020  0.7388 -0.0306
  179SOPE  H17R20435   5.982   1.912   8.735 -0.2021  1.7213  2.6037
  179SOPE  H17S20436   6.149   1.950   8.765  0.8175 -0.3166  0.5125
  179SOPE  C21820437   6.085   1.786   8.879  0.3121 -0.3832 -0.3085
  179SOPE  H18R20438   6.187   1.796   8.923 -0.6864  0.7152  1.9004
  179SOPE  H18S20439   6.044   1.685   8.859  0.1190 -0.6663  1.3768
  179SOPE  H18T20440   6.018   1.833   8.954 -1.0204 -2.1968 -0.3163
  179SOPE   C3320441   5.706   1.844   7.322  0.2497  0.5479 -0.0261
  179SOPE   H3X20442   5.611   1.820   7.374 -0.2086 -0.8972 -1.4609
  179SOPE   H3Y20443   5.705   1.955   7.310  1.2721  0.5040 -0.5297
  179SOPE   C3420444   5.829   1.795   7.393  0.2524 -0.0694  0.1219
  179SOPE   H4X20445   5.916   1.862   7.378 -0.3376  0.8235  0.5335
  179SOPE   H4Y20446   5.857   1.696   7.352  0.5309  0.0136  0.1127
  179SOPE   C3520447   5.814   1.775   7.544  0.0329  0.5320  0.1101
  179SOPE   H5X20448   5.894   1.704   7.571 -0.2528  0.3239  0.4100
  179SOPE   H5Y20449   5.716   1.726   7.558  0.1028 -0.6454 -2.8027
  179SOPE   C3620450   5.834   1.895   7.640  0.3980  0.5607  0.1627
  179SOPE   H6X20451   5.757   1.973   7.619  0.6706  0.4774 -1.2463
  179SOPE   H6Y20452   5.933   1.939   7.616  0.9637 -0.1126  1.1607
  179SOPE   C3720453   5.835   1.860   7.791  0.0111  0.2939  0.1172
  179SOPE   H7X20454   5.909   1.779   7.807 -0.0425  0.1731 -0.2356
  179SOPE   H7Y20455   5.739   1.819   7.830  1.4158 -1.4399  2.0044
  179SOPE   C3820456   5.879   1.972   7.891  0.6627 -0.3857 -0.7571
  179SOPE   H8X20457   5.806   2.050   7.859 -1.9266 -2.8685 -1.2833
  179SOPE   H8Y20458   5.983   2.002   7.864  1.7886 -2.7036  0.6985
  179SOPE   C3920459   5.860   1.931   8.036 -0.0174 -0.1931 -0.7804
  179SOPE   H9X20460   5.932   1.852   8.066  0.4864  0.1918 -0.9640
  179SOPE   H9Y20461   5.756   1.892   8.029  0.4509 -1.7408  0.4700
  179SOPE  C31020462   5.872   2.057   8.134  1.0274 -0.7610  0.6293
  179SOPE  H10X20463   5.793   2.126   8.097  0.0814 -1.6025  1.0494
  179SOPE  H10Y20464   5.972   2.104   8.120  0.2827 -0.1652 -4.7943
  179SOPE  C31120465   5.843   2.027   8.281 -0.2508  0.2217 -0.2223
  179SOPE  H11X20466   5.923   1.952   8.301 -0.9534 -1.3214 -2.7410
  179SOPE  H11Y20467   5.743   1.981   8.292 -0.5367  0.6861 -0.8402
  179SOPE  C31220468   5.844   2.142   8.381  0.3967 -0.9039  0.1930
  179SOPE  H12X20469   5.786   2.229   8.344  0.4303 -1.6591 -1.7955
  179SOPE  H12Y20470   5.948   2.183   8.379  0.2411 -0.4175  1.2942
  179SOPE  C31320471   5.817   2.114   8.533  0.4055 -0.0754  1.2111
  179SOPE  H13X20472   5.863   2.197   8.590 -1.2101  0.8068  1.3027
  179SOPE  H13Y20473   5.853   2.015   8.568 -1.0203 -1.0034  0.1720
  179SOPE  C31420474   5.668   2.125   8.578  0.6141  0.0083  0.6334
  179SOPE  H14X20475   5.640   2.232   8.572  0.8536  0.0150 -3.0243
  179SOPE  H14Y20476   5.655   2.089   8.682  2.3422 -0.7252  0.6229
  179SOPE  C31520477   5.558   2.046   8.502  1.1128 -0.4712  0.5989
  179SOPE  H15X20478   5.601   1.944   8.509 -0.4537 -1.1030  1.7713
  179SOPE  H15Y20479   5.559   2.078   8.396  1.2339 -1.3542  0.3225
  179SOPE  C31620480   5.416   2.062   8.566 -0.5855 -0.5424  0.5843
  179SOPE  H16X20481   5.383   2.168   8.556  1.1698 -0.1371 -1.9021
  179SOPE  H16Y20482   5.426   2.037   8.674 -0.7450 -1.9160  0.2881
  179SOPE  C31720483   5.297   1.977   8.508  0.5701 -0.5092  0.0483
  179SOPE  H17X20484   5.330   1.874   8.483 -0.8007 -1.0838  0.5059
  179SOPE  H17Y20485   5.252   2.030   8.422 -0.5155  0.0448  0.9334
  179SOPE  C31820486   5.180   1.970   8.617 -0.2248  0.1386  0.1607
  179SOPE  H18X20487   5.100   1.900   8.587 -0.5065  0.3583  0.3922
  179SOPE  H18Y20488   5.144   2.075   8.622  1.2565  0.7841 -1.6773
  179SOPE  H18Z20489   5.217   1.943   8.718  0.9935  0.6417 -0.1337
  180SOPE     N20490   3.208   0.217   6.143  0.0155  0.2255  0.3769
  180SOPE   HN120491   3.129   0.262   6.094 -1.7616 -0.9024  2.0826
  180SOPE   HN220492   3.283   0.198   6.073 -0.8860  2.6122 -1.3832
  180SOPE   HN320493   3.171   0.134   6.194  0.5259 -0.7064 -0.7131
  180SOPE   C1220494   3.271   0.304   6.247  0.4559  0.1823 -0.3826
  180SOPE  H12A20495   3.188   0.358   6.297  1.7449  2.4599 -0.5678
  180SOPE  H12B20496   3.342   0.370   6.193 -0.9976  2.9246  0.8791
  180SOPE   C1120497   3.348   0.216   6.352 -0.0417 -0.2014  0.3752
  180SOPE  H11A20498   3.278   0.149   6.406 -0.8809 -2.0820 -2.7881
  180SOPE  H11B20499   3.413   0.274   6.422  2.5545 -2.1268 -0.2864
  180SOPE     P20500   3.567   0.061   6.312 -0.0862  0.1077  0.1873
  180SOPE   O1320501   3.669   0.154   6.249  0.5766 -0.6715  0.1639
  180SOPE   O1420502   3.574  -0.080   6.275 -0.2571  0.1040 -0.4131
  180SOPE   O1220503   3.423   0.124   6.276 -0.0559  0.1994 -0.5125
  180SOPE   O1120504   3.586   0.071   6.470 -0.3526 -0.2584  0.0395
  180SOPE    C120505   3.708   0.120   6.533  0.1306 -0.7268 -0.4365
  180SOPE    HA20506   3.747   0.212   6.485  1.9788 -0.8640  0.7078
  180SOPE    HB20507   3.794   0.050   6.523  1.5421  0.8250  0.3440
  180SOPE    C220508   3.688   0.158   6.683 -0.0997 -0.4877  0.1304
  180SOPE    HS20509   3.786   0.201   6.713  1.4987 -2.2567 -2.1305
  180SOPE   O2120510   3.659   0.041   6.761  0.4572  0.0308 -0.2347
  180SOPE   C2120511   3.762  -0.036   6.788  0.9610  0.7552 -0.3472
  180SOPE   O2220512   3.878  -0.008   6.763 -0.0587  0.0073 -0.1826
  180SOPE   C2220513   3.709  -0.149   6.867 -0.0000  0.6090  0.0367
  180SOPE   H2R20514   3.655  -0.224   6.806  3.7269 -2.1596 -0.2516
  180SOPE   H2S20515   3.635  -0.102   6.935  1.0425  1.3816  0.6789
  180SOPE    C320516   3.575   0.257   6.703  0.7630 -0.0709 -0.4006
  180SOPE    HX20517   3.486   0.191   6.697  1.4379 -0.9934 -0.4297
  180SOPE    HY20518   3.574   0.322   6.613 -2.7084 -0.2676 -0.6347
  180SOPE   O3120519   3.580   0.317   6.835 -0.2204 -0.5034 -0.5240
  180SOPE   C3120520   3.632   0.439   6.854 -0.1444  0.5517 -0.1425
  180SOPE   O3220521   3.700   0.495   6.773 -0.0058  0.2875 -0.2888
  180SOPE   C3220522   3.573   0.493   6.988  0.4714 -0.0996  0.2717
  180SOPE   H2X20523   3.463   0.478   6.979  0.6024 -0.3855 -1.0174
  180SOPE   H2Y20524   3.600   0.599   7.010  2.4340 -0.5188  0.0738
  180SOPE   C2320525   3.817  -0.232   6.945  0.6245  0.6989 -0.2828
  180SOPE   H3R20526   3.848  -0.181   7.039 -0.5929  0.4612  0.2674
  180SOPE   H3S20527   3.912  -0.243   6.888  0.4047 -1.0795 -0.3561
  180SOPE   C2420528   3.757  -0.371   6.976  0.2935 -0.6135  0.3884
  180SOPE   H4R20529   3.721  -0.425   6.885 -2.5625  0.2415  0.9256
  180SOPE   H4S20530   3.829  -0.434   7.033  0.7770 -0.9105 -0.5238
  180SOPE   C2520531   3.626  -0.345   7.054 -0.0024 -0.2299 -0.1902
  180SOPE   H5R20532   3.554  -0.284   6.995  1.0518  2.2863  0.9892
  180SOPE   H5S20533   3.586  -0.447   7.076 -1.1783  0.7854  2.8684
  180SOPE   C2620534   3.638  -0.290   7.195  0.6325  0.2915  0.6685
  180SOPE   H6R20535   3.665  -0.185   7.174 -2.4611  1.1570  0.4967
  180SOPE   H6S20536   3.534  -0.286   7.234  0.3548  1.5159 -0.1450
  180SOPE   C2720537   3.733  -0.351   7.300  0.2142  0.0832 -0.0212
  180SOPE   H7R20538   3.708  -0.458   7.308  3.0856 -0.7668 -1.0873
  180SOPE   H7S20539   3.835  -0.353   7.255 -0.5860 -4.0187 -2.0268
  180SOPE   C2820540   3.731  -0.284   7.442 -0.5278  0.2286  0.4319
  180SOPE   H8R20541   3.745  -0.175   7.426  0.1228 -0.1421 -1.8159
  180SOPE   H8S20542   3.630  -0.282   7.488 -0.2974  1.2738  0.9386
  180SOPE   C2920543   3.835  -0.320   7.536  0.0988 -0.3073 -0.1265
  180SOPE   H9120544   3.934  -0.321   7.490 -0.7012  1.0443 -1.9757
  180SOPE  C21020545   3.823  -0.378   7.657 -0.2045 -0.3556 -0.2616
  180SOPE  H10120546   3.913  -0.402   7.715 -1.0562 -1.1022  0.8000
  180SOPE  C21120547   3.698  -0.426   7.735 -0.6266 -0.2006  0.3309
  180SOPE  H11R20548   3.720  -0.502   7.813 -1.0085 -0.2133  0.4308
  180SOPE  H11S20549   3.627  -0.478   7.666 -1.6053  0.5065  0.7705
  180SOPE  C21220550   3.617  -0.297   7.799 -0.0561 -0.1955 -0.0375
  180SOPE  H12R20551   3.522  -0.330   7.848  0.4600 -1.5951  0.0678
  180SOPE  H12S20552   3.597  -0.237   7.708  0.1954  0.1123  0.1135
  180SOPE  C21320553   3.693  -0.237   7.910 -0.7143 -1.2071  0.2606
  180SOPE  H13R20554   3.644  -0.141   7.938  2.7220  1.5292 -2.1704
  180SOPE  H13S20555   3.792  -0.208   7.869 -1.1561 -2.2538 -1.6964
  180SOPE  C21420556   3.718  -0.325   8.034 -0.3178 -0.5825 -0.2850
  180SOPE  H14R20557   3.785  -0.281   8.111 -1.9696  0.8308  0.3961
  180SOPE  H14S20558   3.769  -0.419   8.003 -0.0795 -0.6052  0.1714
  180SOPE  C21520559   3.591  -0.345   8.118  0.2359  0.0480 -0.0340
  180SOPE  H15R20560   3.500  -0.390   8.072 -1.0004  0.9983  1.4036
  180SOPE  H15S20561   3.557  -0.250   8.163 -1.7137  0.3080 -1.9010
  180SOPE  C21620562   3.618  -0.429   8.243  0.1218  0.1655  0.8381
  180SOPE  H16R20563   3.646  -0.529   8.204  0.6734 -0.1749  2.0312
  180SOPE  H16S20564   3.517  -0.440   8.290 -0.5448  1.7361 -0.1582
  180SOPE  C21720565   3.705  -0.359   8.345  0.7541 -0.2255  0.3050
  180SOPE  H17R20566   3.638  -0.277   8.380 -1.0242 -1.5422  0.1269
  180SOPE  H17S20567   3.800  -0.331   8.295  0.5275  0.6536  0.3464
  180SOPE  C21820568   3.723  -0.454   8.460  0.5922  0.0495 -0.4372
  180SOPE  H18R20569   3.630  -0.500   8.500 -1.0187  1.8903 -1.8531
  180SOPE  H18S20570   3.745  -0.393   8.550 -1.8696  2.0313 -1.0703
  180SOPE  H18T20571   3.796  -0.535   8.437  1.8093  1.0622 -0.2056
  180SOPE   C3320572   3.611   0.406   7.107 -0.0881 -0.3793  0.0325
  180SOPE   H3X20573   3.721   0.397   7.096  0.2610  2.2907  0.5875
  180SOPE   H3Y20574   3.554   0.314   7.083 -1.4687  1.1093 -2.8492
  180SOPE   C3420575   3.578   0.484   7.235  0.2942  0.5282 -0.4869
  180SOPE   H4X20576   3.511   0.419   7.295 -2.1041  1.9083 -1.5489
  180SOPE   H4Y20577   3.516   0.575   7.227  0.9468  1.0913  0.6381
  180SOPE   C3520578   3.706   0.507   7.315 -0.7180 -0.5572  0.1403
  180SOPE   H5X20579   3.761   0.596   7.277 -3.2706  0.3682 -1.6502
  180SOPE   H5Y20580   3.761   0.410   7.321  0.2113 -0.0841 -0.3947
  180SOPE   C3620581   3.669   0.540   7.463  0.6229 -0.4765 -0.8929
  180SOPE   H6X20582   3.616   0.448   7.494 -0.4520  0.5961  0.5854
  180SOPE   H6Y20583   3.595   0.622   7.471  1.8610  0.7382 -1.4148
  180SOPE   C3720584   3.794   0.559   7.541  0.2213  0.6365 -0.3847
  180SOPE   H7X20585   3.868   0.600   7.469 -1.4736  1.5791 -1.6841
  180SOPE   H7Y20586   3.821   0.457   7.574 -1.8628  0.3570  0.5977
  180SOPE   C3820587   3.766   0.646   7.662 -0.5815 -1.3363 -0.4723
  180SOPE   H8X20588   3.737   0.747   7.624  3.4561  0.6722  1.2793
  180SOPE   H8Y20589   3.866   0.666   7.705 -0.5754  2.0835 -1.7115
  180SOPE   C3920590   3.662   0.602   7.756 -0.2170  0.3859 -0.1269
  180SOPE   H9X20591   3.688   0.500   7.789 -1.3764  0.8862  2.6636
  180SOPE   H9Y20592   3.568   0.589   7.697 -0.0804 -0.3665 -0.1899
  180SOPE  C31020593   3.636   0.692   7.877 -0.4314  0.7686 -0.3428
  180SOPE  H10X20594   3.611   0.795   7.843 -2.2816  0.3757 -0.2527
  180SOPE  H10Y20595   3.735   0.709   7.925  0.1859  2.3089 -2.0051
  180SOPE  C31120596   3.536   0.626   7.967 -1.0786  0.2958 -0.0443
  180SOPE  H11X20597   3.573   0.524   7.993  0.6595  0.9513  0.2034
  180SOPE  H11Y20598   3.446   0.610   7.903  0.4779 -1.1962 -2.0069
  180SOPE  C31220599   3.507   0.702   8.096  0.1568  0.2327  0.2632
  180SOPE  H12X20600   3.499   0.810   8.073 -1.3590 -0.0532 -0.7234
  180SOPE  H12Y20601   3.588   0.679   8.168 -0.3935 -3.3733 -0.0367
  180SOPE  C31320602   3.377   0.640   8.166 -0.9601 -0.0380 -0.0022
  180SOPE  H13X20603   3.386   0.529   8.164 -3.4532 -0.2879 -0.7224
  180SOPE  H13Y20604   3.290   0.667   8.103  0.4695 -0.7647 -2.3990
  180SOPE  C31420605   3.363   0.697   8.308  0.7569  0.2630  0.1978
  180SOPE  H14X20606   3.335   0.803   8.288  2.3675  0.4755 -1.1062
  180SOPE  H14Y20607   3.465   0.687   8.351  1.0668  0.0473 -0.5782
  180SOPE  C31520608   3.252   0.632   8.383 -0.5540 -0.2877 -0.0744
  180SOPE  H15X20609   3.163   0.632   8.316  1.6283 -0.5781 -3.1871
  180SOPE  H15Y20610   3.228   0.693   8.472 -2.3014 -2.6124  1.1867
  180SOPE  C31620611   3.293   0.497   8.433  0.4223 -0.2154 -0.3306
  180SOPE  H16X20612   3.375   0.508   8.507 -1.4920  1.9393  1.6262
  180SOPE  H16Y20613   3.330   0.440   8.345  1.7141  1.2742 -0.8083
  180SOPE  C31720614   3.182   0.412   8.501  0.0122  0.1194 -0.3518
  180SOPE  H17X20615   3.105   0.380   8.427  0.4187 -0.3535 -0.5777
  180SOPE  H17Y20616   3.139   0.481   8.576  0.4675  0.2442 -0.2046
  180SOPE  C31820617   3.226   0.297   8.583  0.4309  0.5126  0.3367
  180SOPE  H18X20618   3.263   0.216   8.516  1.0745 -1.1190  2.5434
  180SOPE  H18Y20619   3.157   0.258   8.661  2.0864 -3.0053  0.2415
  180SOPE  H18Z20620   3.312   0.322   8.648  1.6290  0.9427 -1.3546
  181SOPE     N20621   4.175   2.082   5.915 -0.2557 -0.3731  0.3842
  181SOPE   HN120622   4.213   2.035   5.830 -2.2382 -0.9314 -0.2469
  181SOPE   HN220623   4.159   2.010   5.988 -2.5073 -0.2042  0.1413
  181SOPE   HN320624   4.077   2.109   5.893  0.0592  0.2373 -0.3010
  181SOPE   C1220625   4.248   2.203   5.965  0.4532 -0.0783 -0.4557
  181SOPE  H12A20626   4.226   2.294   5.905  2.2371  0.3069 -0.5907
  181SOPE  H12B20627   4.358   2.187   5.956  0.2309 -2.3432  0.1791
  181SOPE   C1120628   4.214   2.238   6.112 -0.0893  0.0693  0.5247
  181SOPE  H11A20629   4.275   2.321   6.152 -1.0085  1.0306 -0.0256
  181SOPE  H11B20630   4.233   2.150   6.178  1.3899 -0.4428 -0.5402
  181SOPE     P20631   4.009   2.400   6.072 -0.2510 -0.4156 -0.5017
  181SOPE   O1320632   3.875   2.373   6.027  0.2614  0.6384 -0.8627
  181SOPE   O1420633   4.102   2.477   5.990 -0.4309  0.5221 -0.3413
  181SOPE   O1220634   4.069   2.265   6.122 -0.6774  0.1823 -0.4780
  181SOPE   O1120635   3.991   2.482   6.209 -0.2187 -0.2967 -0.0463
  181SOPE    C120636   4.039   2.428   6.329  0.1443  0.5642 -0.0433
  181SOPE    HA20637   4.144   2.457   6.354  0.5015 -0.1059 -0.7103
  181SOPE    HB20638   4.043   2.317   6.328 -0.6402  0.5270 -0.8341
  181SOPE    C220639   3.946   2.473   6.447 -0.1117  0.1183  0.2749
  181SOPE    HS20640   3.979   2.402   6.526  0.4219 -0.1825 -0.2054
  181SOPE   O2120641   3.805   2.463   6.413 -0.0047  0.3377  0.3764
  181SOPE   C2120642   3.750   2.359   6.469 -0.0224 -0.1298 -0.6338
  181SOPE   O2220643   3.803   2.252   6.492  0.0395 -0.2396  0.1004
  181SOPE   C2220644   3.602   2.398   6.493 -0.6321  0.0471 -0.2705
  181SOPE   H2R20645   3.545   2.363   6.404 -2.2389  0.9214  0.3822
  181SOPE   H2S20646   3.606   2.508   6.506  3.3200 -0.0495  0.6070
  181SOPE    C320647   3.991   2.617   6.477  1.3657 -0.1291  0.2100
  181SOPE    HX20648   3.978   2.680   6.387 -1.3449 -1.2494 -0.2856
  181SOPE    HY20649   4.096   2.633   6.510  0.4427  3.3258  2.0159
  181SOPE   O3120650   3.894   2.667   6.578  0.0701 -0.1148 -0.9139
  181SOPE   C3120651   3.924   2.794   6.608 -0.5611 -0.0676  0.1166
  181SOPE   O3220652   4.016   2.859   6.557  0.3342  0.0522  0.0170
  181SOPE   C3220653   3.825   2.851   6.712  0.1727  0.4961  0.1796
  181SOPE   H2X20654   3.874   2.807   6.801 -1.1550 -1.5917 -0.0521
  181SOPE   H2Y20655   3.734   2.790   6.694  0.0451  0.3230  1.3346
  181SOPE   C2320656   3.535   2.338   6.614  0.4512 -0.9386 -0.4809
  181SOPE   H3R20657   3.566   2.232   6.621  1.9032 -0.5019  0.1015
  181SOPE   H3S20658   3.426   2.348   6.596  0.5119  0.4109 -0.2043
  181SOPE   C2420659   3.555   2.410   6.750  0.2676 -0.3302  0.1380
  181SOPE   H4R20660   3.548   2.518   6.727 -2.5297 -0.2744  0.8542
  181SOPE   H4S20661   3.463   2.393   6.809 -0.4316  1.3473 -0.4197
  181SOPE   C2520662   3.674   2.383   6.843 -0.5362  0.2145 -0.4611
  181SOPE   H5R20663   3.769   2.419   6.798  0.0164 -0.8700 -0.2128
  181SOPE   H5S20664   3.668   2.439   6.939  0.9489 -1.6346  0.7970
  181SOPE   C2620665   3.691   2.233   6.890  0.6912 -0.0330  0.3907
  181SOPE   H6R20666   3.597   2.219   6.947 -0.6519  2.0013 -1.1623
  181SOPE   H6S20667   3.697   2.171   6.798  0.6133 -0.0922  0.4258
  181SOPE   C2720668   3.810   2.211   6.981 -0.2460  0.4421 -0.0711
  181SOPE   H7R20669   3.907   2.232   6.929  0.1187 -1.2082 -0.1035
  181SOPE   H7S20670   3.788   2.264   7.076 -1.9132 -0.8804  0.3173
  181SOPE   C2820671   3.828   2.052   7.010  0.5187 -0.9108 -0.0792
  181SOPE   H8R20672   3.842   1.995   6.915  2.0531 -0.4275 -0.1805
  181SOPE   H8S20673   3.925   2.055   7.064 -1.2506  0.0412  3.3059
  181SOPE   C2920674   3.717   1.991   7.084 -0.2194 -0.0814 -0.0794
  181SOPE   H9120675   3.636   1.958   7.018  1.4138 -0.0996 -2.1857
  181SOPE  C21020676   3.720   1.964   7.219  0.4895 -0.4052  0.5821
  181SOPE  H10120677   3.634   1.922   7.272  0.2085  0.1317  0.5612
  181SOPE  C21120678   3.828   2.008   7.320  0.3206 -0.3672 -0.5723
  181SOPE  H11R20679   3.915   2.064   7.278  0.0502 -1.5808 -2.9430
  181SOPE  H11S20680   3.884   1.918   7.353 -0.3861 -0.6210 -0.0660
  181SOPE  C21220681   3.768   2.077   7.444 -0.0017  1.0694 -0.0953
  181SOPE  H12R20682   3.690   2.153   7.423  0.0567  1.1068 -0.1757
  181SOPE  H12S20683   3.848   2.128   7.502 -0.6356 -0.1782  2.0146
  181SOPE  C21320684   3.699   1.972   7.538  0.1838 -0.2591 -0.2214
  181SOPE  H13R20685   3.775   1.892   7.548  0.1030 -0.8477 -3.3732
  181SOPE  H13S20686   3.607   1.928   7.495  0.6038 -0.6136 -0.7724
  181SOPE  C21420687   3.661   2.010   7.686 -0.0469 -0.2069  0.5440
  181SOPE  H14R20688   3.749   2.044   7.746  0.8611 -2.4303  0.5746
  181SOPE  H14S20689   3.628   1.918   7.738  0.7796 -0.2924  0.9310
  181SOPE  C21520690   3.541   2.106   7.699 -0.6716  0.2164  0.1943
  181SOPE  H15R20691   3.462   2.077   7.627 -0.9837  0.3076  0.4919
  181SOPE  H15S20692   3.588   2.192   7.646  0.5944 -0.4360  0.2277
  181SOPE  C21620693   3.491   2.137   7.841 -0.0629  0.0175  0.0538
  181SOPE  H16R20694   3.425   2.227   7.842  1.1519  0.9388  1.2798
  181SOPE  H16S20695   3.577   2.158   7.908 -1.8740  3.2701  1.6100
  181SOPE  C21720696   3.417   2.015   7.904  0.4055 -0.1095 -0.1103
  181SOPE  H17R20697   3.389   2.045   8.008  0.1038 -3.4191  0.8642
  181SOPE  H17S20698   3.487   1.933   7.928 -1.3285 -1.7251 -0.3362
  181SOPE  C21820699   3.298   1.959   7.824  0.4569 -0.3209 -0.0125
  181SOPE  H18R20700   3.331   1.915   7.727  1.2349 -0.0893  0.1406
  181SOPE  H18S20701   3.226   2.042   7.806  0.9355  0.0339 -0.3425
  181SOPE  H18T20702   3.249   1.879   7.884 -2.4666  1.0401 -0.4008
  181SOPE   C3320703   3.807   3.000   6.717 -0.5727 -0.1320 -0.2399
  181SOPE   H3X20704   3.764   3.036   6.621 -3.3645 -2.6082 -0.0595
  181SOPE   H3Y20705   3.908   3.043   6.737  0.2784 -2.1133 -0.0757
  181SOPE   C3420706   3.717   3.052   6.832 -0.1168 -0.1996  0.7438
  181SOPE   H4X20707   3.623   2.993   6.822 -0.1715  0.1715 -1.6383
  181SOPE   H4Y20708   3.686   3.159   6.831  3.3210  0.9222 -0.0295
  181SOPE   C3520709   3.779   3.015   6.974 -0.0054  0.2564 -0.5768
  181SOPE   H5X20710   3.880   3.061   6.988  0.3697 -0.7526  0.1540
  181SOPE   H5Y20711   3.799   2.906   6.982  0.7048  0.5152  2.4728
  181SOPE   C3620712   3.686   3.058   7.093 -0.6416 -0.1658 -0.6526
  181SOPE   H6X20713   3.591   3.000   7.093 -1.1042  0.5810 -0.6562
  181SOPE   H6Y20714   3.665   3.166   7.079 -2.3579 -0.4189 -0.1597
  181SOPE   C3720715   3.753   3.042   7.235  0.2806 -0.1298  0.0362
  181SOPE   H7X20716   3.852   3.093   7.240  0.7921 -1.0280 -0.5762
  181SOPE   H7Y20717   3.777   2.936   7.259 -1.2487 -0.4132  0.4391
  181SOPE   C3820718   3.657   3.083   7.345 -0.0714 -0.1420  0.3637
  181SOPE   H8X20719   3.580   3.003   7.341 -0.1216 -0.1838  1.7311
  181SOPE   H8Y20720   3.606   3.181   7.341 -2.5542 -1.3673  0.5465
  181SOPE   C3920721   3.721   3.073   7.489 -0.7338  0.0881  0.0196
  181SOPE   H9X20722   3.794   3.157   7.499  0.1081 -0.7350  1.0269
  181SOPE   H9Y20723   3.777   2.978   7.501 -1.7556 -0.3629  1.4441
  181SOPE  C31020724   3.616   3.082   7.588  0.4121  1.0854 -0.3033
  181SOPE  H10X20725   3.539   3.002   7.584  0.6748  0.7363  1.1385
  181SOPE  H10Y20726   3.560   3.177   7.579 -2.8063 -0.6774 -0.3868
  181SOPE  C31120727   3.666   3.053   7.730 -0.5144  0.6571  0.1709
  181SOPE  H11X20728   3.750   3.121   7.754  1.7947 -1.0874 -2.4051
  181SOPE  H11Y20729   3.705   2.950   7.744 -0.3247  1.0201  2.8632
  181SOPE  C31220730   3.554   3.082   7.836 -0.1079 -0.0947 -0.1330
  181SOPE  H12X20731   3.584   3.053   7.939 -1.0377 -2.4851 -0.4719
  181SOPE  H12Y20732   3.466   3.018   7.814 -1.3295  1.1329  0.9530
  181SOPE  C31320733   3.512   3.231   7.842  0.1512 -0.4801 -0.2230
  181SOPE  H13X20734   3.487   3.272   7.742  0.3953  0.2120 -0.0081
  181SOPE  H13Y20735   3.599   3.292   7.876 -1.2552  0.2894  2.3161
  181SOPE  C31420736   3.401   3.250   7.947  0.4368 -0.5517 -0.3910
  181SOPE  H14X20737   3.437   3.224   8.049  0.1129  0.7674  0.0849
  181SOPE  H14Y20738   3.324   3.172   7.932  0.1675 -0.0242 -2.0057
  181SOPE  C31520739   3.323   3.381   7.943 -0.2533 -0.6351 -0.2396
  181SOPE  H15X20740   3.259   3.390   7.852 -0.2907 -0.1265 -0.1695
  181SOPE  H15Y20741   3.391   3.469   7.937 -3.3169  1.8713 -1.5997
  181SOPE  C31620742   3.224   3.398   8.067  0.0570 -0.6350 -0.2791
  181SOPE  H16X20743   3.208   3.301   8.119 -0.3644  0.4480  1.6772
  181SOPE  H16Y20744   3.129   3.437   8.024  0.3843 -0.7884 -1.1622
  181SOPE  C31720745   3.260   3.502   8.178 -0.1117  0.2060  0.1518
  181SOPE  H17X20746   3.251   3.604   8.137  1.9523  0.0429 -0.8101
  181SOPE  H17Y20747   3.367   3.492   8.207 -0.3067 -0.7073  0.6153
  181SOPE  C31820748   3.170   3.487   8.300 -0.0867 -0.0596  0.3167
  181SOPE  H18X20749   3.211   3.550   8.381 -1.2961  0.1896  0.7532
  181SOPE  H18Y20750   3.172   3.379   8.327  0.3162  0.0596  0.7682
  181SOPE  H18Z20751   3.063   3.515   8.286 -0.2238 -0.8355 -0.2478
  182SOPE     N20752   2.800   5.652   6.019  0.0763 -0.2886  0.2461
  182SOPE   HN120753   2.701   5.677   6.042 -0.4139 -2.1068  0.2632
  182SOPE   HN220754   2.853   5.723   6.074  2.1103 -0.4584 -1.4056
  182SOPE   HN320755   2.827   5.661   5.920  0.5238 -0.2398  0.3714
  182SOPE   C1220756   2.817   5.511   6.073  0.4655 -0.9515 -0.1052
  182SOPE  H12A20757   2.926   5.491   6.078  0.4432 -0.9196  0.6519
  182SOPE  H12B20758   2.785   5.434   5.999  1.1319 -0.8104 -0.5474
  182SOPE   C1120759   2.754   5.486   6.211 -0.0962 -0.0170  0.6391
  182SOPE  H11A20760   2.832   5.535   6.274  0.8484  1.7232 -1.7149
  182SOPE  H11B20761   2.747   5.377   6.231 -0.0813 -0.0175  0.6419
  182SOPE     P20762   2.494   5.481   6.227 -0.3609 -0.2301  0.1632
  182SOPE   O1320763   2.486   5.368   6.132 -0.6785  0.1402 -0.1314
  182SOPE   O1420764   2.394   5.589   6.216  0.3720  0.4296  0.0846
  182SOPE   O1220765   2.632   5.554   6.221  0.7123  0.3497  0.0970
  182SOPE   O1120766   2.483   5.417   6.365 -0.0176 -0.2301 -0.4016
  182SOPE    C120767   2.423   5.292   6.385  0.2948  0.2683 -1.0536
  182SOPE    HA20768   2.439   5.258   6.489 -0.8940  0.6925 -0.7114
  182SOPE    HB20769   2.471   5.214   6.323  0.5180 -0.9803  0.6158
  182SOPE    C220770   2.272   5.283   6.367  0.7936  0.3273 -0.0160
  182SOPE    HS20771   2.246   5.314   6.264 -0.8043 -1.5381 -0.2332
  182SOPE   O2120772   2.211   5.360   6.469 -0.5003 -0.5835  0.0386
  182SOPE   C2120773   2.085   5.400   6.449  0.7197 -0.1108  0.0873
  182SOPE   O2220774   2.021   5.384   6.346 -0.1736 -0.6018 -0.4505
  182SOPE   C2220775   2.037   5.490   6.562  0.2936  0.0823 -0.2717
  182SOPE   H2R20776   1.938   5.534   6.538 -0.8131 -2.5463 -0.8293
  182SOPE   H2S20777   2.109   5.575   6.564  1.9135 -1.2221 -1.0393
  182SOPE    C320778   2.224   5.135   6.379  0.3428  0.8393  0.2005
  182SOPE    HX20779   2.270   5.080   6.294 -0.1705  3.4599 -1.9249
  182SOPE    HY20780   2.116   5.118   6.358  0.2082 -1.1144  2.1325
  182SOPE   O3120781   2.248   5.083   6.511  0.2023  0.0024  0.5309
  182SOPE   C3120782   2.143   5.077   6.597 -0.0973 -0.8018 -0.6355
  182SOPE   O3220783   2.032   5.113   6.563  0.0586 -0.7223 -0.1567
  182SOPE   C3220784   2.178   5.010   6.724  0.6538  0.1785 -0.1840
  182SOPE   H2X20785   2.283   5.038   6.746 -0.2681  1.5191  3.2896
  182SOPE   H2Y20786   2.175   4.899   6.721  1.3521  0.1673 -0.7540
  182SOPE   C2320787   2.041   5.417   6.702  0.5172 -0.4935  0.0234
  182SOPE   H3R20788   2.139   5.367   6.716  1.2097  0.5544 -0.9400
  182SOPE   H3S20789   1.964   5.337   6.698 -1.0324  0.9428 -0.2686
  182SOPE   C2420790   1.999   5.499   6.819  0.2914  0.5961  0.2075
  182SOPE   H4R20791   2.031   5.605   6.810  1.0247  0.2674 -1.4507
  182SOPE   H4S20792   1.888   5.501   6.818  0.1672 -2.0965  1.5492
  182SOPE   C2520793   2.054   5.437   6.942 -0.2964 -0.5491  0.9295
  182SOPE   H5R20794   2.006   5.339   6.965 -0.7085 -0.2971  1.1469
  182SOPE   H5S20795   2.163   5.421   6.932 -0.4604 -1.2547  0.1155
  182SOPE   C2620796   2.033   5.533   7.061  0.0648 -0.0819  0.7127
  182SOPE   H6R20797   2.083   5.631   7.051 -0.2439 -0.0455 -0.7177
  182SOPE   H6S20798   1.923   5.549   7.068  0.1089  0.6296 -0.1038
  182SOPE   C2720799   2.089   5.480   7.190  0.1236  0.0758 -0.3610
  182SOPE   H7R20800   2.053   5.384   7.232 -1.5525  1.1674  0.8590
  182SOPE   H7S20801   2.195   5.464   7.160  0.8639 -1.4338  2.6737
  182SOPE   C2820802   2.087   5.578   7.313 -0.2839  0.7696  0.4720
  182SOPE   H8R20803   2.174   5.548   7.376 -0.8472  0.9021  1.3321
  182SOPE   H8S20804   2.127   5.677   7.282  2.4742 -0.6592 -0.8765
  182SOPE   C2920805   1.957   5.568   7.390 -0.1699 -0.3918 -0.1336
  182SOPE   H9120806   1.873   5.546   7.323 -0.3884  0.1624 -0.0449
  182SOPE  C21020807   1.940   5.581   7.523 -0.0481 -0.2584  0.3369
  182SOPE  H10120808   1.842   5.575   7.571  1.6266 -1.3973  4.0125
  182SOPE  C21120809   2.037   5.615   7.631 -0.3531  0.0026  0.6093
  182SOPE  H11R20810   2.087   5.712   7.609 -1.4247  0.4522  0.0939
  182SOPE  H11S20811   2.114   5.535   7.630 -0.4341 -0.0956  1.4966
  182SOPE  C21220812   1.964   5.619   7.764 -0.0371  0.0554  0.2084
  182SOPE  H12R20813   1.929   5.516   7.787 -0.2134 -0.1649 -1.0081
  182SOPE  H12S20814   1.880   5.691   7.750 -0.4118 -0.2476  0.8230
  182SOPE  C21320815   2.050   5.675   7.872 -0.1755 -0.1417  0.0707
  182SOPE  H13R20816   2.075   5.776   7.831 -0.5254  0.1017  0.4521
  182SOPE  H13S20817   2.144   5.622   7.896 -0.8481 -1.3306  0.1284
  182SOPE  C21420818   1.974   5.675   8.006  0.0432  0.3796  0.7380
  182SOPE  H14R20819   1.954   5.572   8.041  3.3304 -1.1466 -1.4544
  182SOPE  H14S20820   1.874   5.724   7.999 -0.2496 -0.3493 -0.3488
  182SOPE  C21520821   2.049   5.742   8.126 -0.0558 -0.4120 -0.1912
  182SOPE  H15R20822   1.990   5.725   8.218  2.5646  0.6217  1.8082
  182SOPE  H15S20823   2.051   5.851   8.108  0.6986 -0.5450 -0.9963
  182SOPE  C21620824   2.194   5.688   8.144 -0.0189  0.7941  0.1175
  182SOPE  H16R20825   2.245   5.696   8.045 -0.9187  0.1450 -0.4169
  182SOPE  H16S20826   2.193   5.579   8.165  0.4583  0.9003  0.7065
  182SOPE  C21720827   2.278   5.755   8.257  0.3395 -0.5123  0.3981
  182SOPE  H17R20828   2.231   5.752   8.358  1.2284 -0.7088  0.8098
  182SOPE  H17S20829   2.289   5.858   8.216  0.5652 -0.6663  0.0693
  182SOPE  C21820830   2.419   5.696   8.283  0.7790 -0.0677 -0.4202
  182SOPE  H18R20831   2.487   5.773   8.328  0.7398  0.8202 -1.8315
  182SOPE  H18S20832   2.472   5.664   8.192  0.6290 -2.6271  0.3226
  182SOPE  H18T20833   2.411   5.608   8.350  0.1504  0.5565  0.3526
  182SOPE   C3320834   2.095   5.061   6.850 -1.3004 -0.4306 -0.0457
  182SOPE   H3X20835   1.993   5.020   6.839 -1.4264 -0.6129  1.5330
  182SOPE   H3Y20836   2.087   5.172   6.848  2.1461  0.0706  2.9062
  182SOPE   C3420837   2.162   5.018   6.978 -0.0646 -0.4059  0.1686
  182SOPE   H4X20838   2.264   5.061   6.973  0.8118 -2.3181  0.7066
  182SOPE   H4Y20839   2.183   4.910   6.964 -1.3159 -0.5271 -0.9542
  182SOPE   C3520840   2.083   5.066   7.106  0.1975  0.3619 -0.4526
  182SOPE   H5X20841   2.002   4.993   7.123  0.7035 -0.9139 -3.0759
  182SOPE   H5Y20842   2.039   5.167   7.094 -3.7749 -1.1248  0.2498
  182SOPE   C3620843   2.162   5.047   7.231 -0.6162 -0.5536  0.2748
  182SOPE   H6X20844   2.244   5.118   7.205 -1.3619  0.0292 -0.5770
  182SOPE   H6Y20845   2.193   4.941   7.222 -2.0493 -0.8569 -1.5854
  182SOPE   C3720846   2.085   5.073   7.356  0.1945  0.0303 -0.0720
  182SOPE   H7X20847   1.984   5.027   7.356  0.4308 -0.5156 -1.4160
  182SOPE   H7Y20848   2.066   5.182   7.366 -0.6262  0.1319 -2.2424
  182SOPE   C3820849   2.146   5.017   7.482 -0.6262 -0.2914 -0.4579
  182SOPE   H8X20850   2.239   5.075   7.497 -1.2312  1.1280 -1.8332
  182SOPE   H8Y20851   2.177   4.912   7.464  0.4718  0.1861 -1.4272
  182SOPE   C3920852   2.053   5.042   7.604 -0.1073  0.0680 -0.4970
  182SOPE   H9X20853   1.945   5.024   7.583 -0.3610 -0.0826  0.8017
  182SOPE   H9Y20854   2.057   5.148   7.638  0.9075 -0.3284  0.6992
  182SOPE  C31020855   2.071   4.946   7.721 -0.0900 -0.1012  0.6296
  182SOPE  H10X20856   2.167   4.971   7.770  0.7865 -0.3943 -0.8641
  182SOPE  H10Y20857   2.079   4.839   7.692 -1.9306 -0.4898  1.4188
  182SOPE  C31120858   1.973   4.961   7.837 -0.6417 -0.3836  0.9788
  182SOPE  H11X20859   1.999   4.912   7.933 -2.6742 -1.3654  1.0729
  182SOPE  H11Y20860   1.884   4.902   7.807 -0.5254 -0.0532 -0.0447
  182SOPE  C31220861   1.924   5.103   7.869  0.8399 -0.3663  0.3115
  182SOPE  H12X20862   1.860   5.137   7.785  0.5638  0.0244  0.6784
  182SOPE  H12Y20863   2.019   5.160   7.880  2.4901 -2.6453 -1.2581
  182SOPE  C31320864   1.848   5.104   7.998 -0.4230 -1.1057 -0.5135
  182SOPE  H13X20865   1.802   5.201   8.025  1.4361 -0.5015  0.6738
  182SOPE  H13Y20866   1.920   5.081   8.080  0.2641 -0.2957 -0.8811
  182SOPE  C31420867   1.721   5.018   8.001 -0.2136  0.3719  0.2221
  182SOPE  H14X20868   1.673   5.052   8.096 -2.3633 -0.6608 -0.4358
  182SOPE  H14Y20869   1.758   4.914   8.015 -1.4950 -0.0468  0.6100
  182SOPE  C31520870   1.630   5.039   7.878 -0.2105  0.5402 -0.0525
  182SOPE  H15X20871   1.687   5.012   7.786  2.4926  0.8333  1.4386
  182SOPE  H15Y20872   1.593   5.143   7.865  0.0201  0.8830  1.7409
  182SOPE  C31620873   1.506   4.940   7.861 -0.9364 -0.4217 -0.1130
  182SOPE  H16X20874   1.435   4.961   7.943 -0.3764 -1.1548  0.5783
  182SOPE  H16Y20875   1.542   4.836   7.873  0.0185 -0.0839  0.0564
  182SOPE  C31720876   1.431   4.948   7.728 -0.7250 -0.6053  0.6409
  182SOPE  H17X20877   1.507   4.943   7.647  0.5437 -1.7951  1.8468
  182SOPE  H17Y20878   1.386   5.049   7.718  0.3255 -0.2372 -0.6460
  182SOPE  C31820879   1.328   4.840   7.717 -0.3294  0.1855  0.2598
  182SOPE  H18X20880   1.378   4.741   7.715 -0.3492  0.1489 -2.5712
  182SOPE  H18Y20881   1.274   4.841   7.620 -0.6242  1.2592  0.4268
  182SOPE  H18Z20882   1.258   4.848   7.803  0.6593  2.1503  0.9323
  183SOPE     N20883   4.147   2.926   6.115  0.3635 -0.0568 -0.0580
  183SOPE   HN120884   4.073   2.961   6.050  0.9274  1.3962  0.0333
  183SOPE   HN220885   4.113   2.935   6.213  2.6006 -0.9066  0.8626
  183SOPE   HN320886   4.231   2.986   6.101 -0.0554  0.0869 -2.2578
  183SOPE   C1220887   4.179   2.780   6.105  0.0841 -0.3985  0.6924
  183SOPE  H12A20888   4.218   2.773   6.002  0.1334  1.0564  0.5872
  183SOPE  H12B20889   4.085   2.723   6.122  0.2495 -0.7886  0.3141
  183SOPE   C1120890   4.302   2.746   6.199 -0.0836 -0.0162  0.0568
  183SOPE  H11A20891   4.318   2.640   6.170 -0.7542 -0.8250  2.4120
  183SOPE  H11B20892   4.263   2.748   6.303  1.1434 -0.1968  0.5373
  183SOPE     P20893   4.536   2.827   6.254 -0.0294  0.1993 -0.3132
  183SOPE   O1320894   4.611   2.944   6.209 -0.1729  0.1529 -0.3039
  183SOPE   O1420895   4.594   2.692   6.242 -0.6434 -0.5381 -0.6325
  183SOPE   O1220896   4.412   2.828   6.167  0.0319 -0.0348  0.1328
  183SOPE   O1120897   4.477   2.842   6.400 -0.2256 -0.9355  0.6569
  183SOPE    C120898   4.392   2.949   6.448  0.3918 -0.5093  0.6708
  183SOPE    HA20899   4.290   2.908   6.465  0.6350 -1.2430  0.4006
  183SOPE    HB20900   4.384   3.032   6.375  0.6234  0.1711  1.4040
  183SOPE    C220901   4.443   3.004   6.587 -0.7591  0.1798 -0.4563
  183SOPE    HS20902   4.517   2.932   6.628  1.5102  3.4554  1.6853
  183SOPE   O2120903   4.341   3.026   6.688  0.1912 -0.0993 -0.1155
  183SOPE   C2120904   4.295   2.919   6.753  0.5709 -0.3213 -0.0137
  183SOPE   O2220905   4.316   2.803   6.726 -0.2575  0.3205  0.1585
  183SOPE   C2220906   4.199   2.965   6.871 -0.6950  0.2347 -0.3425
  183SOPE   H2R20907   4.119   2.889   6.871 -0.0952 -0.4007 -0.8968
  183SOPE   H2S20908   4.157   3.067   6.854 -0.2712  0.7105  1.2091
  183SOPE    C320909   4.524   3.134   6.570 -0.3207  0.0168 -0.7007
  183SOPE    HX20910   4.478   3.209   6.502 -0.4957  0.9544  0.4252
  183SOPE    HY20911   4.620   3.112   6.518  2.9704  3.1851  3.3862
  183SOPE   O3120912   4.572   3.179   6.695  0.6621 -0.3903 -0.1983
  183SOPE   C3120913   4.514   3.279   6.755  0.1163 -0.7444 -0.3048
  183SOPE   O3220914   4.427   3.351   6.706 -0.6188 -0.1128 -0.1111
  183SOPE   C3220915   4.572   3.288   6.894 -0.4972  0.4145 -0.4554
  183SOPE   H2X20916   4.681   3.291   6.876  0.1301 -1.7368  2.3002
  183SOPE   H2Y20917   4.552   3.189   6.939 -0.9902  0.3695 -0.7656
  183SOPE   C2320918   4.269   2.960   7.006 -0.5701  1.0159 -0.5524
  183SOPE   H3R20919   4.361   3.021   6.992 -0.0550  0.7377  1.3123
  183SOPE   H3S20920   4.316   2.862   7.031  1.7338  1.1654 -3.6709
  183SOPE   C2420921   4.189   3.009   7.124  0.3888 -0.6314  0.2729
  183SOPE   H4R20922   4.155   3.112   7.101 -0.2690 -0.9592 -0.3101
  183SOPE   H4S20923   4.097   2.949   7.140 -1.3314  2.3445  2.5939
  183SOPE   C2520924   4.268   3.017   7.257 -0.3354  0.6416  0.0972
  183SOPE   H5R20925   4.310   2.918   7.287  0.3676  0.7148 -0.5846
  183SOPE   H5S20926   4.361   3.079   7.258  0.5184 -0.3763  4.7003
  183SOPE   C2620927   4.184   3.072   7.377 -0.3479  0.2840 -0.3639
  183SOPE   H6R20928   4.163   3.181   7.366 -0.3977  0.1007 -2.7899
  183SOPE   H6S20929   4.083   3.026   7.380 -0.8089  1.2354 -0.7259
  183SOPE   C2720930   4.259   3.061   7.514  0.5885 -0.3972  0.3355
  183SOPE   H7R20931   4.271   2.952   7.536 -1.8821 -0.4744  1.7063
  183SOPE   H7S20932   4.354   3.114   7.495  0.5757 -0.6643 -0.5411
  183SOPE   C2820933   4.177   3.117   7.636 -0.7252  0.3290 -0.0620
  183SOPE   H8R20934   4.242   3.131   7.726  2.0687  1.6728 -2.1294
  183SOPE   H8S20935   4.135   3.215   7.604 -0.2498  0.1963 -1.1239
  183SOPE   C2920936   4.073   3.026   7.679  0.1511  0.4320  0.2088
  183SOPE   H9120937   4.008   2.993   7.597 -1.6721  1.8848  1.0095
  183SOPE  C21020938   4.044   2.969   7.796  0.5064 -0.0835  0.3538
  183SOPE  H10120939   3.958   2.901   7.792  0.3847  0.0856  0.0353
  183SOPE  C21120940   4.123   2.984   7.925 -0.5885 -0.4336 -0.0086
  183SOPE  H11R20941   4.205   3.059   7.921 -0.3485 -0.4842  2.4534
  183SOPE  H11S20942   4.165   2.886   7.957 -0.5686 -0.4007  0.0656
  183SOPE  C21220943   4.014   3.034   8.022  0.0160 -0.1794  0.2032
  183SOPE  H12R20944   4.039   3.011   8.128 -0.4604  1.3945  0.6732
  183SOPE  H12S20945   3.921   2.975   8.008  0.0070  0.3489 -2.6546
  183SOPE  C21320946   3.991   3.185   8.010  0.1468 -0.1827  0.5358
  183SOPE  H13R20947   3.978   3.229   7.909  0.2063  0.4305  0.7879
  183SOPE  H13S20948   4.087   3.222   8.054  1.1523 -3.3051  1.2025
  183SOPE  C21420949   3.879   3.230   8.110  0.0444  0.5363 -0.7741
  183SOPE  H14R20950   3.883   3.166   8.201 -0.1218  1.3929 -0.1487
  183SOPE  H14S20951   3.780   3.201   8.068  0.7995 -3.5628 -0.2011
  183SOPE  C21520952   3.895   3.374   8.156  0.0744 -0.6345 -0.6385
  183SOPE  H15R20953   3.788   3.400   8.174 -0.9525 -4.6304  0.1288
  183SOPE  H15S20954   3.923   3.448   8.079 -0.1163  1.4539  1.2062
  183SOPE  C21620955   3.965   3.400   8.289  0.6745  0.4642 -0.5758
  183SOPE  H16R20956   4.063   3.348   8.282 -0.6183 -2.0639 -1.1593
  183SOPE  H16S20957   3.912   3.344   8.369  2.0202 -0.8351 -0.5565
  183SOPE  C21720958   3.967   3.549   8.341 -0.2911 -0.2485  0.3426
  183SOPE  H17R20959   3.862   3.586   8.342 -1.0606 -2.0067 -2.2698
  183SOPE  H17S20960   4.031   3.611   8.274 -0.0179 -1.0067 -0.1071
  183SOPE  C21820961   4.012   3.580   8.480  0.4928  0.0836 -0.1726
  183SOPE  H18R20962   4.023   3.689   8.500 -1.2922  0.7221 -2.1884
  183SOPE  H18S20963   4.115   3.546   8.504 -0.1116 -1.3705  0.4634
  183SOPE  H18T20964   3.931   3.539   8.544 -1.6651  1.7085 -1.7120
  183SOPE   C3320965   4.521   3.390   6.996  0.5270 -0.5342 -0.5858
  183SOPE   H3X20966   4.411   3.378   7.003  0.6586 -0.6369  2.0817
  183SOPE   H3Y20967   4.537   3.496   6.965  0.0567 -0.1060  0.6184
  183SOPE   C3420968   4.566   3.359   7.139 -1.2634  0.0673 -0.3506
  183SOPE   H4X20969   4.676   3.367   7.139 -1.1473 -1.3421 -0.8757
  183SOPE   H4Y20970   4.541   3.253   7.161 -0.9586 -0.7144 -3.4051
  183SOPE   C3520971   4.507   3.452   7.250  0.1564  0.0125 -0.0236
  183SOPE   H5X20972   4.503   3.398   7.347 -0.3554  0.9190  0.4740
  183SOPE   H5Y20973   4.406   3.484   7.215  1.7237  2.0176 -3.1772
  183SOPE   C3620974   4.578   3.585   7.268 -0.5405 -0.0940 -0.2100
  183SOPE   H6X20975   4.563   3.640   7.172  0.5285  0.3270 -0.1458
  183SOPE   H6Y20976   4.687   3.572   7.278 -0.3848 -0.0827 -1.6510
  183SOPE   C3720977   4.517   3.664   7.392 -0.1798  0.1480  0.4473
  183SOPE   H7X20978   4.523   3.599   7.482  1.1855  0.6563  0.7457
  183SOPE   H7Y20979   4.414   3.699   7.372 -0.4862 -0.6643  0.5561
  183SOPE   C3820980   4.595   3.786   7.441 -0.4865 -0.5821  0.4258
  183SOPE   H8X20981   4.585   3.862   7.361  0.7084  1.1517  1.8739
  183SOPE   H8Y20982   4.700   3.755   7.458  0.1785  1.6306  0.5776
  183SOPE   C3920983   4.540   3.849   7.570  0.0564 -0.1855 -0.6679
  183SOPE   H9X20984   4.547   3.767   7.644  0.6740 -0.7868 -1.3832
  183SOPE   H9Y20985   4.433   3.874   7.552 -0.2682 -2.7329 -2.6886
  183SOPE  C31020986   4.617   3.979   7.621 -0.4707  0.3711 -0.1960
  183SOPE  H10X20987   4.644   4.047   7.537  0.3950 -0.7333 -0.8381
  183SOPE  H10Y20988   4.716   3.947   7.661 -1.4747 -1.2180  1.1559
  183SOPE  C31120989   4.555   4.056   7.733 -0.3822 -0.4703 -0.2967
  183SOPE  H11X20990   4.473   4.119   7.694  1.0982 -0.4370 -3.6622
  183SOPE  H11Y20991   4.637   4.118   7.774  0.1434  0.5320 -2.6919
  183SOPE  C31220992   4.495   3.987   7.857 -0.3409  0.3763  0.2225
  183SOPE  H12X20993   4.570   3.912   7.892  1.2565  2.1848  0.8333
  183SOPE  H12Y20994   4.403   3.933   7.824  0.2025 -0.4333 -0.0139
  183SOPE  C31320995   4.454   4.075   7.980  0.7110  0.0400  0.5782
  183SOPE  H13X20996   4.355   4.122   7.960  1.2664  0.6910 -0.7393
  183SOPE  H13Y20997   4.524   4.161   7.976  1.5797 -0.7060 -1.2122
  183SOPE  C31420998   4.450   3.999   8.114 -0.4596  0.0324  0.6434
  183SOPE  H14X20999   4.541   3.935   8.123  0.8022  1.7748  0.6413
  183SOPE  H14Y21000   4.370   3.922   8.103 -1.8761  1.3490  1.3808
  183SOPE  C31521001   4.422   4.071   8.239  0.2189  0.2099  0.0992
  183SOPE  H15X21002   4.397   3.997   8.318 -0.8897  0.6345  0.1649
  183SOPE  H15Y21003   4.329   4.130   8.223 -0.1414 -0.8382 -2.0997
  183SOPE  C31621004   4.535   4.157   8.291  0.0277 -0.3217 -0.8090
  183SOPE  H16X21005   4.561   4.230   8.212 -1.0946 -0.1981 -1.0737
  183SOPE  H16Y21006   4.631   4.107   8.315  1.9280  2.9402 -1.0846
  183SOPE  C31721007   4.501   4.245   8.420  0.1371  0.0266 -0.8975
  183SOPE  H17X21008   4.589   4.311   8.434 -0.4695  0.6244  0.3352
  183SOPE  H17Y21009   4.495   4.187   8.515  1.1346 -1.5041 -1.7314
  183SOPE  C31821010   4.372   4.338   8.420 -0.1700  0.1841  0.5168
  183SOPE  H18X21011   4.397   4.427   8.359  3.0931 -0.9823 -0.0443
  183SOPE  H18Y21012   4.345   4.367   8.524 -1.3364 -1.2990  0.6645
  183SOPE  H18Z21013   4.283   4.277   8.391  0.7121 -0.9764  0.1865
  184SOPE     N21014   4.532   4.084   5.837  0.7961  0.4857  0.2036
  184SOPE   HN121015   4.448   4.049   5.787 -0.5568  1.9993  1.3332
  184SOPE   HN221016   4.579   4.158   5.781 -0.0872  0.1534 -1.0199
  184SOPE   HN321017   4.603   4.009   5.854  1.1101  0.5435 -0.8049
  184SOPE   C1221018   4.489   4.145   5.966  0.3195  1.0728  0.1288
  184SOPE  H12A21019   4.406   4.217   5.955  1.4369  2.8787  2.4862
  184SOPE  H12B21020   4.567   4.219   5.996  0.4023  0.2135  2.2289
  184SOPE   C1121021   4.446   4.046   6.078 -0.2643  0.3108  0.5206
  184SOPE  H11A21022   4.387   4.113   6.143 -0.8826 -0.9648  1.3208
  184SOPE  H11B21023   4.531   3.996   6.129  0.9522  0.8919 -0.8813
  184SOPE     P21024   4.294   3.835   6.105  0.2847 -0.2948  0.0198
  184SOPE   O1321025   4.389   3.767   6.195  0.2256  0.1823  0.5450
  184SOPE   O1421026   4.215   3.752   6.010 -0.5452  0.2511  0.4518
  184SOPE   O1221027   4.359   3.955   6.024 -0.1070  0.1593  0.2268
  184SOPE   O1121028   4.188   3.897   6.197  0.5931 -0.3711 -0.2345
  184SOPE    C121029   4.090   4.000   6.170 -0.4977  0.4652  0.0912
  184SOPE    HA21030   3.994   3.954   6.139 -0.0756 -0.7800  0.5480
  184SOPE    HB21031   4.126   4.066   6.088  0.4681 -0.7206 -0.4835
  184SOPE    C221032   4.071   4.087   6.296  1.1079  0.3807  0.0727
  184SOPE    HS21033   4.166   4.141   6.316  0.1050  2.0946  0.3867
  184SOPE   O2121034   4.042   3.997   6.405  0.6283  0.4790 -0.6535
  184SOPE   C2121035   4.112   4.016   6.516 -0.0949  0.2323 -0.3974
  184SOPE   O2221036   4.193   4.102   6.537 -0.4989 -0.3163  0.4976
  184SOPE   C2221037   4.083   3.903   6.620 -0.1129  0.1654 -0.4567
  184SOPE   H2R21038   4.161   3.926   6.696  1.0580  0.2551 -1.6433
  184SOPE   H2S21039   4.115   3.805   6.579  2.0170  1.2749 -1.6459
  184SOPE    C321040   3.946   4.182   6.278 -0.0237  0.1398 -0.2112
  184SOPE    HX21041   3.856   4.118   6.269 -0.2309 -0.2345  3.0805
  184SOPE    HY21042   3.966   4.251   6.193  0.4445  1.0824  0.6345
  184SOPE   O3121043   3.944   4.256   6.403  0.2731 -0.1484  0.8010
  184SOPE   C3121044   3.834   4.246   6.471 -0.1538 -0.3271  0.2579
  184SOPE   O3221045   3.746   4.160   6.452 -0.2827  0.1625 -0.5160
  184SOPE   C3221046   3.827   4.375   6.553 -0.1304 -0.1055 -0.2113
  184SOPE   H2X21047   3.733   4.423   6.520 -0.2692 -1.7072 -2.3791
  184SOPE   H2Y21048   3.914   4.443   6.547  0.8535 -1.1108  1.6978
  184SOPE   C2321049   3.941   3.903   6.667 -0.1088 -0.1612 -0.2515
  184SOPE   H3R21050   3.872   3.878   6.584  1.0762 -2.9827 -0.4908
  184SOPE   H3S21051   3.916   4.007   6.698  1.9699  1.2213 -2.7683
  184SOPE   C2421052   3.916   3.803   6.781 -0.0009  0.0063  0.3226
  184SOPE   H4R21053   3.936   3.699   6.746 -0.1806  0.7794 -2.2705
  184SOPE   H4S21054   3.991   3.826   6.860  0.4423 -1.5189  0.3754
  184SOPE   C2521055   3.778   3.816   6.835  0.4988 -0.8736 -0.0496
  184SOPE   H5R21056   3.762   3.925   6.849  0.5643 -0.7692 -0.7180
  184SOPE   H5S21057   3.707   3.777   6.758 -0.2216  0.2970 -0.0083
  184SOPE   C2621058   3.760   3.729   6.961  0.9559  0.1461  1.1617
  184SOPE   H6R21059   3.789   3.623   6.944  0.7998  0.1450  0.8902
  184SOPE   H6S21060   3.822   3.774   7.041 -1.4941  3.3652  1.4219
  184SOPE   C2721061   3.609   3.712   7.003  0.5469  0.2850 -0.0015
  184SOPE   H7R21062   3.547   3.796   6.967 -0.7361 -0.0750  1.2852
  184SOPE   H7S21063   3.566   3.622   6.955  0.0113  1.1607 -1.2263
  184SOPE   C2821064   3.592   3.711   7.161 -0.0447 -0.6642  0.4039
  184SOPE   H8R21065   3.632   3.807   7.201 -0.9209 -0.5865  1.1298
  184SOPE   H8S21066   3.486   3.700   7.193 -0.6693  1.4384 -0.7266
  184SOPE   C2921067   3.669   3.612   7.237  0.0445  0.5251 -0.6084
  184SOPE   H9121068   3.738   3.553   7.176 -0.7332 -1.4440  0.3478
  184SOPE  C21021069   3.667   3.587   7.370 -0.3914 -0.3027 -0.0856
  184SOPE  H10121070   3.739   3.511   7.403 -0.4672 -0.3035  0.0840
  184SOPE  C21121071   3.594   3.667   7.477  0.3367  0.2697  0.6406
  184SOPE  H11R21072   3.487   3.641   7.489 -0.6530  2.4489 -2.2780
  184SOPE  H11S21073   3.576   3.773   7.449 -0.7882 -0.1036 -0.1353
  184SOPE  C21221074   3.664   3.669   7.618 -0.2943  0.7394  0.6882
  184SOPE  H12R21075   3.615   3.754   7.670 -2.3534  0.4436 -0.6277
  184SOPE  H12S21076   3.773   3.690   7.612 -0.1907  0.1381  0.3594
  184SOPE  C21321077   3.662   3.537   7.697 -1.0668 -0.0719 -0.3636
  184SOPE  H13R21078   3.703   3.455   7.635  1.2056  0.8485 -0.1779
  184SOPE  H13S21079   3.560   3.520   7.737 -0.9165  1.4105  0.7555
  184SOPE  C21421080   3.756   3.548   7.821  0.7803 -0.3193  0.0801
  184SOPE  H14R21081   3.857   3.571   7.781  1.1911 -0.3393  1.0680
  184SOPE  H14S21082   3.767   3.449   7.871 -1.0811 -0.8394 -0.4508
  184SOPE  C21521083   3.713   3.656   7.922 -0.3962  0.6888  0.2000
  184SOPE  H15R21084   3.694   3.756   7.878 -1.0714  0.0190 -1.0695
  184SOPE  H15S21085   3.802   3.658   7.989  0.5206 -1.9604 -0.7926
  184SOPE  C21621086   3.593   3.611   8.013 -0.1842 -0.1546 -0.6070
  184SOPE  H16R21087   3.605   3.505   8.045  0.3696  0.0969  0.0577
  184SOPE  H16S21088   3.505   3.616   7.946 -0.0929  0.7307 -0.6667
  184SOPE  C21721089   3.584   3.694   8.147  0.1983 -0.0949 -0.6530
  184SOPE  H17R21090   3.653   3.663   8.228 -1.3832  0.1356  0.8443
  184SOPE  H17S21091   3.495   3.668   8.207 -0.2213  2.2906 -0.1378
  184SOPE  C21821092   3.592   3.847   8.121 -0.4281 -0.3406 -0.3841
  184SOPE  H18R21093   3.513   3.868   8.047 -0.2694  2.9585  0.2299
  184SOPE  H18S21094   3.693   3.880   8.089 -0.8797  0.5701 -0.8977
  184SOPE  H18T21095   3.569   3.903   8.215  0.7422  0.0492 -0.3090
  184SOPE   C3321096   3.817   4.336   6.703 -0.0960  0.5557  0.2021
  184SOPE   H3X21097   3.747   4.250   6.710  0.3317  0.1627 -0.2662
  184SOPE   H3Y21098   3.751   4.412   6.750 -1.5753 -0.3539 -0.3458
  184SOPE   C3421099   3.951   4.322   6.769  0.0414  0.1058 -1.2363
  184SOPE   H4X21100   3.991   4.425   6.773  1.1223 -0.2508 -2.3245
  184SOPE   H4Y21101   4.018   4.259   6.707  0.9063  0.4847 -0.7045
  184SOPE   C3521102   3.939   4.261   6.904 -0.2380 -0.3890  0.2517
  184SOPE   H5X21103   4.039   4.232   6.942 -1.2399 -4.7119  0.1060
  184SOPE   H5Y21104   3.881   4.166   6.910 -1.1656  0.1957  0.7536
  184SOPE   C3621105   3.850   4.345   6.999 -0.2148  0.6458  0.1562
  184SOPE   H6X21106   3.747   4.312   6.974  0.6773 -2.4842  0.1545
  184SOPE   H6Y21107   3.872   4.449   6.968  1.1194 -0.1110 -1.6448
  184SOPE   C3721108   3.881   4.318   7.148  0.0546  0.0136  0.5500
  184SOPE   H7X21109   3.985   4.281   7.161 -0.1589 -0.0572  2.2987
  184SOPE   H7Y21110   3.818   4.234   7.186  0.9252 -0.9257 -0.0531
  184SOPE   C3821111   3.880   4.440   7.236  0.3606 -0.0002 -0.4802
  184SOPE   H8X21112   3.795   4.510   7.227  0.7015  0.7711  1.5768
  184SOPE   H8Y21113   3.969   4.504   7.215  1.0637 -1.2880 -1.5172
  184SOPE   C3921114   3.895   4.396   7.386  0.3752 -0.6079 -0.0571
  184SOPE   H9X21115   3.987   4.334   7.378  0.8810  0.4067 -3.9328
  184SOPE   H9Y21116   3.814   4.331   7.424  0.6310 -0.3408  0.9668
  184SOPE  C31021117   3.902   4.520   7.479 -0.2122 -0.2077 -0.1835
  184SOPE  H10X21118   3.842   4.602   7.436 -2.9861 -0.6960  2.4443
  184SOPE  H10Y21119   4.008   4.553   7.479  0.1758 -1.3876 -0.5117
  184SOPE  C31121120   3.854   4.496   7.625 -0.1474 -0.2798  0.0851
  184SOPE  H11X21121   3.923   4.429   7.680 -1.4397 -1.5020  0.2667
  184SOPE  H11Y21122   3.760   4.437   7.614 -1.6045  1.8235  0.6811
  184SOPE  C31221123   3.816   4.615   7.706  0.1449 -0.6647  0.3111
  184SOPE  H12X21124   3.755   4.677   7.638 -1.0111 -3.3362 -1.2210
  184SOPE  H12Y21125   3.907   4.670   7.740  1.0173 -0.8412 -1.6058
  184SOPE  C31321126   3.726   4.588   7.825 -0.3020 -0.1397  0.0295
  184SOPE  H13X21127   3.630   4.544   7.790 -0.4884  0.1884  0.1149
  184SOPE  H13Y21128   3.692   4.690   7.856  1.7381  1.0249 -1.3594
  184SOPE  C31421129   3.786   4.507   7.932  0.8827 -0.0270  0.1811
  184SOPE  H14X21130   3.879   4.550   7.976 -1.1514  1.0192  3.8219
  184SOPE  H14Y21131   3.803   4.407   7.887 -0.8736  0.0197 -0.6590
  184SOPE  C31521132   3.689   4.494   8.050 -0.3724 -0.5097 -0.4334
  184SOPE  H15X21133   3.612   4.426   8.008  2.2790 -2.1458 -3.0285
  184SOPE  H15Y21134   3.642   4.589   8.084  1.7589  0.2598  0.5121
  184SOPE  C31621135   3.738   4.430   8.187  0.4652 -0.2773  0.6421
  184SOPE  H16X21136   3.661   4.456   8.263  1.0749  0.9315  0.8660
  184SOPE  H16Y21137   3.831   4.483   8.216 -0.2841  0.4140  1.8560
  184SOPE  C31721138   3.768   4.278   8.164 -0.4286 -0.8518  0.1444
  184SOPE  H17X21139   3.806   4.254   8.062  0.4167 -1.3394  0.5586
  184SOPE  H17Y21140   3.675   4.218   8.168 -2.3094  1.5712 -2.8310
  184SOPE  C31821141   3.871   4.245   8.258  0.3186  0.1495 -0.1612
  184SOPE  H18X21142   3.845   4.294   8.355 -0.6815  0.5453 -0.6141
  184SOPE  H18Y21143   3.973   4.278   8.228  1.0799 -1.4415  0.5498
  184SOPE  H18Z21144   3.876   4.134   8.263 -0.8578  0.1414  1.8548
  185SAPI   C1221145   4.155   0.449  11.084 -0.1692 -0.2936 -0.3470
  185SAPI    H221146   4.163   0.350  11.034 -0.2395 -0.5571  0.1561
  185SAPI    O221147   4.062   0.435  11.189  0.0222 -0.1542 -0.0370
  185SAPI   HO221148   3.973   0.449  11.155  1.3006 -0.5164 -4.1219
  185SAPI   C1321149   4.292   0.482  11.150 -0.6128  0.1122 -0.6546
  185SAPI    H321150   4.369   0.505  11.073 -0.3446  2.4510  0.2443
  185SAPI    O321151   4.339   0.364  11.214  0.3566  0.0033 -0.2980
  185SAPI   HO321152   4.278   0.335  11.283  0.0675  4.1398  1.5008
  185SAPI   C1421153   4.292   0.605  11.231 -0.0592  0.4703 -0.9453
  185SAPI    H421154   4.214   0.595  11.311  0.6560 -0.6047 -0.3626
  185SAPI    O421155   4.412   0.640  11.302  0.2605  0.2862  0.0301
  185SAPI   HO421156   4.396   0.696  11.377  0.1301 -0.5195  0.6194
  185SAPI   C1521157   4.253   0.721  11.148  0.0656 -0.3068 -0.5451
  185SAPI    H521158   4.322   0.727  11.062  0.1050 -1.6823 -0.6356
  185SAPI    O521159   4.237   0.843  11.226  0.2263  0.3056 -0.2757
  185SAPI   HO521160   4.292   0.906  11.179 -0.6019  0.4392 -1.0990
  185SAPI   C1621161   4.118   0.696  11.080 -0.4530  0.2030  0.3909
  185SAPI    H621162   4.029   0.698  11.146 -1.5414  0.9219 -1.0482
  185SAPI    O621163   4.087   0.800  10.982  0.6472  0.0552  0.4692
  185SAPI   HO621164   4.086   0.758  10.896 -1.1350  0.1365  0.4229
  185SAPI   C1121165   4.118   0.566  10.998 -0.5143 -0.3528  0.5955
  185SAPI    H121166   4.200   0.578  10.924  0.2138  1.1405  1.5754
  185SAPI     P21167   3.964   0.568  10.782  0.2088 -0.3971 -0.2229
  185SAPI   O1321168   4.053   0.675  10.732 -0.0395 -0.3342 -0.8360
  185SAPI   O1421169   3.813   0.590  10.776 -0.3928  0.2056 -0.2763
  185SAPI   O1221170   3.998   0.541  10.939  0.1788  0.5776  0.6170
  185SAPI   O1121171   3.990   0.437  10.709  0.3197  0.0537 -0.0947
  185SAPI    C121172   4.093   0.344  10.741 -0.0965  0.4867 -0.4404
  185SAPI    HA21173   4.186   0.394  10.775 -1.0647  2.5305 -0.6445
  185SAPI    HB21174   4.063   0.289  10.833 -1.8472  1.9016 -0.1176
  185SAPI    C221175   4.112   0.241  10.630  0.1227  0.2805 -0.4596
  185SAPI    HS21176   4.206   0.185  10.651  0.0219  0.5687  0.8746
  185SAPI   O2121177   4.114   0.304  10.496  0.2088 -0.3842  0.4545
  185SAPI   C2121178   4.223   0.367  10.468 -0.4869  0.6024  0.1994
  185SAPI   O2221179   4.316   0.380  10.545 -0.3627 -0.5702  0.7302
  185SAPI   C2221180   4.208   0.430  10.327 -0.0729 -0.3593 -0.2412
  185SAPI   H2R21181   4.099   0.428  10.305  0.0207 -1.5249 -0.6350
  185SAPI   H2S21182   4.232   0.539  10.324 -2.4645  0.2023 -1.1713
  185SAPI    C321183   4.009   0.122  10.638 -0.5681  0.7384  0.0350
  185SAPI    HX21184   3.907   0.138  10.597 -0.3929  0.4304 -0.5387
  185SAPI    HY21185   3.997   0.108  10.748 -0.3909 -2.7683 -0.2591
  185SAPI   O3121186   4.062   0.004  10.579 -0.0119 -0.1700 -0.6638
  185SAPI   C3121187   3.981  -0.096  10.537 -0.5063 -0.1349  0.4745
  185SAPI   O3221188   3.864  -0.086  10.528 -0.1257  0.4942  0.0613
  185SAPI   C3221189   4.066  -0.218  10.491  0.6069 -0.3414 -0.6136
  185SAPI   H2X21190   4.021  -0.304  10.546 -2.0563  1.5985  0.4804
  185SAPI   H2Y21191   4.170  -0.196  10.522  0.4169  0.1776 -0.3267
  185SAPI   C2321192   4.294   0.351  10.220 -0.0001  0.4515 -0.4909
  185SAPI   H3R21193   4.285   0.241  10.238  0.3107  0.9564  3.6410
  185SAPI   H3S21194   4.397   0.392  10.232  0.3849 -0.6484  0.1258
  185SAPI   C2421195   4.246   0.388  10.076 -0.2459  0.9794 -0.3131
  185SAPI   H4R21196   4.329   0.355  10.010  0.4162  1.4330  0.2705
  185SAPI   H4S21197   4.246   0.499  10.066  0.1347  0.8882 -1.4500
  185SAPI   C2521198   4.115   0.326  10.037 -0.0814 -0.3543 -0.4216
  185SAPI   H5R21199   4.052   0.291  10.119 -2.3427  0.2096 -1.8446
  185SAPI   C2621200   4.075   0.303   9.906  0.6305 -0.8532 -0.1127
  185SAPI   H6R21201   3.971   0.268   9.899  0.7913 -1.3236 -0.1419
  185SAPI   C2721202   4.159   0.339   9.791 -0.2141  0.6436 -0.0619
  185SAPI   H7R21203   4.231   0.254   9.790  1.6108  2.1397 -1.2762
  185SAPI   H7S21204   4.217   0.432   9.805  0.8835 -0.0960  0.4612
  185SAPI   C2821205   4.076   0.332   9.667 -0.5541 -0.7163  0.3407
  185SAPI   H8R21206   4.003   0.414   9.660 -1.2515 -1.2888  0.8361
  185SAPI   C2921207   4.077   0.232   9.575 -0.1280 -0.6741  0.9008
  185SAPI   H9R21208   3.997   0.224   9.500  1.0459 -2.4493 -0.2700
  185SAPI  C21021209   4.179   0.117   9.574 -0.0456 -0.2786 -0.0820
  185SAPI  H10R21210   4.136   0.035   9.514  2.7696 -1.0841 -1.1418
  185SAPI  H10S21211   4.182   0.070   9.674 -0.1815 -1.1796 -0.4995
  185SAPI  C21121212   4.317   0.145   9.519 -0.2049  0.1928  0.1795
  185SAPI  H11R21213   4.392   0.171   9.595 -0.9615 -0.5194  1.2069
  185SAPI  C21221214   4.352   0.146   9.386  0.2103 -0.0156 -0.3861
  185SAPI  H12R21215   4.457   0.171   9.366 -0.2341  2.1263 -0.2425
  185SAPI  C21321216   4.279   0.105   9.260  0.5865  0.6638 -0.3710
  185SAPI  H13R21217   4.334   0.155   9.177  0.4692  2.1818  0.4249
  185SAPI  H13S21218   4.180   0.156   9.265 -0.5926 -1.6161  1.1988
  185SAPI  C21421219   4.263  -0.043   9.256  0.5441  0.5310 -0.0052
  185SAPI  H14R21220   4.281  -0.094   9.352  1.2773  1.8019  0.5571
  185SAPI  C21521221   4.248  -0.123   9.145  0.1625  0.3045 -0.0325
  185SAPI  H15R21222   4.254  -0.230   9.171  2.5521  0.6347  1.0505
  185SAPI  C21621223   4.251  -0.079   8.998 -0.2258  0.4592 -0.0930
  185SAPI  H16R21224   4.276   0.028   8.980 -1.6734  0.4287 -2.8906
  185SAPI  H16S21225   4.143  -0.085   8.971 -0.0371 -1.3642 -0.5267
  185SAPI  C21721226   4.335  -0.165   8.903 -0.3523 -1.0238 -0.2394
  185SAPI  H17R21227   4.442  -0.159   8.932 -1.0348  1.0647  2.2232
  185SAPI  H17S21228   4.320  -0.111   8.807  1.1133 -1.0710 -0.5098
  185SAPI  C21821229   4.279  -0.308   8.868 -0.0986  0.4251 -0.5390
  185SAPI  H18R21230   4.173  -0.278   8.856 -0.1908 -0.0150 -0.8473
  185SAPI  H18S21231   4.308  -0.367   8.957 -0.6053  0.8598 -0.0757
  185SAPI  C21921232   4.336  -0.385   8.750 -0.3007 -0.1067  0.3760
  185SAPI  H19R21233   4.443  -0.405   8.772 -0.4805 -1.1581  0.3098
  185SAPI  H19S21234   4.344  -0.327   8.656 -0.1234  0.7690  0.9156
  185SAPI  C22021235   4.262  -0.513   8.727 -0.3377 -0.8177 -0.1350
  185SAPI  H20R21236   4.277  -0.586   8.809  2.2174 -1.9613 -1.4976
  185SAPI  H20S21237   4.320  -0.562   8.646  1.5502 -0.4450  0.9356
  185SAPI  H20T21238   4.156  -0.501   8.694 -0.1295 -0.0206 -0.5214
  185SAPI   C3321239   4.059  -0.226  10.336  0.1203  0.2286 -0.2248
  185SAPI   H3X21240   3.967  -0.204  10.278  0.2425  1.5777  0.0460
  185SAPI   H3Y21241   4.079  -0.333  10.316 -0.1691  0.2388 -0.5688
  185SAPI   C3421242   4.175  -0.144  10.269 -0.3580 -0.6967  0.7588
  185SAPI   H4X21243   4.259  -0.155  10.341 -0.2529  1.2915  0.9864
  185SAPI   H4Y21244   4.150  -0.036  10.274 -1.4662 -0.8274 -1.1214
  185SAPI   C3521245   4.224  -0.187  10.133  0.1594 -0.3962 -1.0062
  185SAPI   H5X21246   4.264  -0.288  10.113  1.2725 -0.4264  1.0883
  185SAPI   H5Y21247   4.299  -0.109  10.104  1.2196  0.0220  2.4505
  185SAPI   C3621248   4.100  -0.172  10.044 -0.0903 -0.2826  0.4086
  185SAPI   H6X21249   4.033  -0.091  10.080 -1.3129 -0.2465 -1.8097
  185SAPI   H6Y21250   4.031  -0.259  10.048 -0.9169  0.0785 -2.9767
  185SAPI   C3721251   4.115  -0.153   9.889  0.3954 -0.1035  0.5790
  185SAPI   H7X21252   4.162  -0.055   9.864 -1.5067  0.9723  1.0037
  185SAPI   H7Y21253   4.017  -0.143   9.837 -0.3530  0.9674  2.0839
  185SAPI   C3821254   4.199  -0.266   9.829  0.5424  0.4535 -0.3036
  185SAPI   H8X21255   4.148  -0.360   9.858 -0.6872  0.8658 -1.0577
  185SAPI   H8Y21256   4.301  -0.277   9.874  0.2821  0.4732  0.3026
  185SAPI   C3921257   4.207  -0.259   9.673  0.0954  0.0105  0.1062
  185SAPI   H9X21258   4.289  -0.319   9.628  1.0523  1.1824  0.2423
  185SAPI   H9Y21259   4.221  -0.154   9.640  1.6453  0.3603  1.7209
  185SAPI  C31021260   4.077  -0.328   9.622  0.3358  0.1569  1.0225
  185SAPI  H10X21261   3.989  -0.293   9.679  0.7798  0.5948  1.4519
  185SAPI  H10Y21262   4.070  -0.435   9.648 -2.3116  0.0785  0.2419
  185SAPI  C31121263   4.067  -0.315   9.469  0.5044  0.2751  0.2392
  185SAPI  H11X21264   4.152  -0.378   9.434  0.5351  0.4265  0.0417
  185SAPI  H11Y21265   4.072  -0.213   9.426 -0.0439  0.7123  1.1860
  185SAPI  C31221266   3.934  -0.381   9.424  0.4173 -0.5004  0.2625
  185SAPI  H12X21267   3.864  -0.325   9.490  1.1034 -0.1024  0.6550
  185SAPI  H12Y21268   3.932  -0.486   9.461  1.0641 -0.1716  1.2679
  185SAPI  C31321269   3.914  -0.380   9.275  0.0267 -0.9871  0.3272
  185SAPI  H13X21270   3.909  -0.273   9.243  0.0055 -0.3654  2.2538
  185SAPI  H13Y21271   3.818  -0.429   9.248  0.6323 -1.7123 -0.5521
  185SAPI  C31421272   4.029  -0.448   9.203  0.4563 -0.4566 -0.5945
  185SAPI  H14X21273   4.042  -0.548   9.249 -2.6208 -1.3107 -1.3614
  185SAPI  H14Y21274   4.120  -0.385   9.213  0.5493 -0.9534  3.2228
  185SAPI  C31521275   4.008  -0.465   9.056 -0.3582 -0.7210 -0.3135
  185SAPI  H15X21276   4.105  -0.481   9.006 -1.3365 -0.0788 -2.5565
  185SAPI  H15Y21277   3.960  -0.378   9.004  1.3326 -0.0835 -0.8627
  185SAPI  C31621278   3.919  -0.584   9.015  0.1825  0.0302 -0.4590
  185SAPI  H16X21279   3.817  -0.568   9.054 -0.3789  0.8936 -2.1537
  185SAPI  H16Y21280   3.945  -0.675   9.074 -0.1608  1.5375  2.1621
  185SAPI  C31721281   3.917  -0.601   8.864  0.4349  0.2119 -0.5461
  185SAPI  H17X21282   4.025  -0.627   8.857  0.6439  0.9757 -0.2536
  185SAPI  H17Y21283   3.909  -0.507   8.805  1.3265 -0.4717 -1.7923
  185SAPI  C31821284   3.821  -0.713   8.817 -0.7416 -0.0206 -0.7122
  185SAPI  H18X21285   3.835  -0.717   8.707 -0.5334 -2.3600 -0.6582
  185SAPI  H18Y21286   3.720  -0.674   8.844  0.0830  3.2368 -1.8518
  185SAPI  H18Z21287   3.840  -0.811   8.867  0.7796  0.0857 -1.0459
  186SAPI   C1221288   2.234   6.752  10.781  0.1307 -0.0862  0.7881
  186SAPI    H221289   2.140   6.713  10.825  1.1199 -3.4728  0.1638
  186SAPI    O221290   2.198   6.854  10.691 -1.5156  0.3902  0.6451
  186SAPI   HO221291   2.211   6.822  10.602 -3.1623  0.5008  0.3267
  186SAPI   C1321292   2.312   6.821  10.889  0.0558  0.2318  0.0095
  186SAPI    H321293   2.340   6.747  10.968  2.2232  0.5760 -0.3680
  186SAPI    O321294   2.230   6.909  10.966 -0.6343  0.1229  0.0911
  186SAPI   HO321295   2.184   6.952  10.894 -1.5810 -1.6111 -0.4101
  186SAPI   C1421296   2.440   6.887  10.846 -0.2173 -0.0570 -0.0059
  186SAPI    H421297   2.413   6.961  10.767 -0.2724  0.2808  0.3264
  186SAPI    O421298   2.511   6.943  10.955  0.1700  0.3970 -0.0802
  186SAPI   HO421299   2.568   7.007  10.911  0.5554 -1.7526 -2.9843
  186SAPI   C1521300   2.529   6.791  10.780  0.2062  0.3904 -0.3008
  186SAPI    H521301   2.558   6.714  10.855 -0.0201 -0.2354 -0.8535
  186SAPI    O521302   2.650   6.853  10.739 -0.2111  0.8855  0.3762
  186SAPI   HO521303   2.725   6.839  10.797  0.4144  1.2238 -0.3398
  186SAPI   C1621304   2.459   6.710  10.677 -0.3969  0.4615 -0.5458
  186SAPI    H621305   2.427   6.785  10.601 -2.4574  2.0888  1.7606
  186SAPI    O621306   2.556   6.615  10.621 -0.5896  0.1425  0.0871
  186SAPI   HO621307   2.504   6.564  10.559 -0.1766  0.9043 -0.9358
  186SAPI   C1121308   2.325   6.642  10.727  0.4620 -0.1363  0.2608
  186SAPI    H121309   2.346   6.568  10.808  0.9022  1.6858  1.9013
  186SAPI     P21310   2.143   6.475  10.618 -0.1894 -0.1120  0.1547
  186SAPI   O1321311   2.152   6.405  10.756  0.1135  0.2747  0.1645
  186SAPI   O1421312   2.157   6.390  10.498 -0.2867 -0.0232 -0.0371
  186SAPI   O1221313   2.264   6.587  10.615  0.1032 -0.8290  0.2133
  186SAPI   O1121314   2.003   6.563  10.611 -0.3250 -0.7084  0.2870
  186SAPI    C121315   1.996   6.651  10.495 -0.4380 -0.0048  0.2068
  186SAPI    HA21316   1.912   6.721  10.516  0.0433  0.4935  0.4763
  186SAPI    HB21317   2.085   6.706  10.459 -0.3440  0.6967  1.4459
  186SAPI    C221318   1.940   6.583  10.366 -0.5762 -0.3762 -0.0501
  186SAPI    HS21319   2.005   6.501  10.331 -1.5978 -1.2659  0.1064
  186SAPI   O2121320   1.921   6.683  10.257  0.3912 -0.1987  0.0794
  186SAPI   C2121321   2.028   6.715  10.187  0.4124 -0.2838  0.0584
  186SAPI   O2221322   2.143   6.689  10.222 -0.3274  0.2106  0.4651
  186SAPI   C2221323   1.988   6.801  10.076  0.5290 -0.3743 -0.0691
  186SAPI   H2R21324   1.883   6.771  10.054  0.4013  0.0970 -0.1310
  186SAPI   H2S21325   1.995   6.907  10.110  0.3212 -0.1212 -0.7954
  186SAPI    C321326   1.812   6.516  10.416  0.6842  0.0507  0.4327
  186SAPI    HX21327   1.733   6.589  10.443 -3.2731 -2.9540 -1.9647
  186SAPI    HY21328   1.816   6.449  10.505  0.8692  0.5271  0.7853
  186SAPI   O3121329   1.747   6.451  10.299  0.2506  0.5022 -0.3678
  186SAPI   C3121330   1.754   6.315  10.295 -0.3408 -0.1785 -0.5226
  186SAPI   O3221331   1.810   6.238  10.376  0.3253 -0.4439  0.0063
  186SAPI   C3221332   1.679   6.274  10.169  0.4168 -0.4511 -0.8564
  186SAPI   H2X21333   1.719   6.316  10.075  2.4301  0.7724  0.4591
  186SAPI   H2Y21334   1.579   6.321  10.180  0.9337  0.4054  0.5723
  186SAPI   C2321335   2.061   6.798   9.940  0.1777 -0.0791 -0.6710
  186SAPI   H3R21336   1.991   6.829   9.859 -1.5881 -0.1728  0.7691
  186SAPI   H3S21337   2.098   6.694   9.928  1.7157  0.5136 -1.2675
  186SAPI   C2421338   2.198   6.869   9.931 -0.5921  0.1272 -0.7899
  186SAPI   H4R21339   2.235   6.850   9.828 -2.2893  1.1814 -1.6381
  186SAPI   H4S21340   2.265   6.830  10.011  1.0505  3.2752 -0.4897
  186SAPI   C2521341   2.174   7.017   9.939 -0.2365  0.7316  0.0305
  186SAPI   H5R21342   2.178   7.063  10.039  2.0488  1.9618 -0.5608
  186SAPI   C2621343   2.140   7.097   9.834  0.3203 -0.0903 -0.2935
  186SAPI   H6R21344   2.120   7.205   9.848  1.0267 -0.1107  0.9999
  186SAPI   C2721345   2.123   7.059   9.691  0.2344  0.5559  0.0381
  186SAPI   H7R21346   2.103   6.950   9.681 -1.2527  0.7381  0.8210
  186SAPI   H7S21347   2.225   7.066   9.648  0.2861  1.8605  0.3193
  186SAPI   C2821348   2.017   7.152   9.625  0.1262  0.3323 -0.1177
  186SAPI   H8R21349   1.956   7.225   9.680  0.4498  2.1918 -2.0953
  186SAPI   C2921350   1.998   7.147   9.493 -0.0523  0.4351 -0.5191
  186SAPI   H9R21351   1.927   7.208   9.435  0.5583  0.7321 -0.9571
  186SAPI  C21021352   2.059   7.042   9.406 -0.3924 -0.2518 -0.7154
  186SAPI  H10R21353   2.086   6.948   9.458  2.1404  0.4829 -0.5728
  186SAPI  H10S21354   2.160   7.071   9.370 -0.3598 -1.1697 -1.4198
  186SAPI  C21121355   1.985   7.009   9.281 -0.4781  0.5907  0.2245
  186SAPI  H11R21356   2.041   7.034   9.189  1.2076  0.0108  1.0555
  186SAPI  C21221357   1.862   6.950   9.279  0.0381  0.4745 -0.5026
  186SAPI  H12R21358   1.801   6.962   9.188 -1.8485  0.6087  0.7433
  186SAPI  C21321359   1.779   6.902   9.397  0.0114 -0.4584 -0.1892
  186SAPI  H13R21360   1.723   6.810   9.370  0.2626 -1.1803  1.6091
  186SAPI  H13S21361   1.696   6.971   9.422 -0.0764 -1.0828  1.3896
  186SAPI  C21421362   1.850   6.848   9.523  0.0836 -0.2679 -0.3848
  186SAPI  H14R21363   1.952   6.809   9.512 -0.5818 -1.5985 -2.6168
  186SAPI  C21521364   1.796   6.851   9.647 -0.2438 -0.1969  0.2284
  186SAPI  H15R21365   1.851   6.811   9.733 -1.3049 -2.5093 -0.0640
  186SAPI  C21621366   1.659   6.900   9.672  0.3718  0.5971 -0.0795
  186SAPI  H16R21367   1.597   6.828   9.728 -0.1265 -1.6350 -3.1973
  186SAPI  H16S21368   1.605   6.909   9.575 -0.5935 -4.4184 -0.2685
  186SAPI  C21721369   1.680   7.035   9.748 -0.2765  0.1578  1.2865
  186SAPI  H17R21370   1.586   7.094   9.751  0.6625  1.7747  0.2841
  186SAPI  H17S21371   1.733   7.112   9.688 -3.2059  0.7199 -0.7775
  186SAPI  C21821372   1.738   7.020   9.889  0.3019  0.1868  0.8262
  186SAPI  H18R21373   1.846   6.999   9.877  0.2115 -0.8305  1.6360
  186SAPI  H18S21374   1.685   6.945   9.952 -0.0203  0.1555  0.5190
  186SAPI  C21921375   1.718   7.158   9.957 -0.1592  0.1507 -0.4384
  186SAPI  H19R21376   1.609   7.179   9.961 -0.3829 -0.5974 -1.9866
  186SAPI  H19S21377   1.771   7.229   9.890  1.7881 -1.9393 -1.2512
  186SAPI  C22021378   1.779   7.167  10.091  0.1371 -0.5665 -1.2899
  186SAPI  H20R21379   1.890   7.155  10.092  0.2152  0.1042 -1.0101
  186SAPI  H20S21380   1.736   7.106  10.173  0.4518  1.7369  0.7185
  186SAPI  H20T21381   1.763   7.270  10.130 -1.1725 -2.2832  3.2808
  186SAPI   C3321382   1.684   6.124  10.153 -0.3864  0.1994 -0.3813
  186SAPI   H3X21383   1.643   6.071  10.242  0.6211 -0.3991 -0.2610
  186SAPI   H3Y21384   1.783   6.074  10.149 -0.1238  0.8252 -2.1417
  186SAPI   C3421385   1.607   6.090  10.020  0.4483 -0.5628  0.5780
  186SAPI   H4X21386   1.518   6.156  10.010  1.1390  0.0429 -2.6281
  186SAPI   H4Y21387   1.576   5.984  10.030  1.8666 -1.0367  0.2666
  186SAPI   C3521388   1.687   6.085   9.893 -0.1517  0.2589 -0.5116
  186SAPI   H5X21389   1.774   6.017   9.906 -0.4653 -0.3426 -1.4561
  186SAPI   H5Y21390   1.724   6.186   9.864  0.1433  0.8104  1.5867
  186SAPI   C3621391   1.602   6.028   9.780  0.9425  0.0543  0.1556
  186SAPI   H6X21392   1.509   6.088   9.774 -0.8983 -2.6645 -0.5009
  186SAPI   H6Y21393   1.576   5.923   9.805  1.9404  0.3414  2.6704
  186SAPI   C3721394   1.677   6.022   9.645 -0.4787  0.6014  0.1347
  186SAPI   H7X21395   1.766   5.957   9.657 -1.1185 -0.6672 -1.6334
  186SAPI   H7Y21396   1.700   6.127   9.615 -1.6699  0.6089 -0.8614
  186SAPI   C3821397   1.589   5.968   9.532  0.2652 -0.6312 -0.3239
  186SAPI   H8X21398   1.496   6.028   9.527  1.0515  0.9078  2.0175
  186SAPI   H8Y21399   1.559   5.862   9.551  3.3371 -1.5177  0.0825
  186SAPI   C3921400   1.666   5.960   9.402 -0.6615  0.5023 -0.1387
  186SAPI   H9X21401   1.730   5.870   9.412  0.7656  1.3582 -1.1949
  186SAPI   H9Y21402   1.726   6.049   9.373  0.1689  0.5350  1.5738
  186SAPI  C31021403   1.572   5.942   9.284  0.1326  0.3351 -0.3687
  186SAPI  H10X21404   1.521   6.040   9.276 -0.2766  0.2204  0.6500
  186SAPI  H10Y21405   1.491   5.869   9.305  0.2124  0.6676  1.2599
  186SAPI  C31121406   1.634   5.913   9.142  0.1548  0.1443 -0.8245
  186SAPI  H11X21407   1.559   5.917   9.060 -1.3412  1.6356  0.5540
  186SAPI  H11Y21408   1.670   5.807   9.140  3.7328  1.1638  0.8627
  186SAPI  C31221409   1.756   6.006   9.107  0.8608  0.2694  0.7666
  186SAPI  H12X21410   1.824   6.016   9.195 -0.0083  1.2113  1.3588
  186SAPI  H12Y21411   1.721   6.105   9.071 -0.7306 -1.3576 -2.5517
  186SAPI  C31321412   1.840   5.964   8.982 -0.0704  0.0187  0.2186
  186SAPI  H13X21413   1.859   5.855   8.995  0.5111  0.0059 -0.6402
  186SAPI  H13Y21414   1.940   6.012   8.986  0.4735 -1.1424  3.5321
  186SAPI  C31421415   1.768   5.982   8.846 -0.6762  1.5042 -0.5036
  186SAPI  H14X21416   1.750   6.091   8.834 -1.6112  1.4125 -0.0062
  186SAPI  H14Y21417   1.670   5.933   8.863 -0.4019  1.0809 -0.1346
  186SAPI  C31521418   1.854   5.930   8.728 -0.4323 -0.7098 -0.0446
  186SAPI  H15X21419   1.963   5.915   8.747 -0.4779 -0.2999  0.5581
  186SAPI  H15Y21420   1.856   6.017   8.658  1.3418 -1.9884 -1.7096
  186SAPI  C31621421   1.775   5.820   8.652 -0.0950  0.0650 -0.7802
  186SAPI  H16X21422   1.667   5.841   8.663 -0.4106 -2.5905  3.0390
  186SAPI  H16Y21423   1.803   5.729   8.709 -3.7449 -0.1120  0.9614
  186SAPI  C31721424   1.813   5.804   8.508  0.1558  0.0959  0.1181
  186SAPI  H17X21425   1.922   5.784   8.495  0.2574  2.0293 -3.0778
  186SAPI  H17Y21426   1.795   5.896   8.449  0.3738 -1.1458 -1.9883
  186SAPI  C31821427   1.724   5.695   8.444 -0.3390 -0.7694 -0.9859
  186SAPI  H18X21428   1.754   5.658   8.343 -0.5884 -3.2297 -0.2196
  186SAPI  H18Y21429   1.616   5.721   8.445  0.1290  1.4100  0.6964
  186SAPI  H18Z21430   1.733   5.609   8.513 -0.4801  0.4446  0.5886
  187SAPI   C1221431   6.479   6.255   6.247  0.1085  0.3514  0.3850
  187SAPI    H221432   6.432   6.192   6.168  1.5519  0.6601 -0.7622
  187SAPI    O221433   6.622   6.232   6.231  0.8734 -0.2762  0.4061
  187SAPI   HO221434   6.646   6.139   6.235  1.8304 -0.0719 -0.2201
  187SAPI   C1321435   6.440   6.403   6.238 -0.4871  0.3842 -0.0399
  187SAPI    H321436   6.329   6.404   6.242 -0.5396  0.3457 -1.1390
  187SAPI    O321437   6.479   6.448   6.113  0.1909  0.7049 -0.0183
  187SAPI   HO321438   6.565   6.408   6.104  0.3202  0.2237  2.5864
  187SAPI   C1421439   6.501   6.481   6.346  0.3646 -0.7798  0.5820
  187SAPI    H421440   6.611   6.470   6.328  0.7286  2.1764  0.5671
  187SAPI    O421441   6.472   6.627   6.357  0.1338  0.4092  0.6546
  187SAPI   HO421442   6.552   6.673   6.331  0.9151 -2.1124 -2.0255
  187SAPI   C1521443   6.466   6.418   6.478  0.1799  0.0232  0.7049
  187SAPI    H521444   6.357   6.433   6.490  0.4268  1.5868  1.2631
  187SAPI    O521445   6.514   6.494   6.595 -0.0453 -0.2463  0.1879
  187SAPI   HO521446   6.599   6.528   6.567  0.2045 -3.2860 -3.5235
  187SAPI   C1621447   6.490   6.269   6.494 -0.3075 -0.0365  0.2067
  187SAPI    H621448   6.601   6.267   6.501 -0.1856  0.7045 -1.1509
  187SAPI    O621449   6.443   6.233   6.615 -0.1135  0.2223  0.1966
  187SAPI   HO621450   6.478   6.290   6.684 -1.5291 -1.1170  2.1306
  187SAPI   C1121451   6.429   6.195   6.379  1.0011  0.2515  0.2027
  187SAPI    H121452   6.322   6.224   6.387  1.1537  0.6856  0.7439
  187SAPI     P21453   6.341   5.941   6.357  0.7490 -0.0009  0.0843
  187SAPI   O1321454   6.412   5.818   6.322  0.0354  0.6702 -0.3516
  187SAPI   O1421455   6.244   5.993   6.251 -0.4322  0.2537 -0.4778
  187SAPI   O1221456   6.458   6.057   6.399  0.0554 -0.1673  0.2134
  187SAPI   O1121457   6.253   5.911   6.486  0.2436  0.7385  0.5479
  187SAPI    C121458   6.277   5.966   6.611 -0.5090  0.1689 -0.6401
  187SAPI    HA21459   6.386   5.952   6.623 -0.4920 -0.3937 -1.3542
  187SAPI    HB21460   6.248   6.072   6.625  0.8969  0.3065  1.5853
  187SAPI    C221461   6.208   5.889   6.728  0.4089  0.2648  0.0337
  187SAPI    HS21462   6.098   5.905   6.729  0.2209 -0.9418  1.3208
  187SAPI   O2121463   6.263   5.941   6.847  0.2215 -0.0056 -0.5731
  187SAPI   C2121464   6.233   6.065   6.874  0.1085  0.1002 -0.3601
  187SAPI   O2221465   6.135   6.128   6.829 -0.0483  0.5898  0.2382
  187SAPI   C2221466   6.348   6.108   6.959 -0.0501 -0.1450 -0.9719
  187SAPI   H2R21467   6.348   6.219   6.963  0.2733 -0.1703  2.8068
  187SAPI   H2S21468   6.329   6.072   7.062 -0.2665  2.7364  0.0663
  187SAPI    C321469   6.230   5.738   6.736 -1.1699 -0.1138  0.0143
  187SAPI    HX21470   6.335   5.713   6.709 -1.9166 -2.2765 -1.1270
  187SAPI    HY21471   6.176   5.692   6.650 -0.2130 -1.7745  0.2659
  187SAPI   O3121472   6.208   5.668   6.865  0.4987  0.2396 -0.3154
  187SAPI   C3121473   6.077   5.661   6.891 -0.1645  0.2815  0.4092
  187SAPI   O3221474   5.989   5.681   6.810  0.1885  0.1956  0.1785
  187SAPI   C3221475   6.068   5.615   7.038  0.7814  0.5158 -1.2183
  187SAPI   H2X21476   6.133   5.679   7.100 -1.2162  1.9542 -0.5132
  187SAPI   H2Y21477   6.113   5.513   7.037  2.7277  1.3252 -0.5065
  187SAPI   C2321478   6.485   6.047   6.908  0.7019 -0.2216 -0.6232
  187SAPI   H3R21479   6.476   6.035   6.798 -1.7262 -1.5053 -0.3738
  187SAPI   H3S21480   6.488   5.944   6.950  3.0571  0.1095  0.1530
  187SAPI   C2421481   6.609   6.117   6.951  0.1905  0.7286 -0.0202
  187SAPI   H4R21482   6.603   6.142   7.059  1.5167 -1.1910  0.5617
  187SAPI   H4S21483   6.615   6.210   6.892  0.4238  0.7554  0.0460
  187SAPI   C2521484   6.723   6.017   6.922 -0.1845 -0.1366 -0.0343
  187SAPI   H5R21485   6.696   5.925   6.868  2.2268 -0.7551 -0.3218
  187SAPI   C2621486   6.841   6.023   6.980 -0.4649 -0.0544 -0.7674
  187SAPI   H6R21487   6.915   5.945   6.956 -0.4675 -0.5361  0.7004
  187SAPI   C2721488   6.894   6.124   7.082 -0.1094  0.4015  0.8988
  187SAPI   H7R21489   6.882   6.228   7.043  0.0449  1.0111  2.3810
  187SAPI   H7S21490   7.002   6.101   7.097 -0.4130 -0.4358  1.9275
  187SAPI   C2821491   6.818   6.126   7.211 -0.2671  0.7136  0.5400
  187SAPI   H8R21492   6.760   6.036   7.234 -1.2456  1.2144  0.1208
  187SAPI   C2921493   6.826   6.224   7.303 -1.1059  0.3285 -0.2025
  187SAPI   H9R21494   6.760   6.227   7.391 -2.3945  0.3345 -1.1429
  187SAPI  C21021495   6.902   6.351   7.282 -0.3538  0.3834  0.4251
  187SAPI  H10R21496   6.884   6.398   7.183  2.2018  1.0510  0.2042
  187SAPI  H10S21497   7.010   6.331   7.264 -0.9692 -0.7593 -2.6085
  187SAPI  C21121498   6.892   6.455   7.389 -0.0989 -0.0136 -0.4336
  187SAPI  H11R21499   6.833   6.545   7.364  0.4021  0.6755  0.7327
  187SAPI  C21221500   6.940   6.455   7.513  0.4690  0.1355  0.2034
  187SAPI  H12R21501   6.894   6.536   7.573 -1.4206  0.4302 -1.5250
  187SAPI  C21321502   7.030   6.354   7.578  0.4678  0.8477  0.4658
  187SAPI  H13R21503   7.124   6.402   7.612  1.0816 -0.4072  0.6137
  187SAPI  H13S21504   7.054   6.277   7.501 -1.6944 -0.6156  1.1664
  187SAPI  C21421505   6.952   6.287   7.688 -0.5002 -0.3868  0.2229
  187SAPI  H14R21506   6.860   6.233   7.659 -1.5095  1.5013 -0.2605
  187SAPI  C21521507   6.992   6.283   7.813 -0.3523 -0.0391  0.4580
  187SAPI  H15R21508   6.938   6.233   7.895 -0.2063  0.3313  0.7856
  187SAPI  C21621509   7.117   6.354   7.862 -0.0946  0.1895  0.4365
  187SAPI  H16R21510   7.111   6.459   7.826 -0.9982 -0.6793 -2.1968
  187SAPI  H16S21511   7.202   6.303   7.812 -2.4156 -4.3606  0.6546
  187SAPI  C21721512   7.131   6.352   8.007 -0.0198  0.2584  0.4249
  187SAPI  H17R21513   7.126   6.248   8.046  0.6698  0.0512 -0.0311
  187SAPI  H17S21514   7.050   6.402   8.065  0.9875  0.9936  1.2433
  187SAPI  C21821515   7.266   6.400   8.055  0.0163  0.1686 -0.6159
  187SAPI  H18R21516   7.293   6.494   8.002 -0.8905  0.6051 -0.3121
  187SAPI  H18S21517   7.335   6.316   8.031 -1.1013 -0.8504 -0.3584
  187SAPI  C21921518   7.267   6.414   8.206 -0.1775 -0.1361 -0.1034
  187SAPI  H19R21519   7.215   6.330   8.256 -0.1800  0.7517  1.4536
  187SAPI  H19S21520   7.213   6.507   8.233 -0.1803  0.0556 -0.7308
  187SAPI  C22021521   7.409   6.437   8.257 -0.2138 -0.4146  0.0800
  187SAPI  H20R21522   7.413   6.437   8.368  0.2061 -0.8924  0.0657
  187SAPI  H20S21523   7.442   6.539   8.228  1.4256 -0.6647  0.9502
  187SAPI  H20T21524   7.484   6.361   8.228  0.5906  0.8844 -1.3937
  187SAPI   C3321525   5.921   5.608   7.090 -0.1053 -0.1036  0.9178
  187SAPI   H3X21526   5.856   5.566   7.011 -0.1981 -1.7749  1.8457
  187SAPI   H3Y21527   5.880   5.711   7.101  0.2283  0.0857  0.4709
  187SAPI   C3421528   5.913   5.533   7.221  0.6158  0.7348 -0.8064
  187SAPI   H4X21529   5.963   5.594   7.299 -1.1463 -0.6446  1.5399
  187SAPI   H4Y21530   5.967   5.438   7.201 -0.4954 -0.5451  1.8112
  187SAPI   C3521531   5.768   5.498   7.254 -0.3152 -0.4371  0.2602
  187SAPI   H5X21532   5.731   5.426   7.178 -0.4261 -2.8143  2.4301
  187SAPI   H5Y21533   5.716   5.595   7.250  0.0349 -0.2827 -0.9078
  187SAPI   C3621534   5.750   5.433   7.387 -0.0479 -0.0852  0.2562
  187SAPI   H6X21535   5.805   5.336   7.385  0.4593  0.1978 -1.4727
  187SAPI   H6Y21536   5.641   5.416   7.400 -0.7721 -0.1706 -4.2534
  187SAPI   C3721537   5.802   5.512   7.503 -0.1319 -0.3191  0.3441
  187SAPI   H7X21538   5.742   5.604   7.521  1.3243  0.6662  0.2999
  187SAPI   H7Y21539   5.908   5.541   7.488 -0.1353 -0.5273 -0.0742
  187SAPI   C3821540   5.794   5.446   7.638 -0.4360  0.8262  0.1347
  187SAPI   H8X21541   5.858   5.355   7.639 -0.9468  0.4324  1.7930
  187SAPI   H8Y21542   5.690   5.413   7.658  0.3461 -1.6561  0.4370
  187SAPI   C3921543   5.825   5.537   7.760  0.0105  0.0614 -0.0567
  187SAPI   H9X21544   5.748   5.617   7.772 -0.9749 -1.1839  3.1784
  187SAPI   H9Y21545   5.920   5.589   7.739 -0.8996  1.1003 -1.7846
  187SAPI  C31021546   5.832   5.469   7.897 -0.7054  0.1105  0.6210
  187SAPI  H10X21547   5.919   5.400   7.895  0.2948  1.3436  0.3283
  187SAPI  H10Y21548   5.735   5.424   7.928  0.2573 -1.8475  1.0136
  187SAPI  C31121549   5.867   5.577   8.006  0.3244  0.2208  0.2862
  187SAPI  H11X21550   5.773   5.636   8.006  0.1351 -0.0076 -1.4617
  187SAPI  H11Y21551   5.956   5.630   7.965 -0.3699  0.3620 -1.0965
  187SAPI  C31221552   5.902   5.518   8.148  0.4980  0.5964  0.6008
  187SAPI  H12X21553   5.946   5.599   8.209  4.0706  0.3460 -1.3971
  187SAPI  H12Y21554   5.994   5.461   8.123  1.0474  1.5143  0.4816
  187SAPI  C31321555   5.805   5.422   8.216  0.6449  0.2330 -0.2214
  187SAPI  H13X21556   5.800   5.328   8.157  0.4502  0.1783 -0.1185
  187SAPI  H13Y21557   5.702   5.463   8.207  1.1700  1.3335 -1.7064
  187SAPI  C31421558   5.841   5.391   8.357  0.8463  0.2022 -0.0855
  187SAPI  H14X21559   5.950   5.380   8.373  1.0165  1.9365  0.1879
  187SAPI  H14Y21560   5.789   5.301   8.394  2.3348 -0.0458  1.5429
  187SAPI  C31521561   5.791   5.498   8.459  0.3331  0.0955 -0.6253
  187SAPI  H15X21562   5.864   5.581   8.461  0.3184  0.1023  1.4337
  187SAPI  H15Y21563   5.802   5.449   8.558  2.3242  0.4747 -0.6177
  187SAPI  C31621564   5.651   5.561   8.433  0.0366  0.2706  0.9967
  187SAPI  H16X21565   5.581   5.483   8.395 -0.3381  0.6591  0.8771
  187SAPI  H16Y21566   5.656   5.641   8.356  2.2214  0.2056  1.0309
  187SAPI  C31721567   5.585   5.622   8.556  0.3443 -0.4804 -0.3952
  187SAPI  H17X21568   5.643   5.713   8.581  0.4563 -0.9933  1.3389
  187SAPI  H17Y21569   5.614   5.560   8.644  1.4410  0.1253 -0.3140
  187SAPI  C31821570   5.426   5.625   8.558 -1.2905 -0.3544 -0.4625
  187SAPI  H18X21571   5.380   5.680   8.473  1.3649  1.7567 -0.6828
  187SAPI  H18Y21572   5.397   5.688   8.645  1.0712  0.8592 -0.4537
  187SAPI  H18Z21573   5.382   5.524   8.573  0.1040 -0.9615 -0.2653
  188SAPI   C1221574   5.378   4.792   6.818  0.2354 -1.0227  0.0003
  188SAPI    H221575   5.270   4.814   6.832  0.5870  0.6793  0.2835
  188SAPI    O221576   5.444   4.919   6.838 -0.0607 -0.5342 -0.0461
  188SAPI   HO221577   5.397   4.981   6.783 -0.1725  0.9914  1.6756
  188SAPI   C1321578   5.406   4.689   6.931 -0.2736 -0.4197  0.3581
  188SAPI    H321579   5.350   4.599   6.896 -2.4459  1.3618 -1.0036
  188SAPI    O321580   5.361   4.734   7.062  0.0698 -0.8720  0.7149
  188SAPI   HO321581   5.387   4.826   7.066  0.0644 -0.5673 -2.9226
  188SAPI   C1421582   5.556   4.656   6.927 -1.1450  0.0224 -0.3710
  188SAPI    H421583   5.612   4.748   6.951 -2.0436  0.4035  0.2859
  188SAPI    O421584   5.593   4.561   7.025 -0.0471 -0.3184 -0.2011
  188SAPI   HO421585   5.530   4.562   7.097  0.3773  1.8043  0.2094
  188SAPI   C1521586   5.607   4.612   6.788 -0.2019 -0.8484 -0.6277
  188SAPI    H521587   5.572   4.508   6.771 -1.7656 -0.1008 -2.2908
  188SAPI    O521588   5.745   4.608   6.789 -0.1514  0.0251  0.2360
  188SAPI   HO521589   5.769   4.540   6.852 -0.7865  0.4313  0.9275
  188SAPI   C1621590   5.551   4.709   6.676  0.7480 -0.3730  0.1512
  188SAPI    H621591   5.606   4.803   6.698 -1.0495  0.5414  0.9613
  188SAPI    O621592   5.586   4.657   6.550 -0.0926 -0.1324 -0.5403
  188SAPI   HO621593   5.506   4.661   6.497 -0.1683 -0.8347 -0.4857
  188SAPI   C1121594   5.405   4.744   6.682 -0.0976  0.7253  0.3418
  188SAPI    H121595   5.351   4.648   6.666 -0.8724  1.1362  0.4621
  188SAPI     P21596   5.294   4.782   6.437  0.1823 -0.3363 -0.4225
  188SAPI   O1321597   5.384   4.687   6.372 -0.3052  0.3939 -0.0026
  188SAPI   O1421598   5.256   4.907   6.364 -0.4657  0.9727  0.4452
  188SAPI   O1221599   5.360   4.838   6.583  0.6866 -0.1065 -0.7578
  188SAPI   O1121600   5.169   4.714   6.490  0.8726 -0.3113  0.2947
  188SAPI    C121601   5.046   4.708   6.419  1.3798 -0.1920 -0.0110
  188SAPI    HA21602   5.005   4.807   6.391  1.2204  0.3850  2.0842
  188SAPI    HB21603   5.063   4.652   6.325  1.1581  1.1392 -0.8693
  188SAPI    C221604   4.936   4.623   6.489 -0.1361  0.3077  0.1295
  188SAPI    HS21605   4.863   4.590   6.412 -1.9134 -2.9721  2.9501
  188SAPI   O2121606   4.870   4.695   6.593 -0.3958 -0.1724  0.0780
  188SAPI   C2121607   4.794   4.793   6.568 -0.0423 -0.3235 -0.5751
  188SAPI   O2221608   4.750   4.816   6.457 -0.1521 -0.4669  0.1337
  188SAPI   C2221609   4.764   4.874   6.697 -0.3226 -0.0933  0.6137
  188SAPI   H2R21610   4.861   4.913   6.735 -0.3293 -0.2827  0.8292
  188SAPI   H2S21611   4.704   4.962   6.663 -1.6853 -0.1709  2.6263
  188SAPI    C321612   4.994   4.489   6.545  0.2031  0.0529 -0.0427
  188SAPI    HX21613   5.078   4.508   6.615 -0.2205  0.2973  0.4032
  188SAPI    HY21614   5.039   4.428   6.463 -2.5301 -0.9356 -0.9072
  188SAPI   O3121615   4.899   4.409   6.623 -0.2651 -1.0073 -0.0537
  188SAPI   C3121616   4.932   4.287   6.659  0.6940  0.6533  0.2406
  188SAPI   O3221617   5.032   4.225   6.621 -0.5540  0.2647 -0.4610
  188SAPI   C3221618   4.813   4.224   6.745  0.1525  0.0623 -0.6846
  188SAPI   H2X21619   4.853   4.122   6.767  1.3427  0.2815 -1.7504
  188SAPI   H2Y21620   4.722   4.216   6.682 -1.6656 -1.6314  1.9348
  188SAPI   C2321621   4.702   4.805   6.822 -0.3287  0.5129  0.1045
  188SAPI   H3R21622   4.616   4.742   6.789  1.2327 -1.5830 -0.1359
  188SAPI   H3S21623   4.668   4.880   6.897 -1.5929  0.3903 -0.3210
  188SAPI   C2421624   4.798   4.720   6.905  0.1554  0.1761  0.5433
  188SAPI   H4R21625   4.881   4.782   6.945  0.4680 -0.0005  0.1731
  188SAPI   H4S21626   4.859   4.661   6.832  0.9328  0.3489  1.0398
  188SAPI   C2521627   4.733   4.629   7.006  0.5503 -0.0095  0.0408
  188SAPI   H5R21628   4.673   4.548   6.964 -0.9481  0.8842  0.3623
  188SAPI   C2621629   4.712   4.644   7.139  0.0686 -0.6680 -0.4314
  188SAPI   H6R21630   4.670   4.563   7.200 -0.1235 -2.6619 -3.0673
  188SAPI   C2721631   4.764   4.761   7.212  0.7080 -0.7006 -0.1423
  188SAPI   H7R21632   4.724   4.747   7.314 -1.0963 -1.2883 -0.8921
  188SAPI   H7S21633   4.723   4.852   7.164 -0.4665 -1.5349 -0.7881
  188SAPI   C2821634   4.920   4.759   7.210  1.1676 -0.2499 -0.1102
  188SAPI   H8R21635   4.976   4.702   7.134  1.5046  1.8702 -1.5394
  188SAPI   C2921636   4.992   4.798   7.314  0.2133  0.0917 -0.1446
  188SAPI   H9R21637   5.101   4.789   7.318  0.6714  4.0553  0.8607
  188SAPI  C21021638   4.941   4.855   7.448 -0.1968 -0.3891  0.1754
  188SAPI  H10R21639   4.838   4.893   7.436 -0.3269 -1.3290 -2.0066
  188SAPI  H10S21640   4.998   4.945   7.481  2.8943 -1.7538 -1.0220
  188SAPI  C21121641   4.940   4.751   7.559 -0.4949  0.6054 -0.0356
  188SAPI  H11R21642   5.037   4.703   7.580 -0.9116 -0.0849  0.3423
  188SAPI  C21221643   4.840   4.717   7.637  0.2006  0.1678  0.1415
  188SAPI  H12R21644   4.870   4.645   7.716  2.2613  2.6506  1.8106
  188SAPI  C21321645   4.701   4.768   7.633  0.1757  0.1463  0.5399
  188SAPI  H13R21646   4.631   4.681   7.629  1.6114 -1.0170 -0.5523
  188SAPI  H13S21647   4.686   4.820   7.536 -0.1919 -1.0202 -0.0604
  188SAPI  C21421648   4.679   4.843   7.759  0.3954 -0.1152 -0.0009
  188SAPI  H14R21649   4.721   4.944   7.749  3.5186 -1.1557  1.4459
  188SAPI  C21521650   4.616   4.812   7.872  0.8312 -0.5798 -0.7241
  188SAPI  H15R21651   4.611   4.887   7.952  0.3071 -1.9438  0.5634
  188SAPI  C21621652   4.551   4.687   7.898  0.6020 -0.1916  0.0788
  188SAPI  H16R21653   4.480   4.666   7.815 -0.9366  3.5350  0.2576
  188SAPI  H16S21654   4.487   4.707   7.986  0.5226 -0.9944  0.2130
  188SAPI  C21721655   4.649   4.572   7.935  0.1619 -0.4311  0.7537
  188SAPI  H17R21656   4.740   4.583   7.873  0.8852  0.0437  1.8700
  188SAPI  H17S21657   4.613   4.470   7.909  0.1655  0.1051 -1.6023
  188SAPI  C21821658   4.698   4.555   8.080  0.3290  0.5976  0.1919
  188SAPI  H18R21659   4.609   4.509   8.127 -1.5752  1.8306 -1.9702
  188SAPI  H18S21660   4.715   4.652   8.131  1.5406 -0.1660  1.2931
  188SAPI  C21921661   4.821   4.465   8.090 -0.4967  0.1967  0.1013
  188SAPI  H19R21662   4.905   4.512   8.035  0.2292 -0.5058  0.5883
  188SAPI  H19S21663   4.805   4.364   8.046  0.2303 -0.3358  1.0369
  188SAPI  C22021664   4.864   4.421   8.224  0.1614  0.1421  0.0056
  188SAPI  H20R21665   4.782   4.371   8.279  0.6150 -0.0422  0.5222
  188SAPI  H20S21666   4.914   4.502   8.282  0.1469 -0.4258  0.8260
  188SAPI  H20T21667   4.943   4.346   8.199  2.5607  2.7693 -0.8900
  188SAPI   C3321668   4.784   4.292   6.880  0.0023  0.0548 -0.0329
  188SAPI   H3X21669   4.769   4.401   6.864  0.9800  0.2034  0.0106
  188SAPI   H3Y21670   4.874   4.287   6.946  0.0839 -1.4254 -0.2209
  188SAPI   C3421671   4.666   4.240   6.960  0.7438  0.3516  0.1793
  188SAPI   H4X21672   4.578   4.217   6.897  0.3425 -1.2128  1.2458
  188SAPI   H4Y21673   4.622   4.310   7.034  0.0260  1.5920 -1.3632
  188SAPI   C3521674   4.705   4.107   7.029  0.1120  0.5035  0.6267
  188SAPI   H5X21675   4.748   4.040   6.952 -1.7004  0.3273 -0.2844
  188SAPI   H5Y21676   4.612   4.053   7.057  1.4408 -1.9723  0.5324
  188SAPI   C3621677   4.795   4.125   7.156 -0.4331 -0.4658 -0.0223
  188SAPI   H6X21678   4.892   4.161   7.115  0.0657 -1.5968  0.1224
  188SAPI   H6Y21679   4.809   4.023   7.198 -0.3592 -0.7815 -0.7936
  188SAPI   C3721680   4.752   4.221   7.263 -0.1321  0.4979  0.2233
  188SAPI   H7X21681   4.653   4.201   7.308  1.1914 -3.1523  1.9147
  188SAPI   H7Y21682   4.760   4.321   7.215  1.0192  0.4744  0.3333
  188SAPI   C3821683   4.847   4.224   7.390 -0.0021  0.3374  0.1052
  188SAPI   H8X21684   4.952   4.241   7.361  0.6135 -0.2758  1.8399
  188SAPI   H8Y21685   4.846   4.127   7.445 -0.6187 -0.1748 -0.7891
  188SAPI   C3921686   4.819   4.335   7.495 -0.0716  0.2459 -0.5541
  188SAPI   H9X21687   4.742   4.314   7.572  0.3828 -1.8248 -0.6146
  188SAPI   H9Y21688   4.791   4.425   7.436 -1.6440 -0.9405 -1.7046
  188SAPI  C31021689   4.947   4.362   7.578 -0.0681 -0.2739  0.4770
  188SAPI  H10X21690   4.969   4.471   7.575 -0.5763 -0.1983 -1.1304
  188SAPI  H10Y21691   5.030   4.304   7.532  1.3865  1.2331  1.1104
  188SAPI  C31121692   4.934   4.315   7.725  0.2470  0.2960 -0.0209
  188SAPI  H11X21693   4.942   4.205   7.736 -1.1811  0.2890  1.2980
  188SAPI  H11Y21694   4.829   4.336   7.753 -0.7722  0.5152 -3.5575
  188SAPI  C31221695   5.035   4.383   7.817  0.0818  0.1519 -0.1441
  188SAPI  H12X21696   5.043   4.329   7.913 -1.6855  2.5655  1.4705
  188SAPI  H12Y21697   4.995   4.483   7.845 -0.5148 -0.1013 -0.0745
  188SAPI  C31321698   5.178   4.387   7.765  0.5623  0.3800 -1.0861
  188SAPI  H13X21699   5.178   4.427   7.662 -2.3592  3.1532 -0.1912
  188SAPI  H13Y21700   5.213   4.282   7.776  0.4054  0.5225  1.6234
  188SAPI  C31421701   5.267   4.455   7.871  0.2352 -0.5970  0.3594
  188SAPI  H14X21702   5.263   4.411   7.973 -1.2576 -0.1974  0.5004
  188SAPI  H14Y21703   5.228   4.555   7.899  0.1101 -0.7360  0.6902
  188SAPI  C31521704   5.416   4.456   7.832 -0.4316  0.2479 -0.0422
  188SAPI  H15X21705   5.440   4.505   7.735 -0.6829 -3.3944 -2.1265
  188SAPI  H15Y21706   5.449   4.350   7.824 -1.4227 -0.1009  0.3304
  188SAPI  C31621707   5.512   4.502   7.942  0.2094  0.8440 -0.4432
  188SAPI  H16X21708   5.484   4.601   7.985  0.0248  0.8014 -0.4659
  188SAPI  H16Y21709   5.612   4.509   7.895  0.8375 -1.3476  0.4458
  188SAPI  C31721710   5.521   4.398   8.067  0.4031 -0.3673  0.3749
  188SAPI  H17X21711   5.534   4.293   8.031 -1.3679 -0.3917 -0.2973
  188SAPI  H17Y21712   5.426   4.391   8.124  0.6182 -2.3785  0.5790
  188SAPI  C31821713   5.635   4.452   8.158  0.1205  0.6014  0.5435
  188SAPI  H18X21714   5.723   4.474   8.094 -1.3504  1.9850 -1.0785
  188SAPI  H18Y21715   5.652   4.383   8.244 -0.0868  1.1176  1.0065
  188SAPI  H18Z21716   5.608   4.550   8.203 -2.9030 -0.6552  1.7386
  189POPC     N21717   0.709   0.333  11.151  0.9913  0.7769  0.4152
  189POPC   C1221718   0.691   0.384  11.011 -0.5254 -1.4045 -0.3077
  189POPC  H12A21719   0.749   0.475  10.999 -0.8274 -1.0492  0.8571
  189POPC  H12B21720   0.589   0.407  10.985 -0.1894 -0.3593 -0.7617
  189POPC   C1321721   0.693   0.443  11.254  0.4076  0.1301  0.7555
  189POPC  H13A21722   0.604   0.503  11.241  1.2176  1.4019  0.9270
  189POPC  H13B21723   0.685   0.399  11.352  1.4127 -0.2191  0.6920
  189POPC  H13C21724   0.782   0.505  11.261 -0.4038  1.3439  0.6856
  189POPC   C1421725   0.601   0.226  11.172 -0.3806  0.6679  0.6197
  189POPC  H14A21726   0.616   0.154  11.092 -2.4798  0.9320 -0.0862
  189POPC  H14B21727   0.616   0.188  11.271  2.5952  0.0317  0.0180
  189POPC  H14C21728   0.506   0.272  11.145 -0.9951 -1.8176 -2.0571
  189POPC   C1521729   0.844   0.270  11.172 -0.3416 -0.6092 -0.2618
  189POPC  H15A21730   0.857   0.228  11.271 -1.1110 -0.3109 -0.0280
  189POPC  H15B21731   0.914   0.347  11.143  0.0120  0.0131  2.0626
  189POPC  H15C21732   0.858   0.194  11.096 -0.9560  0.5031 -1.5305
  189POPC   C1121733   0.730   0.290  10.892  0.2182 -0.5127  0.7361
  189POPC  H11A21734   0.838   0.265  10.902  0.2301 -0.5801  0.4289
  189POPC  H11B21735   0.722   0.355  10.803  3.9174 -1.3457 -0.3613
  189POPC     P21736   0.520   0.145  10.846 -0.0071  0.5202 -0.2970
  189POPC   O1321737   0.441   0.262  10.877 -0.0878 -1.0329  0.1009
  189POPC   O1421738   0.482   0.027  10.915 -0.4641  0.1727  0.3225
  189POPC   O1221739   0.663   0.166  10.887 -0.7373 -0.1959  0.6978
  189POPC   O1121740   0.524   0.116  10.688  0.8237 -0.3863  0.5027
  189POPC    C121741   0.528   0.231  10.601 -0.0127  0.3277  0.0447
  189POPC    HA21742   0.619   0.230  10.537 -1.1779  1.3205 -1.6929
  189POPC    HB21743   0.544   0.326  10.656  1.9186  0.8779 -1.3384
  189POPC    C221744   0.413   0.242  10.501 -0.8605 -0.4314  0.2369
  189POPC    HS21745   0.325   0.281  10.556  0.0082  1.5787  0.2914
  189POPC   O2121746   0.372   0.120  10.437 -0.4938 -0.1545  0.0417
  189POPC   C2121747   0.262   0.125  10.363 -1.0037  0.0424 -0.1133
  189POPC   O2221748   0.181   0.213  10.364  0.1484 -1.2814 -0.3477
  189POPC   C2221749   0.238  -0.010  10.304 -0.6765  0.3046  0.3463
  189POPC   H2R21750   0.228  -0.086  10.384 -1.8415  0.4429  0.3546
  189POPC   H2S21751   0.333  -0.045  10.258 -0.4640 -1.9327  2.3474
  189POPC    C321752   0.447   0.359  10.403 -0.7090 -0.5203  0.5807
  189POPC    HX21753   0.483   0.444  10.465 -0.5663  0.4484 -0.7926
  189POPC    HY21754   0.363   0.408  10.349 -0.0459  0.8294  0.7402
  189POPC   O3121755   0.551   0.323  10.309  0.2280 -0.5707  0.0751
  189POPC   C3121756   0.511   0.287  10.189  0.3438 -0.6574  0.6805
  189POPC   O3221757   0.400   0.294  10.142  0.5264  0.0066  0.1083
  189POPC   C3221758   0.625   0.240  10.103  0.5057 -0.4700  0.3813
  189POPC   H2X21759   0.686   0.163  10.155  0.2053  1.1774  3.3953
  189POPC   H2Y21760   0.691   0.326  10.077 -1.1341  0.9701  0.7466
  189POPC   C2321761   0.117  -0.018  10.206 -0.3957 -0.6467  0.5818
  189POPC   H3R21762   0.141   0.037  10.113  0.4439  0.9291  1.7040
  189POPC   H3S21763   0.024   0.027  10.245  0.5039  0.3076  1.6927
  189POPC   C2421764   0.099  -0.162  10.157 -0.3681  0.1467 -0.4278
  189POPC   H4R21765   0.007  -0.178  10.096  0.5197 -1.5563 -1.4206
  189POPC   H4S21766   0.101  -0.222  10.250 -0.4088  1.4850  0.4638
  189POPC   C2521767   0.221  -0.203  10.065  0.4442  0.4977  0.3978
  189POPC   H5R21768   0.212  -0.302  10.016 -0.2167  0.9156 -0.3419
  189POPC   H5S21769   0.315  -0.208  10.124 -1.0406 -0.1821  2.8541
  189POPC   C2621770   0.262  -0.120   9.942  0.0900 -0.5008  0.3654
  189POPC   H6R21771   0.321  -0.197   9.888 -1.7441 -0.5883 -1.6827
  189POPC   H6S21772   0.331  -0.037   9.970  2.5333 -0.7728 -3.9814
  189POPC   C2721773   0.159  -0.091   9.839  0.3969 -0.4811  0.8519
  189POPC   H7R21774   0.091  -0.011   9.876 -0.3002 -0.8431  0.3786
  189POPC   H7S21775   0.096  -0.181   9.820  0.1281 -0.0092 -0.6419
  189POPC   C2821776   0.203  -0.043   9.692  0.2819 -0.8668  0.3003
  189POPC   H8R21777   0.115  -0.053   9.624  0.4668 -1.1902  0.1086
  189POPC   H8S21778   0.284  -0.107   9.651 -0.4632 -1.5000 -0.2138
  189POPC   C2921779   0.258   0.095   9.675  0.3670 -0.2181  0.0340
  189POPC   H9121780   0.272   0.133   9.778 -1.7014 -0.5378  0.4826
  189POPC  C21021781   0.292   0.172   9.572 -0.2057 -0.8200 -0.2918
  189POPC  H10121782   0.345   0.259   9.613 -1.0898 -1.2453  1.8383
  189POPC  C21121783   0.283   0.148   9.424 -0.2481  0.0088  0.2550
  189POPC  H11R21784   0.386   0.123   9.391 -0.1170  0.0407  0.6324
  189POPC  H11S21785   0.246   0.238   9.370 -2.1879 -1.3921 -0.8413
  189POPC  C21221786   0.206   0.022   9.371  0.1401  0.1492 -0.1049
  189POPC  H12R21787   0.100   0.034   9.402  0.0221 -1.6001  0.2623
  189POPC  H12S21788   0.260  -0.068   9.406  4.7748  2.5054 -0.3531
  189POPC  C21321789   0.192   0.018   9.223 -0.3587  0.2680  0.3755
  189POPC  H13R21790   0.172   0.123   9.190 -0.9788 -0.3082 -1.1527
  189POPC  H13S21791   0.110  -0.044   9.180 -0.5917 -1.0132  2.5560
  189POPC  C21421792   0.314  -0.031   9.151  0.1893 -0.1719  0.0361
  189POPC  H14R21793   0.362  -0.123   9.191 -0.4093  0.5405  2.6073
  189POPC  H14S21794   0.404   0.030   9.174  0.2811 -0.2588 -0.0902
  189POPC  C21521795   0.284  -0.037   9.006 -0.1285 -0.0642  0.3051
  189POPC  H15R21796   0.364   0.012   8.947  1.6225 -1.0644  1.7662
  189POPC  H15S21797   0.192   0.020   8.980 -0.4942 -0.4102  0.8166
  189POPC  C21621798   0.264  -0.182   8.958  0.2858 -0.0143  0.2545
  189POPC  H16R21799   0.190  -0.232   9.024 -1.6853  0.8318 -1.2140
  189POPC  H16S21800   0.353  -0.246   8.980 -0.7457 -0.8874  2.0594
  189POPC  C21721801   0.208  -0.193   8.815 -0.2496 -0.4318 -0.5909
  189POPC  H17R21802   0.131  -0.113   8.799 -0.8409 -0.5782  1.2483
  189POPC  H17S21803   0.145  -0.284   8.804 -0.9961  0.2161 -1.9821
  189POPC  C21821804   0.315  -0.187   8.704  0.5997 -0.2437  0.1733
  189POPC  H18R21805   0.378  -0.097   8.720  1.0073 -0.3979 -0.4975
  189POPC  H18S21806   0.266  -0.193   8.604  1.3180 -0.0898 -0.1919
  189POPC  H18T21807   0.381  -0.276   8.705  0.5077 -0.3680  3.0929
  189POPC   C3321808   0.581   0.179   9.964 -0.1340  0.4774  0.3102
  189POPC   H3X21809   0.531   0.261   9.908 -1.0600 -1.0643 -1.2248
  189POPC   H3Y21810   0.504   0.099   9.971  1.0975 -1.0087 -1.8697
  189POPC   C3421811   0.701   0.124   9.888  0.4444 -0.0255  0.2439
  189POPC   H4X21812   0.731   0.031   9.939 -1.8730 -1.4248 -0.7884
  189POPC   H4Y21813   0.784   0.198   9.879  0.9931 -0.6367  0.2590
  189POPC   C3521814   0.653   0.082   9.746  0.1603 -1.2667  1.0470
  189POPC   H5X21815   0.553   0.036   9.760  0.2426 -1.6894  0.2600
  189POPC   H5Y21816   0.724   0.001   9.721  1.7229  0.2083  0.5301
  189POPC   C3621817   0.661   0.195   9.636 -0.4828 -0.4432 -0.2743
  189POPC   H6X21818   0.763   0.237   9.653 -1.3059  2.1200 -1.2498
  189POPC   H6Y21819   0.593   0.281   9.653 -0.3157 -0.3451 -0.0980
  189POPC   C3721820   0.661   0.142   9.496  0.4623 -0.4302  0.0744
  189POPC   H7X21821   0.568   0.082   9.486 -0.1188  0.8050 -2.7968
  189POPC   H7Y21822   0.755   0.088   9.470  1.8536  1.2104  1.4476
  189POPC   C3821823   0.649   0.254   9.386 -0.3247 -0.4447 -0.6230
  189POPC   H8X21824   0.737   0.319   9.406 -1.2947  0.6849  0.1494
  189POPC   H8Y21825   0.559   0.319   9.396 -0.3756 -0.4217 -1.2256
  189POPC   C3921826   0.662   0.191   9.247 -0.4261 -0.2992  0.4659
  189POPC   H9X21827   0.575   0.123   9.240 -0.9594  0.2933  1.2181
  189POPC   H9Y21828   0.750   0.129   9.221 -0.7067 -1.4554  2.1381
  189POPC  C31021829   0.641   0.296   9.143 -0.3727 -0.2501 -0.0345
  189POPC  H10X21830   0.706   0.385   9.159 -0.7577 -0.0499  0.4325
  189POPC  H10Y21831   0.537   0.330   9.162  0.2865  0.8427  1.8572
  189POPC  C31121832   0.646   0.239   9.002  0.2092  0.0654  0.7739
  189POPC  H11X21833   0.565   0.165   8.988 -1.9463  2.5195 -0.6726
  189POPC  H11Y21834   0.745   0.192   8.981  1.1279  2.2894 -0.2864
  189POPC  C31221835   0.628   0.340   8.886 -0.7486 -0.2198 -0.4023
  189POPC  H12X21836   0.645   0.292   8.787  2.9496 -0.1793  0.0589
  189POPC  H12Y21837   0.704   0.421   8.893 -1.3277  0.2208  1.2191
  189POPC  C31321838   0.502   0.423   8.891  0.3791  0.0423 -0.1038
  189POPC  H13X21839   0.506   0.494   8.805 -1.1082 -0.9153 -0.9850
  189POPC  H13Y21840   0.502   0.472   8.991  1.3092 -0.5448  0.2009
  189POPC  C31421841   0.374   0.339   8.884 -0.1287 -1.0409 -0.2544
  189POPC  H14X21842   0.289   0.411   8.888  0.7908  0.0407  0.4314
  189POPC  H14Y21843   0.345   0.261   8.957 -1.6215 -0.1533  0.1351
  189POPC  C31521844   0.352   0.274   8.745 -0.0402  0.4440  0.6289
  189POPC  H15X21845   0.410   0.179   8.739  0.2291  0.6575 -0.3351
  189POPC  H15Y21846   0.388   0.343   8.666 -0.2232 -0.1246  0.0400
  189POPC  C31621847   0.203   0.242   8.718 -0.6290  0.3396 -0.0763
  189POPC  H16X21848   0.159   0.186   8.804  1.0202 -0.9078  0.0095
  189POPC  H16Y21849   0.187   0.183   8.625 -0.9111  0.9798 -0.4400
  189POPC  H16Z21850   0.141   0.334   8.722  1.4323  1.7707  3.4991
  190POPC     N21851   2.263   1.455  11.292  0.4816  1.0799  0.2023
  190POPC   C1221852   2.115   1.467  11.279  0.2174  0.4474  0.2881
  190POPC  H12A21853   2.098   1.565  11.322  2.3717  1.1185 -0.2507
  190POPC  H12B21854   2.069   1.388  11.336 -0.8077  2.0180  1.7287
  190POPC   C1321855   2.312   1.445  11.433 -0.7474 -0.2253 -0.4534
  190POPC  H13A21856   2.295   1.542  11.478 -0.5786 -0.3838 -0.0463
  190POPC  H13B21857   2.259   1.362  11.477 -0.8298  0.0013 -0.1195
  190POPC  H13C21858   2.417   1.420  11.432 -0.1399  2.1150 -0.7058
  190POPC   C1421859   2.306   1.326  11.218 -0.1161 -1.1135 -0.6550
  190POPC  H14A21860   2.259   1.241  11.265 -0.4938 -1.0919 -0.9878
  190POPC  H14B21861   2.275   1.323  11.114  0.9813  0.7741 -1.0816
  190POPC  H14C21862   2.411   1.304  11.232 -0.0492  0.7774  2.6043
  190POPC   C1521863   2.336   1.565  11.235 -0.1075 -0.6357  0.3312
  190POPC  H15A21864   2.440   1.538  11.224  0.4424  1.2688  0.3601
  190POPC  H15B21865   2.325   1.665  11.276  3.4883  1.3721 -2.9200
  190POPC  H15C21866   2.301   1.583  11.134  0.6996  0.6706  0.2575
  190POPC   C1121867   2.048   1.480  11.142  0.4468  0.0828 -0.0533
  190POPC  H11A21868   1.939   1.463  11.156  0.8249 -4.3457 -1.1148
  190POPC  H11B21869   2.074   1.399  11.070 -2.6598 -0.4490 -0.7185
  190POPC     P21870   2.036   1.635  10.938  0.1975 -0.2153 -0.0743
  190POPC   O1321871   2.120   1.552  10.852  0.6321  0.1023 -0.4605
  190POPC   O1421872   2.036   1.781  10.909  0.3710 -0.0650 -0.1752
  190POPC   O1221873   2.080   1.610  11.087 -0.0363  0.1084 -0.0284
  190POPC   O1121874   1.884   1.581  10.940 -0.7812 -0.6968  0.1083
  190POPC    C121875   1.842   1.485  10.846 -0.4613  0.5037  0.1852
  190POPC    HA21876   1.762   1.423  10.891 -1.2612  0.7389 -0.8642
  190POPC    HB21877   1.924   1.424  10.804 -0.8782  0.3941 -0.4864
  190POPC    C221878   1.760   1.542  10.736 -0.1965 -0.4786  0.5487
  190POPC    HS21879   1.741   1.454  10.671  0.7387 -1.8022  1.9996
  190POPC   O2121880   1.835   1.645  10.672  0.1725  0.6571 -0.2214
  190POPC   C2121881   1.901   1.611  10.565 -0.2811 -0.5566 -0.0607
  190POPC   O2221882   1.913   1.502  10.516  0.9376 -0.1799  0.0174
  190POPC   C2221883   1.984   1.726  10.518 -0.4105  0.7546 -0.4306
  190POPC   H2R21884   2.076   1.697  10.462 -0.7579 -0.2168 -0.5338
  190POPC   H2S21885   2.026   1.777  10.607 -0.7652 -2.2914  1.6417
  190POPC    C321886   1.631   1.606  10.773  0.2049 -0.4907 -0.4432
  190POPC    HX21887   1.660   1.705  10.813  3.1343 -0.2846 -2.7829
  190POPC    HY21888   1.577   1.537  10.842 -1.7504 -0.5037 -1.8986
  190POPC   O3121889   1.558   1.619  10.649  0.1097  0.7786  0.3009
  190POPC   C3121890   1.489   1.726  10.638  0.6523  0.1390  0.5935
  190POPC   O3221891   1.461   1.806  10.723  0.3736 -0.3514  0.1726
  190POPC   C3221892   1.427   1.729  10.498 -0.0333  0.2782 -0.7940
  190POPC   H2X21893   1.372   1.635  10.477 -0.2987  0.4969 -1.0701
  190POPC   H2Y21894   1.502   1.757  10.421  1.2244  1.1036  0.6482
  190POPC   C2321895   1.911   1.819  10.422 -0.4297  0.5128  0.0378
  190POPC   H3R21896   1.974   1.900  10.379 -0.3282 -0.1665 -1.1076
  190POPC   H3S21897   1.827   1.865  10.480 -0.1879  0.3838  0.4978
  190POPC   C2421898   1.833   1.749  10.305 -0.3092  0.5300 -0.3875
  190POPC   H4R21899   1.740   1.714  10.353 -0.7506  1.3598 -0.6146
  190POPC   H4S21900   1.894   1.660  10.278 -2.2277 -1.1009  0.3837
  190POPC   C2521901   1.794   1.844  10.190  0.0445  0.0707 -0.6889
  190POPC   H5R21902   1.723   1.796  10.120 -0.9110  0.4102  0.0152
  190POPC   H5S21903   1.889   1.865  10.136 -0.4797  1.9755 -0.9362
  190POPC   C2621904   1.741   1.978  10.248 -0.8838  1.1197 -0.7733
  190POPC   H6R21905   1.824   2.040  10.288  0.7837 -0.3641 -1.7661
  190POPC   H6S21906   1.670   1.959  10.331  0.0923  1.7710  0.2499
  190POPC   C2721907   1.680   2.065  10.139  0.9230 -0.0265  0.1380
  190POPC   H7R21908   1.741   2.030  10.052 -0.0203 -0.7075 -0.2707
  190POPC   H7S21909   1.697   2.172  10.163  3.7831 -0.8062  2.1922
  190POPC   C2821910   1.536   2.042  10.114  0.1598 -0.2232  0.2112
  190POPC   H8R21911   1.480   2.102  10.189  0.9649  1.0646 -0.2061
  190POPC   H8S21912   1.506   1.937  10.136 -2.8990  0.0224 -2.1661
  190POPC   C2921913   1.503   2.078   9.970 -0.2807  0.5709  0.7318
  190POPC   H9121914   1.511   2.183   9.939  0.3558  0.0906 -0.8342
  190POPC  C21021915   1.473   1.985   9.873 -0.5098 -0.2827 -0.1888
  190POPC  H10121916   1.460   2.029   9.773  2.2353 -2.0811 -1.4728
  190POPC  C21121917   1.465   1.842   9.885  0.1327  0.5471  0.5975
  190POPC  H11R21918   1.370   1.797   9.849  0.8917 -0.9864  0.4490
  190POPC  H11S21919   1.491   1.801   9.985  1.7089 -2.8482 -1.0447
  190POPC  C21221920   1.573   1.787   9.790 -0.8646 -0.1754  0.8057
  190POPC  H12R21921   1.551   1.678   9.786  1.4429 -0.6698  0.3717
  190POPC  H12S21922   1.675   1.793   9.834  0.1509  1.2432 -1.5562
  190POPC  C21321923   1.576   1.833   9.648  0.0465  0.0993  1.1141
  190POPC  H13R21924   1.668   1.814   9.589 -1.2569  0.8323 -1.3078
  190POPC  H13S21925   1.586   1.943   9.646  1.9387 -0.0479  0.7806
  190POPC  C21421926   1.443   1.796   9.575 -0.1043 -0.2245  0.2608
  190POPC  H14R21927   1.357   1.862   9.597 -0.6857 -0.9795  0.2752
  190POPC  H14S21928   1.418   1.695   9.612  1.6271 -2.0235 -3.0527
  190POPC  C21521929   1.437   1.793   9.422 -0.2929 -0.0354 -1.0971
  190POPC  H15R21930   1.480   1.892   9.394  0.6409 -0.4127 -1.0239
  190POPC  H15S21931   1.334   1.811   9.386  0.2496  0.3293 -2.5710
  190POPC  C21621932   1.510   1.683   9.350 -0.1888  0.1341 -0.8896
  190POPC  H16R21933   1.458   1.590   9.382  0.3412  1.1858  3.8890
  190POPC  H16S21934   1.618   1.676   9.378  0.2426  2.9378 -1.5364
  190POPC  C21721935   1.497   1.693   9.197  0.7899 -0.8725  0.0814
  190POPC  H17R21936   1.518   1.800   9.172 -0.3366 -1.0299 -1.7187
  190POPC  H17S21937   1.391   1.680   9.169 -0.6043  3.1018  2.5275
  190POPC  C21821938   1.587   1.607   9.103 -0.6219 -0.8884 -0.2014
  190POPC  H18R21939   1.676   1.665   9.073 -0.8765 -0.9533 -1.1037
  190POPC  H18S21940   1.540   1.590   9.004  2.9099 -0.8946 -2.0347
  190POPC  H18T21941   1.603   1.511   9.156  1.1598 -0.4927  0.0154
  190POPC   C3321942   1.322   1.849  10.483 -0.4279  0.5108 -0.6112
  190POPC   H3X21943   1.374   1.944  10.511  1.7705  0.4212 -3.9231
  190POPC   H3Y21944   1.232   1.836  10.548 -1.1153  1.8077 -1.2616
  190POPC   C3421945   1.260   1.867  10.345 -0.1708  0.5243 -0.4005
  190POPC   H4X21946   1.333   1.899  10.268  0.4391  1.8430  0.6952
  190POPC   H4Y21947   1.176   1.940  10.349 -0.6791 -0.0892  2.1903
  190POPC   C3521948   1.214   1.732  10.283 -0.2944 -0.6711 -0.1555
  190POPC   H5X21949   1.129   1.691  10.342 -1.0497  1.6539  0.4684
  190POPC   H5Y21950   1.300   1.663  10.285 -1.1120 -1.7793  3.3678
  190POPC   C3621951   1.158   1.741  10.138 -0.5272  0.0785 -0.3471
  190POPC   H6X21952   1.231   1.787  10.069 -0.0138  1.7048  1.2087
  190POPC   H6Y21953   1.067   1.805  10.132  0.7760  2.0464  0.1786
  190POPC   C3721954   1.132   1.600  10.078 -0.1566  0.2450 -0.1644
  190POPC   H7X21955   1.066   1.551  10.153 -2.0181 -0.1698 -1.9770
  190POPC   H7Y21956   1.228   1.546  10.068 -0.6093 -0.3956 -1.2955
  190POPC   C3821957   1.058   1.588   9.946  0.1857 -0.2340 -0.2502
  190POPC   H8X21958   0.956   1.630   9.960 -0.0313 -0.4874 -1.0368
  190POPC   H8Y21959   1.035   1.484   9.915 -0.0924 -1.3120  3.1526
  190POPC   C3921960   1.131   1.664   9.830 -0.4333 -0.1567  0.2718
  190POPC   H9X21961   1.233   1.632   9.800 -0.4228 -1.2429  1.4260
  190POPC   H9Y21962   1.127   1.772   9.855  1.4883  0.2419 -0.8948
  190POPC  C31021963   1.058   1.665   9.694  0.5090  0.4711 -0.2717
  190POPC  H10X21964   1.089   1.747   9.626 -1.7233  0.6652 -1.1337
  190POPC  H10Y21965   0.949   1.683   9.699  0.3308 -0.7477  0.9305
  190POPC  C31121966   1.064   1.524   9.633 -0.2054  0.3599 -0.0936
  190POPC  H11X21967   1.012   1.458   9.706  1.0875 -0.2524  0.3083
  190POPC  H11Y21968   1.169   1.488   9.622 -0.6315 -0.2757 -2.7435
  190POPC  C31221969   0.998   1.514   9.498 -0.4342 -0.0310  0.9310
  190POPC  H12X21970   0.898   1.562   9.490 -0.6856 -0.8357 -2.2685
  190POPC  H12Y21971   0.985   1.404   9.488  1.3268 -0.4181  2.2733
  190POPC  C31321972   1.095   1.557   9.383  0.2501  0.3662 -0.7809
  190POPC  H13X21973   1.171   1.633   9.413  1.8235 -0.7109 -1.8660
  190POPC  H13Y21974   1.032   1.602   9.303 -2.4901 -1.1642  0.3756
  190POPC  C31421975   1.145   1.438   9.312 -0.2528  0.3406  0.0379
  190POPC  H14X21976   1.176   1.354   9.378 -0.7624 -0.8869 -1.2288
  190POPC  H14Y21977   1.234   1.471   9.255  0.5316 -3.6627 -1.3847
  190POPC  C31521978   1.043   1.379   9.204 -0.1259  0.0436  0.1107
  190POPC  H15X21979   0.997   1.464   9.150 -2.8059 -0.6689  1.1096
  190POPC  H15Y21980   0.955   1.351   9.266  0.3235  1.3870  1.3976
  190POPC  C31621981   1.094   1.268   9.105 -0.4487 -0.1125  0.0123
  190POPC  H16X21982   1.151   1.189   9.158  1.4347  2.0289  1.3635
  190POPC  H16Y21983   1.167   1.317   9.035 -0.3101 -0.2994  0.0270
  190POPC  H16Z21984   1.017   1.221   9.040  0.1313  0.6906 -1.3132
  191POPC     N21985   2.134   1.453   6.056 -0.3383 -0.4562  0.3124
  191POPC   C1221986   2.085   1.369   6.179 -0.0843  0.3100 -0.7995
  191POPC  H12A21987   2.155   1.290   6.202  0.0996  0.9505  1.0075
  191POPC  H12B21988   2.001   1.310   6.146  0.3551 -1.1446  0.5414
  191POPC   C1321989   2.184   1.356   5.952 -0.4524  0.2343 -0.5890
  191POPC  H13A21990   2.281   1.313   5.971  0.1665  1.0983 -1.6900
  191POPC  H13B21991   2.114   1.277   5.931  1.9253 -2.0115 -0.6325
  191POPC  H13C21992   2.195   1.408   5.858 -1.0803  0.8632 -0.3223
  191POPC   C1421993   2.013   1.533   5.998  0.1276 -0.0838 -0.4740
  191POPC  H14A21994   1.947   1.469   5.942  0.5603 -1.8352  0.9175
  191POPC  H14B21995   1.968   1.578   6.085  2.1251 -0.7628  0.9978
  191POPC  H14C21996   2.046   1.609   5.930  0.7890  0.1488  0.0880
  191POPC   C1521997   2.239   1.552   6.084  0.2063  0.0143  0.2452
  191POPC  H15A21998   2.319   1.509   6.143  0.3909  1.0444  0.7749
  191POPC  H15B21999   2.207   1.639   6.141 -1.4234 -0.4878  0.1345
  191POPC  H15C22000   2.285   1.589   5.994  0.0909  2.2665  1.0362
  191POPC   C1122001   2.060   1.444   6.313 -0.8662  0.9468 -0.0577
  191POPC  H11A22002   2.159   1.460   6.361  0.1614  1.0844 -2.1140
  191POPC  H11B22003   1.996   1.380   6.377 -0.9667  0.1404 -0.9435
  191POPC     P22004   1.991   1.700   6.366  0.0799 -0.1938  0.1496
  191POPC   O1322005   1.884   1.780   6.314 -0.7618 -1.2258  0.0031
  191POPC   O1422006   2.126   1.758   6.350  0.0950  0.0830  0.0297
  191POPC   O1222007   1.985   1.558   6.289 -0.4329  0.1617 -0.0719
  191POPC   O1122008   1.970   1.668   6.519 -0.3306 -0.1329  0.1800
  191POPC    C122009   1.847   1.624   6.565  0.3422  0.1902  0.9260
  191POPC    HA22010   1.850   1.514   6.547  1.5815  0.5049 -1.1228
  191POPC    HB22011   1.759   1.666   6.512  0.4251  0.8661  1.3209
  191POPC    C222012   1.841   1.657   6.715 -0.8537  0.6258 -0.4976
  191POPC    HS22013   1.738   1.641   6.753  0.0239 -2.8518  0.8287
  191POPC   O2122014   1.879   1.792   6.734 -0.0910 -0.0447 -0.0257
  191POPC   C2122015   1.786   1.886   6.705 -0.4818 -0.1469 -0.1199
  191POPC   O2222016   1.673   1.866   6.673 -0.1440 -0.3217 -0.0690
  191POPC   C2222017   1.840   2.023   6.738  0.4644 -0.3545  1.6324
  191POPC   H2R22018   1.761   2.091   6.699  3.1711  1.8617 -0.4304
  191POPC   H2S22019   1.933   2.035   6.679 -1.3002  0.0139 -1.2266
  191POPC    C322020   1.940   1.562   6.790 -0.0016 -0.3767 -0.8134
  191POPC    HX22021   2.038   1.570   6.739  0.0450 -1.1517 -0.8683
  191POPC    HY22022   1.931   1.453   6.768  4.2763 -1.1049 -0.0148
  191POPC   O3122023   1.944   1.583   6.932 -0.1520 -0.2642 -0.5675
  191POPC   C3122024   2.043   1.662   6.975 -0.1973  0.1059  0.3315
  191POPC   O3222025   2.141   1.698   6.906 -0.0759 -0.0710 -0.2909
  191POPC   C3222026   2.029   1.687   7.125 -0.0465  0.1328  1.2318
  191POPC   H2X22027   2.020   1.588   7.173  0.6209 -1.0415 -0.9343
  191POPC   H2Y22028   1.935   1.744   7.142 -1.1265 -0.4313 -2.0603
  191POPC   C2322029   1.874   2.049   6.886  0.2546 -0.0382  0.0142
  191POPC   H3R22030   1.927   2.146   6.901 -0.0873 -0.1053  1.9027
  191POPC   H3S22031   1.940   1.972   6.932 -0.9220 -0.5808  0.8327
  191POPC   C2422032   1.748   2.059   6.966  0.3250 -0.2374 -0.3199
  191POPC   H4R22033   1.696   1.962   6.956 -0.0248  0.0520 -1.4889
  191POPC   H4S22034   1.700   2.153   6.932  2.0475  0.6790 -0.3862
  191POPC   C2522035   1.775   2.073   7.122 -0.2754  0.1295 -0.6668
  191POPC   H5R22036   1.844   2.159   7.135 -0.9620  0.9190 -2.0139
  191POPC   H5S22037   1.819   1.977   7.157 -3.2599 -1.4527 -0.8299
  191POPC   C2622038   1.647   2.093   7.207 -0.4341  0.2046  0.1631
  191POPC   H6R22039   1.565   2.058   7.141 -0.9320  1.1643  0.2549
  191POPC   H6S22040   1.627   2.202   7.222 -1.9657 -0.0325  0.0407
  191POPC   C2722041   1.668   2.019   7.341 -0.5568 -0.0814 -0.9354
  191POPC   H7R22042   1.676   1.913   7.310 -0.4630  0.0186 -1.2594
  191POPC   H7S22043   1.576   2.027   7.402 -0.4073  0.1859 -0.7428
  191POPC   C2822044   1.784   2.067   7.427 -0.2924 -0.5538  0.3717
  191POPC   H8R22045   1.880   2.067   7.370 -1.8666  3.0283 -2.7052
  191POPC   H8S22046   1.805   2.002   7.515  3.4784 -2.5509 -1.6899
  191POPC   C2922047   1.767   2.208   7.485 -0.5556  1.0993 -0.3820
  191POPC   H9122048   1.720   2.282   7.419 -0.8423  2.4502  1.2752
  191POPC  C21022049   1.809   2.258   7.602 -0.5840 -0.4058 -0.4537
  191POPC  H10122050   1.785   2.365   7.615 -2.4818 -0.6366 -1.6880
  191POPC  C21122051   1.889   2.182   7.709 -0.2706 -1.0139 -0.1295
  191POPC  H11R22052   1.996   2.209   7.694 -0.5408  0.2890  0.1571
  191POPC  H11S22053   1.885   2.075   7.683 -0.2110 -0.9068 -0.5963
  191POPC  C21222054   1.846   2.217   7.853 -0.3038 -0.1035  0.5469
  191POPC  H12R22055   1.924   2.184   7.924  0.2438 -0.5424 -0.2438
  191POPC  H12S22056   1.751   2.167   7.883 -0.5030  0.1505  0.3456
  191POPC  C21322057   1.829   2.364   7.877 -0.1867 -0.5083  0.0515
  191POPC  H13R22058   1.754   2.415   7.813 -1.1804  0.2850  1.7662
  191POPC  H13S22059   1.926   2.416   7.861 -1.3404  1.6898 -0.1737
  191POPC  C21422060   1.780   2.391   8.017 -0.3537  0.2523 -0.2807
  191POPC  H14R22061   1.859   2.366   8.092 -2.1688  1.1746  2.0787
  191POPC  H14S22062   1.698   2.319   8.040  0.3933 -0.4448  0.2759
  191POPC  C21522063   1.728   2.538   8.035 -0.0930  0.1744 -0.3691
  191POPC  H15R22064   1.646   2.559   7.963  0.1494  3.0658  0.0658
  191POPC  H15S22065   1.809   2.610   8.010 -1.3973  1.4744 -1.0170
  191POPC  C21622066   1.675   2.555   8.178  0.4786 -0.1268  0.8039
  191POPC  H16R22067   1.621   2.462   8.205 -0.1060 -0.0643 -0.1173
  191POPC  H16S22068   1.606   2.642   8.172 -0.7083 -1.0351  0.9117
  191POPC  C21722069   1.789   2.593   8.277 -0.2806  0.9156 -1.0147
  191POPC  H17R22070   1.846   2.670   8.220  0.3839  0.5770 -0.8206
  191POPC  H17S22071   1.853   2.504   8.295 -3.7720 -1.4955  0.5414
  191POPC  C21822072   1.735   2.637   8.419  0.3501 -0.0434  0.2973
  191POPC  H18R22073   1.675   2.559   8.471 -0.6947  0.7306  0.2740
  191POPC  H18S22074   1.668   2.719   8.385  0.3684 -0.6597 -1.3251
  191POPC  H18T22075   1.815   2.660   8.492  1.2950 -2.2299  0.0361
  191POPC   C3322076   2.152   1.754   7.188 -0.6394 -0.6868 -0.0221
  191POPC   H3X22077   2.241   1.742   7.122 -0.8349 -0.4400 -0.3315
  191POPC   H3Y22078   2.172   1.711   7.288 -3.5337 -0.3688  0.7850
  191POPC   C3422079   2.131   1.904   7.202  0.6301 -0.6109  0.6444
  191POPC   H4X22080   2.053   1.915   7.280 -0.1734  3.1153 -0.4780
  191POPC   H4Y22081   2.081   1.937   7.108  0.8232 -1.1427  0.3510
  191POPC   C3522082   2.255   1.984   7.232  0.3670  0.2021 -0.2965
  191POPC   H5X22083   2.229   2.092   7.234  0.0565  0.2161 -2.4579
  191POPC   H5Y22084   2.325   1.977   7.145  0.3800 -0.9618 -0.1975
  191POPC   C3622085   2.323   1.950   7.362 -0.0192 -0.1270 -0.3921
  191POPC   H6X22086   2.415   2.012   7.362  0.3037 -0.6033 -0.5763
  191POPC   H6Y22087   2.356   1.844   7.355 -1.1244 -0.4931 -0.3458
  191POPC   C3722088   2.238   1.981   7.479 -0.1772  0.0304 -0.4566
  191POPC   H7X22089   2.159   1.904   7.475  0.6014 -0.7112 -2.4309
  191POPC   H7Y22090   2.195   2.083   7.471  1.7659  0.8249 -1.3746
  191POPC   C3822091   2.322   1.980   7.611 -0.3455 -0.1480 -0.0489
  191POPC   H8X22092   2.411   1.914   7.616  1.1462  1.8550  1.8641
  191POPC   H8Y22093   2.245   1.939   7.679 -1.3545 -1.1204 -1.7204
  191POPC   C3922094   2.346   2.117   7.678  0.1142  0.0307  0.2686
  191POPC   H9X22095   2.250   2.167   7.699 -0.3830 -1.1746  0.9816
  191POPC   H9Y22096   2.405   2.184   7.612  0.1377 -1.8428 -1.7342
  191POPC  C31022097   2.425   2.105   7.803  0.2048 -0.7448 -0.2916
  191POPC  H10X22098   2.513   2.038   7.792  0.9924  0.0512  0.9306
  191POPC  H10Y22099   2.357   2.061   7.878 -1.2398 -0.1158 -1.1767
  191POPC  C31122100   2.457   2.255   7.861 -0.5098 -0.4950  0.3448
  191POPC  H11X22101   2.371   2.316   7.897  1.5619  3.9114 -1.3845
  191POPC  H11Y22102   2.503   2.312   7.777 -0.1241 -1.9511 -0.4503
  191POPC  C31222103   2.548   2.250   7.977 -0.2741 -0.2816 -0.3416
  191POPC  H12X22104   2.622   2.167   7.975  1.8945  1.4555  1.7835
  191POPC  H12Y22105   2.487   2.260   8.069  0.8653  1.5196  0.2811
  191POPC  C31322106   2.640   2.369   7.989 -0.1050  0.0259 -0.5251
  191POPC  H13X22107   2.597   2.468   7.959  0.1397  0.1802 -0.3656
  191POPC  H13Y22108   2.731   2.354   7.926 -0.5651  1.5463 -1.6249
  191POPC  C31422109   2.684   2.393   8.134 -0.4474 -0.1353 -0.4340
  191POPC  H14X22110   2.735   2.304   8.178 -0.0809  0.1300 -0.3191
  191POPC  H14Y22111   2.602   2.405   8.209  0.6696 -2.7758  1.4044
  191POPC  C31522112   2.776   2.508   8.152  0.0397  0.1759  0.3496
  191POPC  H15X22113   2.719   2.604   8.154  0.2815  0.4891 -2.6971
  191POPC  H15Y22114   2.839   2.514   8.061  1.4820  1.2243  1.3729
  191POPC  C31622115   2.871   2.492   8.272 -0.1998  0.0698  0.6450
  191POPC  H16X22116   2.825   2.489   8.372  0.3393 -1.3513  0.8721
  191POPC  H16Y22117   2.949   2.572   8.276  0.2228 -0.2696 -0.2860
  191POPC  H16Z22118   2.914   2.390   8.264  3.0886  1.3249  0.7047
  192POPC     N22119   1.283   4.903   5.670  0.2641 -0.9907 -0.1259
  192POPC   C1222120   1.337   4.885   5.811  0.2627  0.1902  0.1831
  192POPC  H12A22121   1.320   4.979   5.863 -0.8997  0.1156 -0.0403
  192POPC  H12B22122   1.443   4.867   5.800  0.3911  0.7138  0.5216
  192POPC   C1322123   1.344   4.800   5.585  0.0591 -0.6666 -0.1650
  192POPC  H13A22124   1.274   4.717   5.588 -0.0245 -0.5686  1.3244
  192POPC  H13B22125   1.348   4.841   5.485 -0.6427  0.0382  0.0833
  192POPC  H13C22126   1.439   4.765   5.622 -0.1313  1.2444  2.4324
  192POPC   C1422127   1.136   4.888   5.666 -0.0541 -0.6377  0.8227
  192POPC  H14A22128   1.094   4.906   5.568  0.5188  0.7454  0.8044
  192POPC  H14B22129   1.109   4.794   5.711 -0.6996 -0.4245  0.8894
  192POPC  H14C22130   1.077   4.968   5.709 -1.8809 -2.5773  2.1087
  192POPC   C1522131   1.312   5.040   5.617  0.3563 -0.1746 -0.9027
  192POPC  H15A22132   1.294   5.040   5.510 -0.8287  1.1005 -0.7266
  192POPC  H15B22133   1.414   5.071   5.634  1.2537 -3.5544  0.6916
  192POPC  H15C22134   1.242   5.110   5.661 -0.1079 -0.5750 -0.9940
  192POPC   C1122135   1.273   4.782   5.898  0.3569  0.7253 -0.1525
  192POPC  H11A22136   1.350   4.759   5.975  2.2034  0.6546 -1.9287
  192POPC  H11B22137   1.260   4.684   5.847  1.6283 -0.0019  0.8533
  192POPC     P22138   1.140   4.945   6.062  0.1117 -0.0623  0.0608
  192POPC   O1322139   0.997   4.962   6.099  0.1905 -0.0775  0.4687
  192POPC   O1422140   1.218   5.060   6.021 -0.5087  0.0335 -0.4875
  192POPC   O1222141   1.152   4.833   5.954  0.2898 -0.0217  0.4983
  192POPC   O1122142   1.213   4.871   6.182 -0.3693 -0.5073 -0.1163
  192POPC    C122143   1.157   4.752   6.233 -0.4389  0.4576  0.6661
  192POPC    HA22144   1.238   4.675   6.238  1.4326  2.3230  0.6179
  192POPC    HB22145   1.081   4.700   6.171  0.3883 -2.7604  2.0917
  192POPC    C222146   1.104   4.771   6.376  0.6051  0.3929  0.0158
  192POPC    HS22147   1.008   4.827   6.370  1.2421  1.4271 -1.0229
  192POPC   O2122148   1.213   4.844   6.444  0.3054 -1.0131 -0.5691
  192POPC   C2122149   1.178   4.935   6.538 -0.0874 -0.4314 -0.0448
  192POPC   O2222150   1.060   4.954   6.571  0.0415  0.4913  0.1598
  192POPC   C2222151   1.300   4.997   6.603 -0.2106  0.1229  0.1001
  192POPC   H2R22152   1.348   5.054   6.521 -0.2663 -1.9875 -1.4931
  192POPC   H2S22153   1.377   4.929   6.644  1.9677  2.4069  0.0068
  192POPC    C322154   1.081   4.635   6.451 -0.1708 -1.3691  0.5865
  192POPC    HX22155   1.173   4.575   6.461  1.3347  0.5523 -0.8858
  192POPC    HY22156   1.012   4.579   6.384  0.5905 -0.5864 -0.8905
  192POPC   O3122157   1.006   4.645   6.579  0.1684  0.5859  0.4958
  192POPC   C3122158   1.087   4.657   6.681  0.1679  0.6802  0.1145
  192POPC   O3222159   1.210   4.656   6.669  0.4432  0.0692  0.6708
  192POPC   C3222160   1.007   4.642   6.808 -0.3906 -0.3034  0.1326
  192POPC   H2X22161   0.982   4.534   6.811 -0.2954 -0.3218  0.2675
  192POPC   H2Y22162   0.909   4.692   6.795  0.6433  1.8887  0.2368
  192POPC   C2322163   1.271   5.108   6.703  0.0662 -0.7820  0.0436
  192POPC   H3R22164   1.180   5.169   6.683  3.0701  3.3077 -2.6928
  192POPC   H3S22165   1.345   5.190   6.692 -2.9132  2.0294 -0.5405
  192POPC   C2422166   1.274   5.052   6.844  0.0011  0.1409  0.2316
  192POPC   H4R22167   1.369   4.995   6.857 -0.0983 -0.6374 -1.9930
  192POPC   H4S22168   1.192   4.977   6.858  0.3588 -0.2559  0.2320
  192POPC   C2522169   1.262   5.160   6.954  0.1140  0.1212  0.3183
  192POPC   H5R22170   1.190   5.235   6.916 -0.5314 -0.3765  0.5330
  192POPC   H5S22171   1.359   5.214   6.966 -1.2342  2.4081  1.7986
  192POPC   C2622172   1.202   5.107   7.086  0.1218  0.5445 -0.0800
  192POPC   H6R22173   1.276   5.047   7.143  0.2946 -0.1721 -1.0361
  192POPC   H6S22174   1.120   5.038   7.057  0.0468  0.0957  1.1822
  192POPC   C2722175   1.148   5.213   7.188  0.4790  0.5664  0.1350
  192POPC   H7R22176   1.091   5.284   7.124 -3.7604 -0.9291  1.8333
  192POPC   H7S22177   1.235   5.258   7.240  1.8581 -2.6447  0.8341
  192POPC   C2822178   1.047   5.147   7.289 -0.9024  0.7179  0.2193
  192POPC   H8R22179   0.980   5.085   7.225 -1.2637  0.3705  0.9157
  192POPC   H8S22180   0.987   5.236   7.316 -0.1257  1.8568 -1.6056
  192POPC   C2922181   1.117   5.073   7.405 -0.3511 -0.8258  0.5158
  192POPC   H9122182   1.154   4.974   7.374 -1.6700 -1.5646  1.2162
  192POPC  C21022183   1.140   5.119   7.529 -0.1645  0.0341 -0.4046
  192POPC  H10122184   1.168   5.043   7.603  2.6989  0.0490 -1.3687
  192POPC  C21122185   1.089   5.244   7.595  0.5763 -0.2737 -0.2868
  192POPC  H11R22186   0.978   5.242   7.600  0.5412  1.3011  0.3269
  192POPC  H11S22187   1.103   5.337   7.535  0.8880 -0.5601 -0.6598
  192POPC  C21222188   1.149   5.273   7.735  0.2664 -0.1615  0.8575
  192POPC  H12R22189   1.107   5.370   7.772 -2.1918 -0.1533 -1.6462
  192POPC  H12S22190   1.259   5.288   7.738  0.7442 -3.1421  0.6187
  192POPC  C21322191   1.110   5.167   7.833  0.5815  0.7788 -0.2605
  192POPC  H13R22192   1.108   5.059   7.808 -1.4209 -0.1609  3.1695
  192POPC  H13S22193   1.002   5.170   7.859  0.8051  1.2968  0.6707
  192POPC  C21422194   1.200   5.176   7.962 -0.5339  0.1953  0.0503
  192POPC  H14R22195   1.307   5.169   7.930 -0.6532  0.5830 -0.4547
  192POPC  H14S22196   1.174   5.086   8.023  2.3725 -0.9187 -0.1762
  192POPC  C21522197   1.171   5.304   8.034 -0.0932  0.4444  0.0849
  192POPC  H15R22198   1.069   5.283   8.072  0.6139 -2.4078  0.6170
  192POPC  H15S22199   1.180   5.393   7.968  0.4295  0.0796 -0.3506
  192POPC  C21622200   1.274   5.328   8.136 -0.7396  0.9051  0.2148
  192POPC  H16R22201   1.369   5.365   8.093 -0.7065  1.1005  0.4529
  192POPC  H16S22202   1.292   5.232   8.191 -1.9638  0.5914  0.0974
  192POPC  C21722203   1.231   5.437   8.245  0.3749  0.2537 -0.8636
  192POPC  H17R22204   1.147   5.396   8.304  2.0532 -1.1338  0.6951
  192POPC  H17S22205   1.191   5.517   8.179 -1.7217 -0.6137 -0.7185
  192POPC  C21822206   1.340   5.485   8.352  0.4136 -0.1872 -0.0315
  192POPC  H18R22207   1.431   5.525   8.303  0.4709 -0.9935 -0.5930
  192POPC  H18S22208   1.369   5.400   8.417  0.2065 -0.9406 -0.8991
  192POPC  H18T22209   1.311   5.572   8.416  0.3583 -0.3725  0.1965
  192POPC   C3322210   1.080   4.710   6.917  0.1738  0.6660 -0.5550
  192POPC   H3X22211   1.074   4.821   6.920  3.2723  0.8944  0.2861
  192POPC   H3Y22212   1.190   4.694   6.920 -0.0377 -0.9702  2.5494
  192POPC   C3422213   1.044   4.656   7.065  0.0219 -0.1496  0.7193
  192POPC   H4X22214   1.047   4.545   7.056 -0.3873 -0.0258 -1.3112
  192POPC   H4Y22215   0.937   4.683   7.081  0.5880  1.4568  2.0568
  192POPC   C3522216   1.140   4.713   7.170 -0.2151 -0.5280 -0.0237
  192POPC   H5X22217   1.132   4.824   7.178  2.2974 -0.4275  2.7024
  192POPC   H5Y22218   1.243   4.684   7.143 -0.0279 -0.6558  0.8022
  192POPC   C3622219   1.120   4.653   7.314 -0.7024 -0.4661  0.9263
  192POPC   H6X22220   1.207   4.678   7.378 -0.4544  2.6889 -0.4442
  192POPC   H6Y22221   1.128   4.543   7.300 -2.1711 -0.5913  0.9041
  192POPC   C3722222   0.992   4.685   7.374 -0.7121  0.6800  0.0513
  192POPC   H7X22223   0.906   4.663   7.308 -0.0296 -1.4239 -0.2322
  192POPC   H7Y22224   0.996   4.793   7.399 -1.4272  0.5595  0.7516
  192POPC   C3822225   0.961   4.615   7.506  0.3765 -0.5573 -0.7045
  192POPC   H8X22226   0.987   4.509   7.483 -1.1687 -0.7573 -1.6554
  192POPC   H8Y22227   0.855   4.628   7.536  0.5443  0.4893 -0.5312
  192POPC   C3922228   1.044   4.665   7.632  0.2718  0.4951  0.8317
  192POPC   H9X22229   1.033   4.774   7.649 -1.1266  0.4751  0.2493
  192POPC   H9Y22230   1.153   4.654   7.615  0.3377  0.1691  1.4302
  192POPC  C31022231   1.000   4.583   7.754 -0.2805  0.6206 -0.3406
  192POPC  H10X22232   1.031   4.478   7.735  2.3553  1.2810 -0.1746
  192POPC  H10Y22233   0.890   4.584   7.764 -0.2427 -2.6624  1.6497
  192POPC  C31122234   1.063   4.635   7.881  0.1707  0.6863  0.7227
  192POPC  H11X22235   1.032   4.739   7.905 -1.3203  0.0254  1.8049
  192POPC  H11Y22236   1.173   4.633   7.869  0.5109  4.0157  2.4078
  192POPC  C31222237   1.040   4.550   8.008 -0.1491 -0.5521  0.4809
  192POPC  H12X22238   1.066   4.447   7.974 -2.0602  0.2647 -4.1568
  192POPC  H12Y22239   0.934   4.544   8.042 -0.3485  3.4246  1.0396
  192POPC  C31322240   1.131   4.597   8.126 -0.0320 -0.0039  0.1161
  192POPC  H13X22241   1.236   4.579   8.094  0.0979 -0.4062  0.7478
  192POPC  H13Y22242   1.104   4.547   8.221 -0.0518  2.3091  1.3968
  192POPC  C31422243   1.123   4.752   8.160  0.3059 -0.2040 -0.2446
  192POPC  H14X22244   1.147   4.817   8.073  1.3588  0.8872  0.8309
  192POPC  H14Y22245   1.194   4.779   8.241  0.4878  0.3027 -0.5627
  192POPC  C31522246   0.985   4.804   8.211 -0.3731  0.4202 -0.0774
  192POPC  H15X22247   0.944   4.748   8.298  1.1291 -3.5208 -1.6800
  192POPC  H15Y22248   0.923   4.770   8.126  0.2860 -1.3299  0.1026
  192POPC  C31622249   0.956   4.961   8.228 -0.0220  0.5962  0.2505
  192POPC  H16X22250   0.846   4.971   8.229 -0.5045 -1.2616 -4.6625
  192POPC  H16Y22251   0.994   5.022   8.143 -2.4917  0.1829 -1.2356
  192POPC  H16Z22252   0.999   4.981   8.328  2.1401 -1.2299 -0.2328
  193SOD    SOD22253   5.219   0.644  16.124  0.7844 -0.2799 -0.2971
  194SOD    SOD22254   4.207   0.372  15.077  0.5970 -0.0257 -0.3925
  195SOD    SOD22255   6.624   2.524   1.243 -0.5519 -0.1105  0.4511
  196SOD    SOD22256   2.817   2.507   2.070 -0.1573 -0.1265 -0.1027
  197SOD    SOD22257   6.054   3.371   0.291  0.8012  0.2021 -0.6111
  198SOD    SOD22258   4.204   3.765  10.788  0.0109  0.2768 -0.4306
  199SOD    SOD22259   0.144   2.313  10.691  0.0201 -0.2924  0.4810
  200SOD    SOD22260   4.914   0.507  11.436  0.2705 -0.0464 -0.0733
  201SOD    SOD22261   1.646   3.732   2.553 -0.5553  0.2742 -0.3919
  202SOD    SOD22262   2.359   0.285  11.106 -0.0209 -0.1553 -0.0399
  203SOD    SOD22263   1.909   5.364  11.224  0.0419 -0.7133 -0.3461
  204SOD    SOD22264   5.244   1.233  13.997 -0.2119 -0.1538  0.1391
  205SOD    SOD22265   5.240   2.190   3.479 -0.2772 -0.4749 -0.1801
  206SOD    SOD22266   2.528   4.937   5.628 -0.3713  0.0787 -0.3549
  207SOD    SOD22267   0.826   4.891   5.015  0.6270  0.0977 -0.3589
  208SOD    SOD22268   5.103   6.266  11.432 -0.2854  0.0796  0.3872
  209SOD    SOD22269   3.747   0.066   0.472 -0.2698  0.2131  0.2288
  210SOD    SOD22270   0.839   2.727  16.456 -0.9654  0.2740 -0.3285
  211SOD    SOD22271   4.329   1.166  10.936 -0.0856 -0.1207 -0.2831
  212SOD    SOD22272   6.727   4.621   1.801 -0.1239  0.0771 -0.2701
  213SOD    SOD22273   5.146   3.904   0.717 -0.1586  0.4439  0.4851
  214SOD    SOD22274   5.882   3.213   5.447 -0.8723 -0.2760 -0.1064
  215SOD    SOD22275   4.908   1.845   2.044 -0.1962  0.2225 -0.3567
  216SOD    SOD22276   5.357   3.181   4.441 -0.0808 -0.2191  0.1468
  217SOD    SOD22277   0.296   5.434   0.688  0.0906 -0.1592  0.1828
  218SOD    SOD22278   1.839   0.692   1.733 -0.0529 -0.1402  1.0878
  219SOD    SOD22279   4.601   3.333   4.365  0.0820 -0.7504 -0.0963
  220SOD    SOD22280   5.924   0.940   6.472  0.0579  0.0911  0.1382
  221SOD    SOD22281   1.994   3.418   2.197  0.1759 -1.1285  0.2398
  222SOD    SOD22282   0.699   4.913  16.377 -0.3475 -0.2310 -0.0739
  223SOD    SOD22283   5.410   4.864  16.680 -0.4823 -0.4621  0.0304
  224SOD    SOD22284   6.236   6.673   6.291 -0.1743  0.0351 -0.2084
  225SOD    SOD22285   2.577   3.822  14.482  0.1584 -0.1516 -0.2223
  226SOD    SOD22286   0.757   4.206  12.940  0.0757  0.0075  0.2339
  227SOD    SOD22287   6.786   6.693   2.062  0.2960  0.8018  0.0252
  228SOD    SOD22288   3.182   0.334  14.401 -0.1177  0.1244  0.0622
  229SOD    SOD22289   4.833   2.498  15.627  0.3529 -0.1714 -0.5536
  230SOD    SOD22290   2.714   2.896  10.809  0.1888 -0.3892 -0.1666
  231SOD    SOD22291   3.378   2.532  12.065  0.1030 -0.6893 -0.1446
  232SOD    SOD22292   2.367   5.996   5.743  0.0936  0.1628  0.2565
  233SOD    SOD22293   0.032   1.336   3.461 -0.0644 -0.1908 -0.2213
  234SOD    SOD22294   1.866   3.253  11.156 -0.1996 -0.0313  0.2795
  235SOD    SOD22295   2.439   2.586  11.952  0.3937 -0.3110  0.2750
  236SOD    SOD22296   6.311   3.651   6.254 -0.3036 -0.0546  0.1010
  237SOD    SOD22297   6.698   2.979  11.719  0.1546  0.4414 -0.0294
  238SOD    SOD22298   1.572   1.606   2.061  0.2746 -0.6110  0.2215
  239SOD    SOD22299   6.023   6.307   3.036 -0.2593  0.6503 -0.4704
  240SOD    SOD22300   3.373   5.027  16.895  0.2581 -0.1860  0.3404
  241SOD    SOD22301   6.619   1.451  13.334 -0.2162 -0.2901 -0.1806
  242SOD    SOD22302   0.926   2.392   6.238  0.2204 -0.4816 -0.2494
  243SOD    SOD22303   5.197   2.636  12.181 -0.2768 -0.3921  0.0015
  244SOD    SOD22304   4.769   5.415   0.590 -0.2052  0.5902 -0.6103
  245SOD    SOD22305   0.366   5.534   3.718  0.0823  0.1674 -0.0419
  246SOD    SOD22306   4.648   0.515   0.098  0.4585 -0.3368 -0.1385
  247SOD    SOD22307   5.079   2.976  13.132  0.5294  0.2059 -0.2842
  248SOD    SOD22308   3.891   5.942  12.225  0.2119 -0.1036 -0.5239
  249SOD    SOD22309   2.603   5.897   0.307  0.5386  0.1071 -0.3986
  250SOD    SOD22310   2.774   4.022   4.585 -0.0427  0.1569  0.0812
  251SOD    SOD22311   4.571   0.264   5.540 -0.0047  0.3193  0.1275
  252SOD    SOD22312   1.304   6.771  11.891 -0.0615  0.0013  0.0260
  253SOD    SOD22313   4.191   4.509  11.300 -0.0803 -0.1187  0.0609
  254SOD    SOD22314   4.594   5.720   4.921  0.2315  0.2295  0.0815
  255SOD    SOD22315   5.905   4.764  12.547  0.3748  0.1150  0.3170
  256SOD    SOD22316   5.687   1.893   5.911 -0.3670 -0.3336  0.4071
  257SOD    SOD22317   5.685   1.694   2.513  0.6303 -0.4429 -0.0916
  258SOD    SOD22318   6.247   0.358  14.770 -0.3245 -0.5697  0.0747
  259SOD    SOD22319   1.450   1.877   6.608 -0.1114  0.7461 -0.1541
  260SOD    SOD22320   0.007   4.033  11.721 -0.1716  0.0861  0.0009
  261SOD    SOD22321   1.519   2.102  13.397 -0.1805  0.0014  0.3325
  262SOD    SOD22322   5.539   4.321  11.241 -0.5272 -0.2941  0.1076
  263SOD    SOD22323   0.456   1.316  14.949  0.2780 -0.0127 -0.2303
  264SOD    SOD22324   1.716   0.817   5.752 -0.2168  0.2480 -0.4477
  265SOD    SOD22325   0.547   3.317   0.505 -0.5347 -0.2896 -0.1278
  266SOD    SOD22326   2.081   6.131  11.107  0.1332  0.7251  0.1199
  267SOD    SOD22327   6.343   4.060  14.058  0.0443 -0.6867  0.0530
  268SOD    SOD22328   2.810   2.278  11.147  0.0722  0.3393  0.3629
  269SOD    SOD22329   6.757   6.536  15.434  0.5935 -0.1885 -0.4031
  270CLA    CLA22330   4.351   3.489  13.458  0.3576 -0.2143  0.1298
  271CLA    CLA22331   4.619   2.961   2.054 -0.1999  0.4164 -0.0129
  272CLA    CLA22332   0.262   6.485   1.710 -0.0033 -0.0751  0.2304
  273CLA    CLA22333   6.721   5.664  13.994 -0.0675  0.0878  0.0263
  274CLA    CLA22334   5.931   0.113  16.666  0.3324  0.1177  0.4705
  275CLA    CLA22335   2.315   3.744  11.446  0.0531 -0.4992 -0.3926
  276CLA    CLA22336   3.617   5.690   4.601  0.2766 -0.0077  0.2423
  277CLA    CLA22337   1.646   4.391  14.008 -0.1112  0.0887 -0.1433
  278CLA    CLA22338   0.135   0.818  14.934 -0.5519 -0.0963  0.3729
  279CLA    CLA22339   1.650   4.585   2.976 -0.4456 -0.1421  0.1793
  280CLA    CLA22340   5.852   0.126  15.465 -0.4134  0.0519  0.1061
  281CLA    CLA22341   6.696   3.079   3.903 -0.1773  0.2036  0.0314
  282CLA    CLA22342   3.228   0.477  15.056  0.0062  0.0105 -0.0625
  283CLA    CLA22343   0.926   3.626   3.316 -0.1155 -0.3394 -0.1596
  284CLA    CLA22344   2.337   0.849  12.045  0.2393  0.0258 -0.3516
  285CLA    CLA22345   6.133   6.045   0.442  0.1647  0.4950  0.0173
  286CLA    CLA22346   1.545   2.529  16.165 -0.3146 -0.1484  0.1997
  287CLA    CLA22347   6.092   1.446   2.523  0.3522  0.0017 -0.0823
  288CLA    CLA22348   2.110   5.546  13.106  0.3526  0.2051 -0.3715
  289CLA    CLA22349   1.493   3.612   3.997  0.1464  0.3275 -0.0816
  290CLA    CLA22350   2.401   5.462   0.493  0.3281  0.1936 -0.0725
  291CLA    CLA22351   5.777   3.656  15.571 -0.1710 -0.0770 -0.1734
  292CLA    CLA22352   4.982   3.337   0.870  0.2250  0.4400  0.0406
  293CLA    CLA22353   5.520   2.432   4.050 -0.3556  0.1650  0.0652
  294CLA    CLA22354   2.475   0.723  11.053 -0.0373  0.1490  0.1461
  295CLA    CLA22355   5.945   0.495  13.824  0.1935  0.0454  0.2328
  296CLA    CLA22356   0.764   3.642   0.738 -0.3117  0.3265  0.0925
  297CLA    CLA22357   3.579   2.506   0.702  0.3668  0.1317 -0.0176
  298CLA    CLA22358   5.734   4.340   1.050 -0.0385 -0.2531  0.2584
  299CLA    CLA22359   5.640   2.259  13.300 -0.2837 -0.5555  0.0949
  300CLA    CLA22360   1.024   4.446  14.651 -0.5241  0.1355  0.1503
  301CLA    CLA22361   1.142   6.095   1.220  0.1997  0.5416 -0.1797
  302CLA    CLA22362   5.697   3.036  11.635  0.1267  0.4437 -0.1320
  303CLA    CLA22363   1.867   0.280   5.717 -0.5049  0.0917  0.1990
  304CLA    CLA22364   5.583   5.487  16.217  0.5860  0.1144 -0.3193
  305CLA    CLA22365   2.482   3.021   3.309 -0.2303  0.0781 -0.6199
  306CLA    CLA22366   6.408   5.918   4.930 -0.0441  0.2676 -0.0272
  307CLA    CLA22367   4.296   0.040   1.450 -0.0488 -0.1270  0.0284
  308CLA    CLA22368   5.972   1.931   1.057  0.1305  0.2362  0.1041
  309CLA    CLA22369   5.012   0.872  14.109 -0.0479 -0.2362 -0.1300
  310CLA    CLA22370   1.383   4.073   1.346  0.2799 -0.1591  0.3169
  311CLA    CLA22371   1.606   5.650  15.084  0.1187  0.0627 -0.2769
  312CLA    CLA22372   3.385   6.201  12.630  0.2645  0.3190 -0.1184
  313CLA    CLA22373   5.746   3.890  14.129 -0.0475  0.2669  0.2259
  314CLA    CLA22374   3.600   0.693  14.424 -0.1699 -0.2328  0.6562
  315CLA    CLA22375   5.245   0.358  15.332 -0.5127 -0.0195  0.0941
  316CLA    CLA22376   1.632   1.335   5.756 -0.3721  0.4272 -0.1442
  317CLA    CLA22377   5.314   2.765   1.948 -0.0233  0.1394  0.1772
  318CLA    CLA22378   4.734   3.791  14.753  0.2374  0.1061 -0.0825
  319CLA    CLA22379   1.700   4.624   5.633 -0.4764 -0.2380 -0.1734
  320CLA    CLA22380   2.523   3.315  13.557  0.1092  0.1894 -0.4369
  321CLA    CLA22381   6.727   0.256  13.097  0.0100  0.4872 -0.1471
  322CLA    CLA22382   3.982   3.278  11.853 -0.1269  0.5460 -0.4583
  323TIP3   OH222383   2.737   1.118  11.671  0.1243 -0.1020 -0.3911
  323TIP3    H122384   2.716   1.120  11.765  2.3794  0.4476  0.1806
  323TIP3    H222385   2.655   1.140  11.627 -0.5939  1.4502  1.5572
  324TIP3   OH222386   2.133   2.064  15.230 -0.3792  0.3112 -0.1750
  324TIP3    H122387   2.124   1.989  15.289 -1.8271 -1.7329 -2.7360
  324TIP3    H222388   2.129   2.141  15.287 -1.9748 -1.4902  2.3369
  325TIP3   OH222389   4.361   3.473   1.336  0.1004  0.2408  0.0378
  325TIP3    H122390   4.366   3.444   1.245  0.0106 -0.2804  0.1915
  325TIP3    H222391   4.424   3.417   1.382 -1.2685 -0.8991  0.6263
  326TIP3   OH222392   4.835   0.839   2.435 -0.2168 -0.0194  0.8556
  326TIP3    H122393   4.914   0.841   2.381  0.4712  1.9942  1.8507
  326TIP3    H222394   4.770   0.795   2.380  0.6575  1.2842 -1.3408
  327TIP3   OH222395   2.902   1.273  12.630  0.1252 -0.0724  0.4186
  327TIP3    H122396   2.927   1.292  12.720 -1.4055 -2.1197  1.3416
  327TIP3    H222397   2.984   1.252  12.586  0.6579 -1.6314  2.0439
  328TIP3   OH222398   5.038   3.962  12.704 -0.2590  0.0654  0.1762
  328TIP3    H122399   5.012   3.963  12.612 -1.3192 -0.7414  0.4396
  328TIP3    H222400   4.957   3.984  12.752  0.6570  2.2560  0.8762
  329TIP3   OH222401   0.479   3.189   4.917 -0.4815 -1.0032  0.1610
  329TIP3    H122402   0.429   3.230   4.846 -1.5884 -0.3223  1.2693
  329TIP3    H222403   0.569   3.188   4.886 -0.8106  0.0378 -0.9249
  330TIP3   OH222404   1.789   1.245  15.145  0.0861  0.4886  0.0428
  330TIP3    H122405   1.785   1.295  15.063  0.0958 -0.0308 -0.2784
  330TIP3    H222406   1.801   1.312  15.213 -1.3438  1.0527 -0.2257
  331TIP3   OH222407   1.466   2.985  12.398  0.4252 -0.3687  0.1708
  331TIP3    H122408   1.454   3.061  12.456 -1.7391 -0.4574 -0.0638
  331TIP3    H222409   1.472   3.022  12.311 -2.8339 -0.4424 -0.2084
  332TIP3   OH222410   1.931   1.909  14.527  0.1421  0.3989 -0.2565
  332TIP3    H122411   1.870   1.879  14.459 -1.6140 -1.8605  2.1024
  332TIP3    H222412   1.939   1.834  14.586  1.9818  2.0622  1.7667
  333TIP3   OH222413   6.501   2.147   4.690 -1.3569 -0.5197 -0.4167
  333TIP3    H122414   6.581   2.192   4.662 -1.9287  0.8989  0.1094
  333TIP3    H222415   6.532   2.079   4.750 -0.4653 -0.7731 -1.1438
  334TIP3   OH222416   6.255   1.711   6.017 -0.1051  0.0783 -0.2349
  334TIP3    H122417   6.177   1.657   6.024 -1.0883  1.3858 -0.6382
  334TIP3    H222418   6.311   1.682   6.089 -1.9882  0.7065  1.5938
  335TIP3   OH222419   3.089   6.608   3.841  0.0791 -0.3136  0.7862
  335TIP3    H122420   3.135   6.574   3.764 -1.3901  1.0430 -0.7703
  335TIP3    H222421   3.159   6.640   3.898  1.1607 -0.1436 -0.5809
  336TIP3   OH222422   0.131   6.524   2.190 -0.6759  0.0174  0.7081
  336TIP3    H122423   0.184   6.557   2.263 -1.6109  0.4125  1.2189
  336TIP3    H222424   0.136   6.429   2.199 -0.2100  0.0527  0.8653
  337TIP3   OH222425   3.911   3.120  13.467 -0.0429 -0.1204 -0.4920
  337TIP3    H122426   3.829   3.165  13.489 -0.1950 -0.7359  0.2222
  337TIP3    H222427   3.969   3.138  13.542  0.4189  0.1616 -0.9108
  338TIP3   OH222428   5.565   2.659   1.194  0.1495 -0.2722  0.0629
  338TIP3    H122429   5.485   2.703   1.225 -0.2208 -2.0820  1.8583
  338TIP3    H222430   5.540   2.619   1.111 -0.6241 -0.3029  0.3035
  339TIP3   OH222431   1.695   0.479  15.497 -0.1752  0.6274  0.0273
  339TIP3    H122432   1.676   0.460  15.589  0.0515 -1.1700 -0.2499
  339TIP3    H222433   1.787   0.506  15.496  1.0127 -2.9013  0.0064
  340TIP3   OH222434   4.252   0.516   3.631 -0.6717  0.4929 -0.0826
  340TIP3    H122435   4.266   0.421   3.630 -0.8200  0.4713 -0.4939
  340TIP3    H222436   4.250   0.540   3.539  0.3546  1.0498  0.0348
  341TIP3   OH222437   3.041   2.121   1.032  0.2440 -0.0806  0.2958
  341TIP3    H122438   3.026   2.039   1.079  0.8515 -0.1635  0.3461
  341TIP3    H222439   3.004   2.106   0.945 -1.3756  0.2570  0.8901
  342TIP3   OH222440   2.402   2.495   5.429  0.2867  0.2858  0.3595
  342TIP3    H122441   2.409   2.583   5.466  0.8002  1.5805 -2.5427
  342TIP3    H222442   2.488   2.479   5.389 -0.9729  0.1357 -2.4820
  343TIP3   OH222443   5.547   3.607  13.740 -0.1510 -0.0405 -0.7551
  343TIP3    H122444   5.464   3.648  13.715 -0.4746 -1.1449 -1.5449
  343TIP3    H222445   5.608   3.632  13.671 -0.0740  0.0085 -0.6684
  344TIP3   OH222446   2.361   3.587   1.878 -0.1230 -0.2518 -0.1041
  344TIP3    H122447   2.430   3.628   1.826  0.7423  1.0076  1.9447
  344TIP3    H222448   2.289   3.573   1.815  1.0167  0.7683 -1.7176
  345TIP3   OH222449   2.013   6.424   6.875  0.6116 -0.6800  0.2344
  345TIP3    H122450   2.075   6.449   6.807  0.5670 -1.7569 -0.2286
  345TIP3    H222451   2.064   6.369   6.935  0.0618 -1.8107 -0.3036
  346TIP3   OH222452   6.501   5.554  13.780  1.0910  0.0035  0.3160
  346TIP3    H122453   6.569   5.577  13.844 -0.0588  1.7901  0.9503
  346TIP3    H222454   6.439   5.626  13.783 -0.2087 -0.9811 -1.1729
  347TIP3   OH222455   5.765   0.183   1.421  0.2021 -0.6649  0.5065
  347TIP3    H122456   5.811   0.127   1.483  0.3820 -1.5070 -0.3622
  347TIP3    H222457   5.720   0.122   1.363 -3.0765  0.0790  2.0343
  348TIP3   OH222458   1.644   5.040  13.019  0.0631 -0.0216  0.1893
  348TIP3    H122459   1.561   5.047  13.066 -0.6925  0.3674 -1.1606
  348TIP3    H222460   1.661   5.129  12.987  0.5335 -0.2900 -0.3280
  349TIP3   OH222461   5.376   1.057   0.868  0.0053 -0.7367  0.1802
  349TIP3    H122462   5.354   0.965   0.863  2.7636 -1.4204 -3.2469
  349TIP3    H222463   5.302   1.103   0.830  0.4338 -2.0533 -2.4386
  350TIP3   OH222464   4.932   3.990  16.366 -0.0323  0.3183  0.2236
  350TIP3    H122465   4.864   4.003  16.433 -0.1175 -1.0591  0.4218
  350TIP3    H222466   4.883   3.967  16.287  0.1945 -1.9216  0.6649
  351TIP3   OH222467   5.242   4.369  14.709 -0.0277  0.1990  0.0461
  351TIP3    H122468   5.289   4.445  14.742 -0.5669  0.5597  0.0044
  351TIP3    H222469   5.300   4.332  14.643  0.5768  0.1188  0.6072
  352TIP3   OH222470   0.695   5.361   4.930  0.3150  0.6455 -0.3406
  352TIP3    H122471   0.772   5.415   4.915 -0.3808  1.5175 -0.8667
  352TIP3    H222472   0.643   5.410   4.994 -0.7563  1.0921 -1.5017
  353TIP3   OH222473   0.380   5.280   3.105 -0.5223  0.0739 -0.7375
  353TIP3    H122474   0.308   5.233   3.149 -0.1315 -1.0677 -1.2746
  353TIP3    H222475   0.439   5.305   3.176 -0.6353 -0.4426 -0.4566
  354TIP3   OH222476   5.338   0.947   1.165 -0.4778 -0.5708 -0.2550
  354TIP3    H122477   5.358   0.889   1.238 -0.2734  0.1068  0.2331
  354TIP3    H222478   5.320   1.032   1.206 -0.6806 -0.2648 -0.9652
  355TIP3   OH222479   3.141   5.020   4.502 -0.6298 -0.3890  0.0218
  355TIP3    H122480   3.211   5.081   4.524 -0.1523 -0.5201 -1.0289
  355TIP3    H222481   3.187   4.940   4.475 -1.1530 -0.3469 -1.0696
  356TIP3   OH222482   1.973   2.455  14.454  0.1584  0.2755  0.6297
  356TIP3    H122483   2.066   2.466  14.435  0.2617 -1.8449 -0.3674
  356TIP3    H222484   1.968   2.455  14.549  1.3856 -0.8115  0.7294
  357TIP3   OH222485   2.753   2.217   4.595 -0.2345 -0.1821  0.2510
  357TIP3    H122486   2.673   2.229   4.543 -0.0650  0.3351  0.1121
  357TIP3    H222487   2.721   2.206   4.684 -0.4860 -0.3642  0.1417
  358TIP3   OH222488   4.042   4.284  11.627 -0.2616  0.1370 -0.0030
  358TIP3    H122489   4.054   4.308  11.719 -2.2461  0.7416  0.1503
  358TIP3    H222490   3.947   4.277  11.617 -0.0119 -1.5790 -1.6104
  359TIP3   OH222491   2.007   3.252  14.988  0.4203 -0.2821 -0.2741
  359TIP3    H122492   2.047   3.177  15.032  1.2377  0.6169  0.5442
  359TIP3    H222493   2.042   3.329  15.033  1.4372  0.7112 -2.5626
  360TIP3   OH222494   1.518   1.805   5.228  0.0055  0.3461  0.4893
  360TIP3    H122495   1.528   1.854   5.309 -1.2532  0.0726  0.8330
  360TIP3    H222496   1.534   1.869   5.159 -1.7919  1.3364  0.9230
  361TIP3   OH222497   5.308   2.823   0.194 -0.5874 -0.0165 -0.3241
  361TIP3    H122498   5.280   2.772   0.270  2.3965  0.6023  1.3616
  361TIP3    H222499   5.369   2.766   0.148  0.9172  1.0719  0.2238
  362TIP3   OH222500   0.333   0.909  12.775  0.2546 -0.5314 -0.2411
  362TIP3    H122501   0.240   0.894  12.754  0.1253  3.5595 -4.3610
  362TIP3    H222502   0.333   0.990  12.826  1.5711 -0.8802  0.3475
  363TIP3   OH222503   0.292   1.281   0.703 -0.2777  0.0319  0.2359
  363TIP3    H122504   0.377   1.276   0.661 -0.3274  1.5796 -0.1038
  363TIP3    H222505   0.246   1.202   0.675  1.5120 -1.5423  1.5364
  364TIP3   OH222506   1.517   3.402   2.035  0.3476  0.9965 -0.0992
  364TIP3    H122507   1.456   3.403   2.109  0.3245  1.4454 -0.1198
  364TIP3    H222508   1.603   3.416   2.074  0.2476  2.0509 -0.2250
  365TIP3   OH222509   5.060   4.478   1.536 -0.2950  0.3866 -0.0364
  365TIP3    H122510   5.024   4.392   1.559  1.9932 -0.3686  0.9935
  365TIP3    H222511   5.146   4.459   1.499  0.3914  2.2558  0.4805
  366TIP3   OH222512   5.808   5.733  15.853  0.1207  0.6333 -0.1021
  366TIP3    H122513   5.716   5.737  15.880  0.3434  1.8828  0.5730
  366TIP3    H222514   5.853   5.692  15.927  0.1343  0.1934 -0.3538
  367TIP3   OH222515   0.425   5.599   2.925 -0.2949  0.2427  0.1223
  367TIP3    H122516   0.356   5.657   2.959 -1.6308 -0.0814 -1.8503
  367TIP3    H222517   0.482   5.657   2.875 -1.2292  0.0137 -1.2579
  368TIP3   OH222518   4.202   4.701   0.224  0.2378  0.0658  0.1485
  368TIP3    H122519   4.108   4.713   0.237  0.0772 -1.3978  0.5519
  368TIP3    H222520   4.235   4.682   0.312  0.7429 -0.3959 -0.1364
  369TIP3   OH222521   1.808   0.445   5.188 -0.0960 -0.0563 -0.6689
  369TIP3    H122522   1.794   0.403   5.273 -1.2554  1.9482  0.1858
  369TIP3    H222523   1.894   0.486   5.196 -0.7730  1.3002  0.1157
  370TIP3   OH222524   1.780   3.073   1.987  0.4770  0.1862  0.1016
  370TIP3    H122525   1.812   2.985   1.970 -2.2700 -0.6547 -1.2867
  370TIP3    H222526   1.793   3.120   1.905  0.2776  0.5257  0.2603
  371TIP3   OH222527   2.146   5.079  16.733  0.5383 -0.3541 -0.2617
  371TIP3    H122528   2.206   5.146  16.766  1.3020 -0.8253 -0.6640
  371TIP3    H222529   2.058   5.117  16.746  0.8862  0.1026  0.8699
  372TIP3   OH222530   4.427   5.053   4.117 -0.0314  0.1021 -0.2094
  372TIP3    H122531   4.477   4.993   4.172 -0.3876  1.1553  1.3216
  372TIP3    H222532   4.488   5.125   4.100 -0.1044  0.0381 -0.7593
  373TIP3   OH222533   1.897   6.567   1.074 -0.8016 -0.6218  0.4944
  373TIP3    H122534   1.967   6.585   1.136 -0.6380  0.7154 -0.0499
  373TIP3    H222535   1.937   6.509   1.009  0.3374  1.4012 -0.7073
  374TIP3   OH222536   0.051   0.411  12.148  0.1150 -0.0241 -0.2342
  374TIP3    H122537   0.009   0.401  12.234 -0.5922 -1.9179 -0.7562
  374TIP3    H222538   0.144   0.419  12.167  0.0374 -1.1164  0.6987
  375TIP3   OH222539   5.274   1.569  12.986  0.3930  0.5486  0.1622
  375TIP3    H122540   5.227   1.490  12.961 -2.0759  2.2659 -1.0528
  375TIP3    H222541   5.334   1.586  12.913  1.4137 -0.4820  0.7261
  376TIP3   OH222542   3.812   0.306   4.105  0.6835 -0.7294 -0.8415
  376TIP3    H122543   3.743   0.357   4.148  0.6010 -1.4485 -0.1166
  376TIP3    H222544   3.891   0.324   4.156  0.9205 -0.3717 -1.3211
  377TIP3   OH222545   6.541   6.022   2.559 -0.3664 -0.0590 -0.5960
  377TIP3    H122546   6.583   5.985   2.636 -2.4859  0.5686  0.9624
  377TIP3    H222547   6.449   5.996   2.567 -1.3696  3.0091 -0.9849
  378TIP3   OH222548   2.419   3.548   3.542  0.1515  0.4026 -0.1225
  378TIP3    H122549   2.496   3.591   3.578  0.3651  2.1818 -2.4602
  378TIP3    H222550   2.450   3.464   3.509  0.7421  0.4377  0.3394
  379TIP3   OH222551   2.325   5.754   3.494 -0.4311 -0.5566  0.0636
  379TIP3    H122552   2.239   5.797   3.496 -0.9708 -1.6444  1.2050
  379TIP3    H222553   2.379   5.812   3.440 -1.1756  1.4732  1.3565
  380TIP3   OH222554   0.695   2.435   4.712  0.7226  0.4242  0.3955
  380TIP3    H122555   0.727   2.365   4.655 -1.1991 -1.3316  1.3686
  380TIP3    H222556   0.688   2.511   4.654  2.2686 -0.3122 -0.8314
  381TIP3   OH222557   4.416   3.849  13.226  0.1242  0.0424 -0.0515
  381TIP3    H122558   4.321   3.844  13.239 -0.1529  0.2757 -1.7175
  381TIP3    H222559   4.443   3.758  13.213  0.2566 -0.0960  1.1371
  382TIP3   OH222560   3.164   6.575   1.156 -0.1567  1.0822 -0.0283
  382TIP3    H122561   3.221   6.629   1.212  0.6049  0.4297 -0.1590
  382TIP3    H222562   3.188   6.601   1.066  1.4428 -0.6488 -0.1523
  383TIP3   OH222563   4.071   6.410   4.950  0.0808 -0.0795  0.1629
  383TIP3    H122564   4.017   6.353   4.895  0.7187 -2.2139  1.6321
  383TIP3    H222565   4.010   6.446   5.014 -0.1403  0.1282 -0.1561
  384TIP3   OH222566   3.167   3.303  14.474 -0.1090  0.3735  0.6353
  384TIP3    H122567   3.262   3.314  14.463 -0.0705 -0.8068 -0.4893
  384TIP3    H222568   3.133   3.304  14.384 -0.7853 -2.1363  0.7884
  385TIP3   OH222569   4.954   5.500  15.726 -0.0202 -0.0957 -0.0765
  385TIP3    H122570   5.003   5.475  15.805  0.1644  0.2376 -0.0827
  385TIP3    H222571   4.904   5.422  15.703  1.1339 -0.7115 -0.5487
  386TIP3   OH222572   2.520   1.320   4.204  0.1113 -0.2349 -0.0138
  386TIP3    H122573   2.463   1.369   4.144  3.4917  0.9397 -2.5443
  386TIP3    H222574   2.529   1.234   4.164 -0.3157 -0.6428  0.7341
  387TIP3   OH222575   5.593   0.622   3.942  0.1849  0.0644 -0.0721
  387TIP3    H122576   5.639   0.673   3.874 -0.8411 -1.2871 -1.8651
  387TIP3    H222577   5.543   0.687   3.991  0.8611  1.0641 -0.6655
  388TIP3   OH222578   3.399   2.585   3.556  0.7089  0.2809  0.6170
  388TIP3    H122579   3.429   2.647   3.490 -0.4862 -1.2602 -1.4742
  388TIP3    H222580   3.471   2.522   3.564  0.3412 -0.2528 -0.1993
  389TIP3   OH222581   2.114   6.244   2.590 -0.3243 -0.1896  0.2473
  389TIP3    H122582   2.036   6.265   2.641 -0.7973  1.1155 -0.9474
  389TIP3    H222583   2.118   6.311   2.522  1.4445 -0.6510 -0.1766
  390TIP3   OH222584   3.666   3.573   5.584  0.0937 -0.1083 -0.3154
  390TIP3    H122585   3.663   3.647   5.645 -0.7002  0.6283 -1.2288
  390TIP3    H222586   3.599   3.512   5.616  1.0185 -0.6507  0.6690
  391TIP3   OH222587   4.169   0.552  14.919  0.4183 -0.2577 -0.1286
  391TIP3    H122588   4.095   0.610  14.936  0.3536 -0.8075  1.7420
  391TIP3    H222589   4.142   0.497  14.846 -0.5218  0.3847 -0.2740
  392TIP3   OH222590   3.003   5.903   1.043 -0.1946 -0.2849  0.0151
  392TIP3    H122591   3.080   5.951   1.012 -0.4077 -0.6176 -1.0780
  392TIP3    H222592   3.030   5.865   1.127  1.0175 -0.8588 -0.6229
  393TIP3   OH222593   6.459   6.194   1.125 -0.2056 -0.1629 -0.2682
  393TIP3    H122594   6.523   6.186   1.195 -1.0824  1.6648  0.8267
  393TIP3    H222595   6.508   6.180   1.044  1.9439  2.6485  0.4180
  394TIP3   OH222596   2.958   6.416   3.514 -0.0481  0.7481  0.2735
  394TIP3    H122597   2.921   6.366   3.441  1.0240  1.4318 -0.7712
  394TIP3    H222598   2.944   6.508   3.490 -0.9762  0.9818  1.6353
  395TIP3   OH222599   3.487   3.460   4.273  0.3023  0.2252 -0.0258
  395TIP3    H122600   3.560   3.423   4.222  1.0429  0.8550  0.5456
  395TIP3    H222601   3.426   3.492   4.207  1.2744  1.0835 -0.5429
  396TIP3   OH222602   1.660   5.895   2.807 -0.5074 -0.4128  1.2362
  396TIP3    H122603   1.733   5.834   2.819  2.4748  1.8968 -2.6062
  396TIP3    H222604   1.686   5.973   2.856 -0.4821  0.3116  0.1131
  397TIP3   OH222605   0.167   3.870  12.401 -0.0849  0.2962  0.0616
  397TIP3    H122606   0.248   3.921  12.409  0.4919 -0.7989  1.7643
  397TIP3    H222607   0.120   3.887  12.483  0.2706 -2.0502  0.8397
  398TIP3   OH222608   5.914   4.403   0.543 -0.6128 -0.2726 -0.3489
  398TIP3    H122609   5.976   4.432   0.476  1.3852  1.3155  2.0096
  398TIP3    H222610   5.868   4.482   0.570  1.0643 -0.0698  2.3987
  399TIP3   OH222611   5.154   1.325  14.203 -0.4469  1.0461  0.4891
  399TIP3    H122612   5.203   1.310  14.284 -0.2922 -2.2824 -0.1087
  399TIP3    H222613   5.062   1.326  14.230 -0.3156  2.6170  0.9872
  400TIP3   OH222614   1.888   6.287  14.750  0.5566 -0.0091 -0.3089
  400TIP3    H122615   1.864   6.209  14.801 -0.2360  0.3527 -0.1189
  400TIP3    H222616   1.915   6.252  14.665  0.6962 -0.5287 -0.0556
  401TIP3   OH222617   2.194   5.465   3.513  0.1649 -0.0184  0.0202
  401TIP3    H122618   2.286   5.437   3.518 -0.1982 -1.0533  1.7596
  401TIP3    H222619   2.160   5.420   3.436  1.0698  0.2159 -0.5292
  402TIP3   OH222620   2.261   6.163  13.638  0.3675  0.1616  0.2391
  402TIP3    H122621   2.268   6.125  13.726  0.4202 -0.3109  0.0295
  402TIP3    H222622   2.212   6.245  13.652  0.6840  0.2669  0.7598
  403TIP3   OH222623   1.603   1.957   4.979  0.4848  0.2141 -0.2893
  403TIP3    H122624   1.666   1.897   4.941  0.1709  0.2697 -0.9175
  403TIP3    H222625   1.547   1.982   4.905 -1.1646 -0.9478  0.5030
  404TIP3   OH222626   1.044   1.884   3.067  0.1290  0.0885 -0.2551
  404TIP3    H122627   1.043   1.975   3.099  0.5537  0.6296 -1.6939
  404TIP3    H222628   0.965   1.878   3.013 -0.1093 -0.5378  0.1568
  405TIP3   OH222629   5.379   5.346  15.988  0.0571  0.2266 -0.4301
  405TIP3    H122630   5.419   5.357  16.075 -1.0255 -1.0530  0.2624
  405TIP3    H222631   5.358   5.253  15.983 -0.2023  0.3501 -1.9449
  406TIP3   OH222632   3.848   0.152  13.420  0.2913 -0.3074 -0.1411
  406TIP3    H122633   3.800   0.074  13.450  0.3492 -0.4495 -0.4162
  406TIP3    H222634   3.850   0.143  13.325  0.9592 -0.3551 -0.1243
  407TIP3   OH222635   0.926   0.591  12.003 -0.2398 -0.4498  0.0558
  407TIP3    H122636   1.006   0.539  11.993  0.0040 -0.2190  0.7726
  407TIP3    H222637   0.855   0.526  12.004  0.1678 -0.9544  2.4926
  408TIP3   OH222638   2.070   4.794  14.792  0.1174  0.2385  0.1520
  408TIP3    H122639   2.139   4.842  14.838  2.3124 -1.7305 -0.8429
  408TIP3    H222640   1.991   4.846  14.805  1.5010  1.9230  2.5008
  409TIP3   OH222641   2.559   6.704   5.328 -0.9227  0.0144 -0.1499
  409TIP3    H122642   2.574   6.758   5.250  0.2747 -0.2847 -0.1485
  409TIP3    H222643   2.524   6.766   5.393  0.1655  0.7607 -0.2362
  410TIP3   OH222644   4.561   3.281   2.438  0.0805  1.0414  0.4996
  410TIP3    H122645   4.565   3.328   2.355 -1.2627  0.9542  0.3601
  410TIP3    H222646   4.576   3.189   2.414 -1.0137  0.9220  0.2434
  411TIP3   OH222647   1.615   1.428   2.218  0.6347  0.4973 -0.1405
  411TIP3    H122648   1.698   1.407   2.176  0.3753  0.1884 -0.5040
  411TIP3    H222649   1.636   1.433   2.311  1.1779  1.0114 -0.2819
  412TIP3   OH222650   3.769   2.442   5.772 -0.1357  0.2737 -0.1502
  412TIP3    H122651   3.774   2.410   5.862 -0.0105 -0.2308 -0.3383
  412TIP3    H222652   3.794   2.535   5.779 -2.0775  0.7829  0.6289
  413TIP3   OH222653   6.127   0.617  15.901 -0.1185  0.3997 -0.3075
  413TIP3    H122654   6.202   0.653  15.948  0.5477  1.5116 -2.1258
  413TIP3    H222655   6.075   0.573  15.969  0.9338  1.6603  1.3932
  414TIP3   OH222656   4.975   4.148  11.665  0.1625 -0.5275  0.2565
  414TIP3    H122657   4.905   4.091  11.698  1.3717 -2.7632 -0.7941
  414TIP3    H222658   5.016   4.185  11.744 -1.0711 -0.5813  0.9396
  415TIP3   OH222659   6.162   2.971   6.631 -0.1814  0.2932  0.0069
  415TIP3    H122660   6.182   3.013   6.547 -0.5442  0.2410 -0.1078
  415TIP3    H222661   6.066   2.961   6.631 -0.0572 -1.0993 -0.2485
  416TIP3   OH222662   5.659   4.377   5.202 -0.2052  0.6753  0.1144
  416TIP3    H122663   5.587   4.441   5.197  1.0604  2.1196 -0.2584
  416TIP3    H222664   5.725   4.420   5.256  0.6456 -0.3920 -0.0441
  417TIP3   OH222665   1.621   2.313   3.037  0.4069  0.3200 -0.0652
  417TIP3    H122666   1.556   2.266   2.984 -0.2879  1.7923 -0.5778
  417TIP3    H222667   1.637   2.255   3.111  0.2813 -1.1271 -1.1226
  418TIP3   OH222668   5.560   2.981   0.700 -0.1011  0.2194 -0.6869
  418TIP3    H122669   5.521   2.898   0.672 -1.1230 -0.0947  1.5219
  418TIP3    H222670   5.563   2.976   0.795 -0.3331  2.7933 -0.4760
  419TIP3   OH222671   1.035   5.828  12.367 -0.6232 -0.2587  0.0948
  419TIP3    H122672   1.078   5.876  12.437  1.1781  1.5736 -2.0940
  419TIP3    H222673   0.984   5.760  12.411 -1.3099  2.0791  3.2544
  420TIP3   OH222674   5.412   6.745   4.741  0.6209 -0.2200 -0.1409
  420TIP3    H122675   5.390   6.680   4.808 -0.3514  1.4331  1.2021
  420TIP3    H222676   5.493   6.784   4.771  0.7458 -0.2084 -0.4910
  421TIP3   OH222677   4.583   3.798  11.617  0.2272  0.0584 -0.0220
  421TIP3    H122678   4.516   3.770  11.679 -0.9901  0.1007 -1.2459
  421TIP3    H222679   4.651   3.732  11.622 -1.1050 -1.4255 -0.5468
  422TIP3   OH222680   5.208   3.117   0.912 -0.2145 -0.3876  0.0003
  422TIP3    H122681   5.140   3.184   0.917  1.4735  1.3407  2.6407
  422TIP3    H222682   5.255   3.137   0.832 -0.4167  0.9515  0.1875
  423TIP3   OH222683   2.575   6.233   2.246 -0.2254  0.4707 -0.1739
  423TIP3    H122684   2.587   6.168   2.177 -0.3090  1.2676 -0.9559
  423TIP3    H222685   2.509   6.293   2.212 -0.5188  0.6929  0.7408
  424TIP3   OH222686   0.873   3.756   4.517 -0.4906 -0.0576  0.1624
  424TIP3    H122687   0.923   3.749   4.598  0.8239 -0.8634 -0.6772
  424TIP3    H222688   0.907   3.836   4.475 -1.3095  0.4703  0.4746
  425TIP3   OH222689   5.702   6.254   2.157 -0.2107  0.1526 -0.5066
  425TIP3    H122690   5.689   6.215   2.070 -0.1656 -1.3554  0.1276
  425TIP3    H222691   5.643   6.206   2.214  1.2837 -0.3608  0.6816
  426TIP3   OH222692   5.453   2.123   0.629 -0.2995  0.0855  0.7362
  426TIP3    H122693   5.369   2.079   0.641 -0.2580 -2.2094 -4.5435
  426TIP3    H222694   5.513   2.077   0.688 -1.8426 -1.7384  0.9748
  427TIP3   OH222695   3.637   2.905   2.368 -0.0715 -0.8672 -0.7756
  427TIP3    H122696   3.704   2.870   2.427  1.1362 -0.0419 -1.5975
  427TIP3    H222697   3.671   2.888   2.280  0.8695  2.6595 -1.2549
  428TIP3   OH222698   0.530   5.849  16.834 -0.2927 -0.2375 -0.1506
  428TIP3    H122699   0.596   5.890  16.890  1.5690 -1.3532 -1.3850
  428TIP3    H222700   0.447   5.870  16.875  0.7232  2.2983  0.8256
  429TIP3   OH222701   1.530   6.103  14.863  0.2926 -0.1575 -0.0430
  429TIP3    H122702   1.616   6.086  14.902 -0.1738 -1.5241  0.4301
  429TIP3    H222703   1.498   6.180  14.911  0.9429 -0.0695  0.2647
  430TIP3   OH222704   2.756   2.113  15.644 -0.0538  0.1118 -0.3361
  430TIP3    H122705   2.693   2.107  15.573 -0.9811  0.3819  0.4541
  430TIP3    H222706   2.714   2.070  15.718 -0.0126  1.7610  0.6854
  431TIP3   OH222707   5.064   5.919   0.921 -0.0113  0.2180  0.4854
  431TIP3    H122708   5.104   5.871   0.994  0.4586 -1.6059 -0.8743
  431TIP3    H222709   5.093   6.009   0.933  2.3281 -0.5248  1.0626
  432TIP3   OH222710   3.180   5.553   5.973  0.4891 -0.4576  0.8048
  432TIP3    H122711   3.175   5.599   6.056  3.4072  1.5645  0.0297
  432TIP3    H222712   3.105   5.584   5.923  0.8369  1.3605  1.3476
  433TIP3   OH222713   5.984   6.475  11.543  0.1509 -0.0257 -0.3382
  433TIP3    H122714   6.027   6.482  11.458 -0.5849 -0.3806 -0.7491
  433TIP3    H222715   5.992   6.563  11.581 -1.9422  0.9628 -1.9700
  434TIP3   OH222716   6.225   0.621   0.699 -0.4985 -0.2426 -0.3949
  434TIP3    H122717   6.200   0.678   0.772 -1.7709  0.1597 -1.1207
  434TIP3    H222718   6.271   0.679   0.638 -1.0513 -0.1698 -0.7470
  435TIP3   OH222719   0.098   3.692   1.325  0.6349 -0.2648  0.2594
  435TIP3    H122720   0.079   3.630   1.255 -1.7758  1.8439 -1.1423
  435TIP3    H222721   0.030   3.759   1.316  2.0393  1.6612  2.7718
  436TIP3   OH222722   3.148   6.662   1.862 -0.6397  0.2421  0.0196
  436TIP3    H122723   3.185   6.584   1.821 -0.6269 -0.6875  1.7253
  436TIP3    H222724   3.208   6.683   1.933 -1.2203  1.1668  0.2525
  437TIP3   OH222725   0.392   0.534  13.842 -0.0650 -0.5730 -0.3668
  437TIP3    H122726   0.373   0.452  13.797 -0.5016 -0.5923 -0.1450
  437TIP3    H222727   0.335   0.534  13.918  1.4560 -1.0633  0.8202
  438TIP3   OH222728   6.746   3.250   2.327  0.0681 -0.4470 -0.5920
  438TIP3    H122729   6.747   3.217   2.237  0.4945 -2.3084  0.0513
  438TIP3    H222730   6.750   3.172   2.381 -0.7574  0.6082  1.0776
  439TIP3   OH222731   2.477   2.895   6.009 -0.5862  0.0009  0.1129
  439TIP3    H122732   2.565   2.882   6.047 -0.2866  1.3004 -0.0942
  439TIP3    H222733   2.493   2.941   5.927 -1.4932  0.6172  0.2694
  440TIP3   OH222734   2.673   5.996   0.527  0.6864 -0.0347  0.0145
  440TIP3    H122735   2.619   5.986   0.605  0.2247 -0.5173 -0.3579
  440TIP3    H222736   2.729   6.072   0.546  0.9185 -0.4346  0.9994
  441TIP3   OH222737   1.359   1.023  16.754 -0.6728 -0.2435 -0.3737
  441TIP3    H122738   1.429   1.087  16.764 -2.2024  1.3318  0.9600
  441TIP3    H222739   1.304   1.058  16.683 -2.1825  0.6482  1.1668
  442TIP3   OH222740   5.848   6.434  13.167 -0.2258 -0.0228 -0.5000
  442TIP3    H122741   5.846   6.527  13.190  0.0816 -0.1952  0.2710
  442TIP3    H222742   5.937   6.420  13.136 -0.0962 -0.1783 -0.0669
  443TIP3   OH222743   2.852   5.199   3.818 -0.4549  0.3777 -0.1474
  443TIP3    H122744   2.780   5.171   3.875  0.9251 -3.1232  0.1165
  443TIP3    H222745   2.909   5.250   3.876 -0.7126 -0.2888  0.7158
  444TIP3   OH222746   4.416   1.875  14.730 -0.2962  0.1663 -0.1813
  444TIP3    H122747   4.331   1.877  14.686 -0.6052 -0.1437  0.3991
  444TIP3    H222748   4.474   1.924  14.672 -0.2886 -1.6224 -1.7913
  445TIP3   OH222749   5.691   3.460  12.106 -0.1961  0.1550  0.2684
  445TIP3    H122750   5.704   3.554  12.115 -2.1173  0.2790  2.3304
  445TIP3    H222751   5.624   3.451  12.039 -1.4549  0.3971  1.4633
  446TIP3   OH222752   3.553   1.362   5.205  0.2229 -0.5158 -0.2154
  446TIP3    H122753   3.640   1.338   5.175  0.4471  0.5895 -0.4809
  446TIP3    H222754   3.503   1.281   5.201  0.9465 -0.9320 -1.0913
  447TIP3   OH222755   2.757   0.519   5.494 -0.5220 -0.0524  0.5215
  447TIP3    H122756   2.788   0.520   5.404  0.0390  1.4650  0.6951
  447TIP3    H222757   2.837   0.524   5.547 -0.8461 -0.8886  1.1158
  448TIP3   OH222758   0.940   4.155   5.747 -0.5937  0.3217  0.7762
  448TIP3    H122759   0.978   4.095   5.812 -0.1843 -0.9534 -0.5919
  448TIP3    H222760   0.879   4.208   5.798  0.0366 -0.3277  2.2948
  449TIP3   OH222761   6.370   3.237   4.655 -0.0849  0.0490 -0.7269
  449TIP3    H122762   6.379   3.215   4.562  1.2635  1.5330 -0.9938
  449TIP3    H222763   6.391   3.155   4.701  1.1341 -0.2186 -1.7095
  450TIP3   OH222764   6.486   0.854   0.955  0.0716  0.1919 -0.1193
  450TIP3    H122765   6.511   0.811   1.036 -0.9306  0.7383  0.5133
  450TIP3    H222766   6.395   0.881   0.970  0.2867  1.4643 -0.9179
  451TIP3   OH222767   3.509   6.149  14.571  0.2808 -0.2357 -0.2322
  451TIP3    H122768   3.415   6.149  14.587  0.4260  0.4089  0.7184
  451TIP3    H222769   3.518   6.137  14.477 -0.7981  1.1239 -0.5397
  452TIP3   OH222770   4.000   2.663  17.039 -0.4869  0.1189  0.2542
  452TIP3    H122771   3.990   2.741  16.984  0.2600 -0.7128 -1.1284
  452TIP3    H222772   3.915   2.654  17.083 -0.5271  1.7999  0.6062
  453TIP3   OH222773   0.669   3.545   6.349 -0.2226  0.5610  0.3184
  453TIP3    H122774   0.678   3.624   6.296  1.6284  0.4528  0.4183
  453TIP3    H222775   0.599   3.496   6.307 -0.1350  1.3942 -0.8504
  454TIP3   OH222776   1.043   1.278  12.070 -0.1145 -0.2303  0.1903
  454TIP3    H122777   1.096   1.343  12.116  1.3811 -1.9983  1.1299
  454TIP3    H222778   1.098   1.251  11.996  0.0271 -1.5489  0.7446
  455TIP3   OH222779   2.107   1.616  17.053  0.4851 -0.3163  0.2890
  455TIP3    H122780   2.060   1.685  17.006 -0.6711  0.6350  2.6930
  455TIP3    H222781   2.165   1.663  17.114  2.2963 -1.5051 -0.4148
  456TIP3   OH222782   5.807   5.432   1.479  0.2555 -0.6639  0.4032
  456TIP3    H122783   5.808   5.367   1.550  1.4149 -0.0097  1.0277
  456TIP3    H222784   5.898   5.434   1.447  0.6490  1.7130  1.4429
  457TIP3   OH222785   2.191   6.443  13.778  0.9587 -0.3778  0.5092
  457TIP3    H122786   2.286   6.438  13.794  0.9667  0.1982  0.6679
  457TIP3    H222787   2.177   6.532  13.746  1.0474 -1.5977 -3.4719
  458TIP3   OH222788   1.547   3.893   5.580  0.4909 -0.1751 -0.8347
  458TIP3    H122789   1.501   3.973   5.605 -0.1911 -0.6282 -0.5773
  458TIP3    H222790   1.554   3.898   5.485 -1.0124 -0.5496 -0.9919
  459TIP3   OH222791   6.556   5.778   1.954  0.1642  0.5598  0.0671
  459TIP3    H122792   6.544   5.684   1.939 -0.9672  0.6574  0.2225
  459TIP3    H222793   6.547   5.817   1.867 -1.8478  0.7147  0.2811
  460TIP3   OH222794   4.945   2.350  13.546  0.4391  0.1514  0.4759
  460TIP3    H122795   4.862   2.397  13.558  0.3887  0.0407  0.5607
  460TIP3    H222796   4.932   2.298  13.467 -0.1256 -1.0485  1.3219
  461TIP3   OH222797   6.226   0.077   2.438  0.0611  0.3563  0.2515
  461TIP3    H122798   6.280   0.003   2.413  1.2485  1.2854 -0.0050
  461TIP3    H222799   6.282   0.131   2.494 -0.8305  0.9710  0.5768
  462TIP3   OH222800   1.914   4.279  11.397  0.2803 -0.4094  0.0753
  462TIP3    H122801   1.875   4.269  11.483  1.2501  1.6925  0.8176
  462TIP3    H222802   2.008   4.265  11.411  0.4961  0.3512 -0.5456
  463TIP3   OH222803   2.939   2.766  12.529 -0.4311 -0.0324 -0.1033
  463TIP3    H122804   2.936   2.801  12.618  1.8387 -0.7740  0.3353
  463TIP3    H222805   3.005   2.819  12.485 -0.3047 -0.7613 -0.8187
  464TIP3   OH222806   2.512   1.262  14.697  0.7003 -0.4685  0.4437
  464TIP3    H122807   2.534   1.336  14.753  0.0830 -0.0700  0.1679
  464TIP3    H222808   2.443   1.294  14.640  2.1613 -0.4622 -1.4376
  465TIP3   OH222809   2.824   3.043  14.073  0.2081  0.4817 -0.2462
  465TIP3    H122810   2.780   3.110  14.126 -0.0407  1.5855 -1.7565
  465TIP3    H222811   2.770   3.037  13.994 -0.2294 -2.1280  0.1596
  466TIP3   OH222812   5.242   4.899  13.260  0.1087  0.1054 -0.7711
  466TIP3    H122813   5.253   4.840  13.334  0.0612  0.4071 -0.5219
  466TIP3    H222814   5.331   4.926  13.238  0.0191  1.4605  0.3626
  467TIP3   OH222815   4.319   1.247   5.074  0.0494 -0.2330  0.0826
  467TIP3    H122816   4.408   1.275   5.097  0.4291 -1.5456  0.2706
  467TIP3    H222817   4.283   1.321   5.024  1.0638  0.5162  0.4214
  468TIP3   OH222818   6.437   3.776  16.278 -0.0600 -0.3271 -0.2264
  468TIP3    H122819   6.493   3.802  16.351  1.2173  0.2290 -1.3553
  468TIP3    H222820   6.498   3.743  16.212 -1.0111  0.5684 -1.6109
  469TIP3   OH222821   3.742   6.588   6.521  0.1912  0.4320 -0.1764
  469TIP3    H122822   3.727   6.572   6.427  1.2553  0.8780 -0.4378
  469TIP3    H222823   3.827   6.547   6.539 -0.8308 -1.2460  1.0371
  470TIP3   OH222824   3.305   2.017   1.953 -0.3908 -0.6197 -0.3900
  470TIP3    H122825   3.399   2.010   1.938 -0.4482 -0.1682 -1.0096
  470TIP3    H222826   3.272   1.927   1.949  0.2843 -1.0142  1.7990
  471TIP3   OH222827   2.644   5.358  16.753 -0.2308 -0.1527  0.3140
  471TIP3    H122828   2.603   5.440  16.778 -2.3154 -1.0642  0.0738
  471TIP3    H222829   2.578   5.291  16.770  0.7563 -1.5909 -1.1345
  472TIP3   OH222830   0.983   2.912  12.129 -0.3448 -0.6602  0.4473
  472TIP3    H122831   0.923   2.906  12.055  0.6948 -0.9880 -0.4007
  472TIP3    H222832   0.960   2.838  12.185 -1.5179 -0.0747  0.7618
  473TIP3   OH222833   3.858   6.707  12.877  0.4938 -0.1669  0.6380
  473TIP3    H122834   3.771   6.685  12.843  0.1326  1.1518  0.6466
  473TIP3    H222835   3.888   6.780  12.822  2.2429 -1.5233 -0.2969
  474TIP3   OH222836   6.631   6.492  11.814  0.2748 -0.2041 -0.0923
  474TIP3    H122837   6.540   6.498  11.786  0.4073  0.9979 -0.2971
  474TIP3    H222838   6.629   6.515  11.907  0.0617 -2.6034  0.5862
  475TIP3   OH222839   1.510   1.933   0.116  0.1989  0.2434 -0.1071
  475TIP3    H122840   1.462   1.943   0.199 -0.1381 -0.7180 -0.1748
  475TIP3    H222841   1.528   2.022   0.088 -2.6818  0.7054 -0.7256
  476TIP3   OH222842   6.032   0.655  12.697 -0.2596  0.6435 -0.3058
  476TIP3    H122843   6.117   0.611  12.700  0.1837  1.2699 -2.0363
  476TIP3    H222844   5.972   0.595  12.741  0.7283 -0.6945 -0.7143
  477TIP3   OH222845   1.972   2.499   1.631 -0.4352  0.2860 -0.0457
  477TIP3    H122846   1.895   2.551   1.656  0.7678  2.4185 -0.5382
  477TIP3    H222847   2.046   2.557   1.647  1.0770 -1.6064  0.1204
  478TIP3   OH222848   5.872   0.370   4.153  0.2123  0.5139 -0.2995
  478TIP3    H122849   5.877   0.276   4.137 -0.8075  0.5228 -0.7370
  478TIP3    H222850   5.778   0.389   4.154  0.3329  1.2264  1.5941
  479TIP3   OH222851   6.160   1.336   0.094  0.1858  0.7211 -0.0354
  479TIP3    H122852   6.143   1.313   0.186  0.5590  0.8610  0.0695
  479TIP3    H222853   6.081   1.308   0.048 -0.0365  0.7176  0.3395
  480TIP3   OH222854   3.928   1.643  12.915 -0.1219 -0.1846  0.2487
  480TIP3    H122855   3.966   1.730  12.928  0.7629 -0.5109 -0.0686
  480TIP3    H222856   3.943   1.598  12.998 -1.9231  0.4222  0.9630
  481TIP3   OH222857   0.164   5.057   3.946  0.0095  0.2357  0.2240
  481TIP3    H122858   0.251   5.069   3.985  0.1670 -0.0273 -0.0384
  481TIP3    H222859   0.138   4.969   3.975 -2.2088  1.9359  4.2487
  482TIP3   OH222860   6.024   3.284   4.120 -0.7385  0.2216 -0.0471
  482TIP3    H122861   6.046   3.359   4.064 -0.4141 -0.0145 -0.2400
  482TIP3    H222862   6.055   3.309   4.207  1.3590 -0.5547 -0.5247
  483TIP3   OH222863   2.056   0.564  15.815  0.0814  0.0170  0.1954
  483TIP3    H122864   2.128   0.605  15.862  2.0998 -2.2758 -0.6928
  483TIP3    H222865   2.055   0.473  15.846 -1.7920 -0.2809 -0.5729
  484TIP3   OH222866   1.448   2.718  16.688  0.4798 -0.1390  0.2305
  484TIP3    H122867   1.474   2.806  16.661 -0.8294  0.2027  0.0203
  484TIP3    H222868   1.438   2.670  16.605 -2.0907  0.4906  0.1150
  485TIP3   OH222869   2.773   2.096  11.818 -0.1927  0.5828 -0.1954
  485TIP3    H122870   2.835   2.039  11.864  0.1070  0.3651 -0.8448
  485TIP3    H222871   2.757   2.169  11.878 -1.1215 -0.5125  0.9479
  486TIP3   OH222872   3.656   1.830  12.112  0.0620 -0.0065 -0.6605
  486TIP3    H122873   3.648   1.835  12.017  0.1803 -1.7089 -0.7775
  486TIP3    H222874   3.576   1.787  12.141  0.7934 -1.0608 -0.1674
  487TIP3   OH222875   3.410   1.638  12.359 -1.2457 -0.4863  0.3946
  487TIP3    H122876   3.336   1.582  12.384 -1.9555 -1.2874 -2.9868
  487TIP3    H222877   3.445   1.597  12.280  0.0183  2.3096 -0.6058
  488TIP3   OH222878   4.318   1.636  11.156  0.0307 -0.5707  0.7436
  488TIP3    H122879   4.268   1.572  11.105  0.6493 -0.2742 -0.2439
  488TIP3    H222880   4.407   1.603  11.156  0.5091  0.6661 -0.4134
  489TIP3   OH222881   5.468   3.523   3.414 -0.5256 -0.8196 -0.4362
  489TIP3    H122882   5.385   3.477   3.404 -0.4982 -0.8039 -0.7538
  489TIP3    H222883   5.522   3.463   3.466 -1.1657 -0.2659  0.8858
  490TIP3   OH222884   0.538   0.250   1.834  0.5500 -0.1024 -0.0054
  490TIP3    H122885   0.630   0.275   1.831  1.1598 -1.9646  1.2379
  490TIP3    H222886   0.539   0.159   1.865 -1.7354  0.0158  0.5951
  491TIP3   OH222887   4.741   4.719  15.597  0.3679 -0.0181 -0.0195
  491TIP3    H122888   4.800   4.784  15.634 -2.3981  1.6389  1.8014
  491TIP3    H222889   4.689   4.767  15.532 -1.7142 -0.3019  1.3528
  492TIP3   OH222890   2.735   3.943   2.000 -0.3615 -0.6663 -0.1404
  492TIP3    H122891   2.641   3.929   1.992 -0.7235  1.5321 -0.4098
  492TIP3    H222892   2.757   3.908   2.087 -1.7154  0.0963  0.5464
  493TIP3   OH222893   4.266   1.823   2.278 -0.0363  0.1449  0.3054
  493TIP3    H122894   4.219   1.769   2.341  1.4201 -0.8406  0.6051
  493TIP3    H222895   4.340   1.768   2.250  0.5003  1.3377 -0.7033
  494TIP3   OH222896   5.777   1.550   1.176 -0.2064  0.1545 -0.4162
  494TIP3    H122897   5.816   1.575   1.092  2.0114  0.9079  0.7575
  494TIP3    H222898   5.730   1.628   1.205 -1.8741 -0.4404 -1.3811
  495TIP3   OH222899   4.155   1.377  13.381  0.8101 -0.1555 -0.0657
  495TIP3    H122900   4.069   1.339  13.396  1.0155 -0.0694  1.5026
  495TIP3    H222901   4.185   1.337  13.299 -0.6319 -0.3061 -0.5439
  496TIP3   OH222902   0.412   3.109  13.207 -0.0785  0.5484 -0.2365
  496TIP3    H122903   0.323   3.100  13.175  0.6003 -1.8096 -1.7135
  496TIP3    H222904   0.425   3.035  13.266  1.4572 -0.3786 -1.6313
  497TIP3   OH222905   4.214   4.293   3.363 -0.3445  0.3018  0.5588
  497TIP3    H122906   4.202   4.304   3.457 -0.3781  1.1131  0.4678
  497TIP3    H222907   4.126   4.273   3.330 -0.2750 -0.3087  0.7388
  498TIP3   OH222908   6.213   0.127  14.649  0.0416  0.3101 -0.4851
  498TIP3    H122909   6.280   0.072  14.609  1.1073 -0.3793  2.0496
  498TIP3    H222910   6.164   0.163  14.575 -0.0672 -3.2124 -2.3084
  499TIP3   OH222911   3.417   5.127   4.624  0.5494  0.0909  0.0745
  499TIP3    H122912   3.417   5.076   4.543 -0.1279 -0.2953  0.3083
  499TIP3    H222913   3.502   5.171   4.625  0.6418 -0.0595 -0.7427
  500TIP3   OH222914   1.250   3.746   2.843 -0.0928  0.0067  0.1336
  500TIP3    H122915   1.237   3.709   2.930  0.8516 -1.0149 -0.1431
  500TIP3    H222916   1.217   3.836   2.851 -1.0475 -0.4046  1.2261
  501TIP3   OH222917   3.687   0.120  16.179 -0.0666  0.0705 -0.5371
  501TIP3    H122918   3.721   0.102  16.266 -3.4035  1.7953  1.3066
  501TIP3    H222919   3.690   0.215  16.171  2.0632 -0.0980 -3.2827
  502TIP3   OH222920   4.371   3.128   3.850  0.2681 -0.3637  0.1461
  502TIP3    H122921   4.461   3.113   3.822  0.7165  0.4882  1.0643
  502TIP3    H222922   4.358   3.067   3.922  0.6566  0.5846  1.0464
  503TIP3   OH222923   4.093   0.825   1.285 -0.3365  0.1114  0.1865
  503TIP3    H122924   4.079   0.767   1.211 -2.6808  1.2812 -0.3742
  503TIP3    H222925   4.073   0.772   1.362 -0.0388 -0.4935 -0.1444
  504TIP3   OH222926   5.919   4.328   3.123  0.2283  0.3212  0.4198
  504TIP3    H122927   6.008   4.295   3.138 -0.8362 -2.0700  2.2721
  504TIP3    H222928   5.919   4.416   3.161  0.8502 -1.1466  4.3586
  505TIP3   OH222929   0.914   0.680  15.922 -0.7458 -0.2344  0.2398
  505TIP3    H122930   0.909   0.591  15.958  0.8930  0.3039  1.9330
  505TIP3    H222931   0.911   0.667  15.827  0.7396 -2.2334  0.4047
  506TIP3   OH222932   2.172   3.342   3.863  0.0853 -0.0042 -0.3245
  506TIP3    H122933   2.203   3.253   3.880  0.3645  0.2895  0.7911
  506TIP3    H222934   2.133   3.370   3.946  1.5408  1.5413 -0.1015
  507TIP3   OH222935   1.348   5.117   1.351 -0.9935 -0.2000 -0.9126
  507TIP3    H122936   1.308   5.048   1.403 -2.4851 -0.0564 -1.8086
  507TIP3    H222937   1.442   5.107   1.366 -1.3077 -0.9400  0.7770
  508TIP3   OH222938   1.560   0.384  13.906 -0.0778  0.4199 -0.2149
  508TIP3    H122939   1.498   0.456  13.920 -0.2487  0.4337 -0.9801
  508TIP3    H222940   1.639   0.426  13.872 -0.2238  0.2441 -0.7922
  509TIP3   OH222941   5.784   1.874   3.632 -0.0491 -0.0712  0.1870
  509TIP3    H122942   5.786   1.809   3.702  2.4172  1.1749  1.4076
  509TIP3    H222943   5.868   1.919   3.639 -0.0772  0.7207 -3.0470
  510TIP3   OH222944   4.982   4.354   3.008 -0.8789 -0.4603  0.6958
  510TIP3    H122945   5.022   4.441   3.015 -0.4389 -0.7165  1.4036
  510TIP3    H222946   5.002   4.311   3.091 -0.7981 -1.3702  0.2204
  511TIP3   OH222947   5.623   2.960  13.890  0.2414  0.3904  0.0033
  511TIP3    H122948   5.594   2.901  13.821  0.7233  0.4661 -0.2661
  511TIP3    H222949   5.691   2.910  13.937  0.1079  0.4412  0.2530
  512TIP3   OH222950   0.050   2.930   1.441 -0.3295 -0.2618 -0.0993
  512TIP3    H122951   0.101   2.991   1.388 -0.7214 -1.6880 -2.2592
  512TIP3    H222952   0.003   2.986   1.503 -0.3332  1.6041 -1.6744
  513TIP3   OH222953   1.812   0.157  15.090  0.5316  0.6222  0.3642
  513TIP3    H122954   1.862   0.077  15.073  0.3418  0.8412 -1.3553
  513TIP3    H222955   1.826   0.174  15.183  1.0575 -1.0762  0.6326
  514TIP3   OH222956   3.779   5.363   4.286  0.2165  0.1496  0.5373
  514TIP3    H122957   3.817   5.396   4.367  0.4163  0.9494  0.1314
  514TIP3    H222958   3.710   5.426   4.265  0.4386  0.1827 -0.1236
  515TIP3   OH222959   4.664   1.735   6.165 -0.0115  0.4000  0.1239
  515TIP3    H122960   4.586   1.772   6.124  0.4153 -1.1019 -2.2098
  515TIP3    H222961   4.733   1.742   6.099  0.6340 -2.4178  0.3487
  516TIP3   OH222962   0.914   1.233   4.936  0.2411  0.5147 -0.0749
  516TIP3    H122963   0.948   1.166   4.995 -1.4562  0.2122  0.6286
  516TIP3    H222964   0.974   1.306   4.945  1.0147 -0.1883  0.6553
  517TIP3   OH222965   1.902   5.684  12.488  0.1580  0.3799  0.0944
  517TIP3    H122966   1.843   5.757  12.467 -1.2745 -1.0451 -1.0919
  517TIP3    H222967   1.943   5.709  12.571 -0.5939  2.3306 -0.0719
  518TIP3   OH222968   4.364   5.143   1.255 -0.0876  0.0561 -0.0119
  518TIP3    H122969   4.299   5.213   1.263  0.6488  0.5878  2.4017
  518TIP3    H222970   4.315   5.063   1.271 -0.2088  0.4777  2.1122
  519TIP3   OH222971   3.224   4.317  15.715 -0.5069  0.0753 -0.1081
  519TIP3    H122972   3.288   4.382  15.685 -0.3824 -0.4989 -1.1305
  519TIP3    H222973   3.139   4.358  15.700 -0.4181  0.2857 -0.0487
  520TIP3   OH222974   4.918   3.595  15.815  0.4193 -0.6445  0.0417
  520TIP3    H122975   4.833   3.620  15.851 -1.1825  0.7866 -4.1628
  520TIP3    H222976   4.980   3.656  15.856 -1.1363  0.5624  0.7095
  521TIP3   OH222977   5.020   4.315  16.163 -0.4011 -0.2724 -0.1306
  521TIP3    H122978   5.039   4.390  16.108 -1.3066  0.6685  0.7871
  521TIP3    H222979   5.090   4.315  16.229 -1.2375  0.7385  0.8028
  522TIP3   OH222980   0.873   5.222  13.188 -0.5608  0.0171 -0.1101
  522TIP3    H122981   0.828   5.168  13.253 -2.4115  0.7080 -0.7438
  522TIP3    H222982   0.816   5.298  13.176  0.7020  0.8487 -1.1200
  523TIP3   OH222983   5.927   4.429   2.709 -0.3371  0.3298  0.1722
  523TIP3    H122984   5.989   4.419   2.637 -0.7552  0.2559 -0.1833
  523TIP3    H222985   5.949   4.514   2.748  0.9479 -0.3629  0.9976
  524TIP3   OH222986   3.211   4.429  12.713  0.5490 -0.4721 -0.1258
  524TIP3    H122987   3.278   4.455  12.777  0.4597  2.0038 -0.9408
  524TIP3    H222988   3.242   4.464  12.630  0.1191 -2.6942 -1.3198
  525TIP3   OH222989   2.474   1.126   4.714 -0.6326  0.4919  0.1132
  525TIP3    H122990   2.519   1.047   4.683  1.4367  1.0569  1.5140
  525TIP3    H222991   2.486   1.126   4.808 -2.2800  1.5260  0.3729
  526TIP3   OH222992   4.000   5.271   0.938 -0.3335  0.2815  0.0414
  526TIP3    H122993   3.940   5.196   0.937  0.2828 -0.2156 -1.2183
  526TIP3    H222994   4.049   5.261   1.019 -1.2564  0.1441  0.6029
  527TIP3   OH222995   3.709   1.516   4.778  0.1146 -0.9177  0.0548
  527TIP3    H122996   3.654   1.590   4.752 -2.1243 -1.1104  3.5923
  527TIP3    H222997   3.682   1.444   4.721  0.2218  0.2219 -1.4764
  528TIP3   OH222998   6.330   5.613   1.179  0.3054  0.0539 -0.4264
  528TIP3    H122999   6.236   5.617   1.193  0.2931 -0.0498 -0.4782
  528TIP3    H223000   6.365   5.689   1.226  0.1973  0.0860 -0.3985
  529TIP3   OH223001   3.989   3.920  15.439 -0.1261  0.4934 -0.1520
  529TIP3    H123002   3.988   3.864  15.517 -1.2898  0.0457 -0.4728
  529TIP3    H223003   4.041   3.871  15.375 -1.4454 -0.4377 -0.5559
  530TIP3   OH223004   5.352   4.722  16.501  0.6180 -0.3247  0.2057
  530TIP3    H123005   5.281   4.660  16.514 -0.8123  1.1767 -0.1313
  530TIP3    H223006   5.323   4.779  16.430  1.2369  1.5732  1.3785
  531TIP3   OH223007   6.465   5.562  14.171  0.5794  0.1627  0.1680
  531TIP3    H123008   6.428   5.650  14.165 -2.0038 -0.9735 -2.7289
  531TIP3    H223009   6.532   5.559  14.102  1.5054  0.1311  1.0292
  532TIP3   OH223010   1.894   2.159  14.386  0.2861 -0.4155 -0.2273
  532TIP3    H123011   1.906   2.095  14.456 -1.8956 -1.5769 -0.8190
  532TIP3    H223012   1.885   2.242  14.431 -1.5586 -1.2035  0.9634
  533TIP3   OH223013   3.811   0.701  15.470 -0.2366 -0.0868  0.0570
  533TIP3    H123014   3.773   0.701  15.382  2.1030  0.3518 -1.0412
  533TIP3    H223015   3.866   0.622  15.472 -0.8202 -0.4860  1.4221
  534TIP3   OH223016   2.943   3.690  13.915  0.3828 -0.4316 -0.5545
  534TIP3    H123017   2.910   3.648  13.994  0.7112 -1.0640 -0.7441
  534TIP3    H223018   2.972   3.777  13.944 -2.6017  0.7057 -0.6070
  535TIP3   OH223019   2.536   3.753   0.067  0.0220 -0.8485  0.6241
  535TIP3    H123020   2.475   3.799   0.125 -0.2867 -1.6579  0.9486
  535TIP3    H223021   2.486   3.736  -0.013  0.8416  1.4761 -0.4789
  536TIP3   OH223022   4.416   3.222   2.147 -0.1401 -0.2846  0.2035
  536TIP3    H123023   4.466   3.153   2.104 -1.9298 -1.5100 -0.0109
  536TIP3    H223024   4.325   3.197   2.135 -0.7890  0.9735  2.0473
  537TIP3   OH223025   6.289   5.910  12.383  0.2025 -0.4235 -0.7242
  537TIP3    H123026   6.204   5.913  12.338 -0.0532  2.2890 -0.2478
  537TIP3    H223027   6.309   6.002  12.401  3.2952 -0.9623 -0.8626
  538TIP3   OH223028   0.551   0.366   5.831 -0.3192 -0.0915  0.2708
  538TIP3    H123029   0.497   0.316   5.894  0.1823 -1.1772 -0.1290
  538TIP3    H223030   0.503   0.358   5.749  0.0181 -0.3465  0.0972
  539TIP3   OH223031   5.221   3.309   1.741 -0.2054 -0.0232  0.5371
  539TIP3    H123032   5.279   3.259   1.798 -0.9563  0.6307  1.9291
  539TIP3    H223033   5.230   3.268   1.655  0.1012 -1.7643  1.3698
  540TIP3   OH223034   1.344   3.742   1.280 -0.1468  0.0530 -0.0515
  540TIP3    H123035   1.319   3.731   1.189 -0.4070 -0.4835  0.0841
  540TIP3    H223036   1.309   3.828   1.304  1.2954  0.9388 -0.9033
  541TIP3   OH223037   5.285   3.990   0.521  0.2563 -0.1575 -0.3297
  541TIP3    H123038   5.350   3.931   0.483 -0.0892  0.5236 -2.0609
  541TIP3    H223039   5.255   4.043   0.448 -2.0699 -0.2613  0.4565
  542TIP3   OH223040   0.285   5.406  11.494 -0.1121 -0.0122 -0.1282
  542TIP3    H123041   0.267   5.315  11.469  1.0234 -0.0256 -0.9643
  542TIP3    H223042   0.321   5.446  11.414  0.5889  0.8255  0.5904
  543TIP3   OH223043   2.969   4.388   2.339 -0.2641  0.0212 -0.2918
  543TIP3    H123044   2.876   4.404   2.355  0.3157  1.1483  2.6930
  543TIP3    H223045   3.013   4.463   2.379  1.9930 -1.1602 -0.3788
  544TIP3   OH223046   1.538   4.298   1.742 -0.2020 -0.1685  0.2738
  544TIP3    H123047   1.584   4.296   1.658 -0.9264  0.7832 -0.1606
  544TIP3    H223048   1.473   4.229   1.736  1.0348 -1.4434  0.8439
  545TIP3   OH223049   2.521   3.222  13.864 -0.1677  0.6103  0.4321
  545TIP3    H123050   2.560   3.135  13.854  1.3189  1.3502 -0.7017
  545TIP3    H223051   2.531   3.263  13.778 -2.6946  1.2139  0.3418
  546TIP3   OH223052   4.915   2.345  11.510 -0.0343  0.4733 -0.2183
  546TIP3    H123053   4.892   2.261  11.470 -0.1318 -0.6775  2.0756
  546TIP3    H223054   4.865   2.410  11.461 -1.4988 -1.0482 -0.8291
  547TIP3   OH223055   3.290   6.206  14.325  0.3362  0.4714  0.2485
  547TIP3    H123056   3.298   6.120  14.283  0.7191  0.6252 -0.0074
  547TIP3    H223057   3.257   6.188  14.412  1.0842 -0.0065  0.4440
  548TIP3   OH223058   2.734   4.664   5.096 -0.2003  0.7662 -0.4216
  548TIP3    H123059   2.803   4.614   5.139  0.1379  0.9788 -0.7035
  548TIP3    H223060   2.772   4.688   5.011  0.0437  2.3832  0.1113
  549TIP3   OH223061   0.819   1.413  10.995 -0.3283  0.5409  0.0854
  549TIP3    H123062   0.869   1.431  11.075 -0.4842  0.4615  0.1990
  549TIP3    H223063   0.733   1.452  11.011 -0.4079  0.3946  0.0139
  550TIP3   OH223064   5.903   1.573  10.865  0.9591  0.3498 -0.0607
  550TIP3    H123065   5.961   1.497  10.874 -1.2754 -1.3043  1.5530
  550TIP3    H223066   5.908   1.596  10.772  0.5328 -2.8200 -0.9900
  551TIP3   OH223067   1.979   1.109   3.877 -0.1308  0.2486  0.2521
  551TIP3    H123068   2.036   1.153   3.940 -0.7679  3.2102 -1.0972
  551TIP3    H223069   1.890   1.125   3.909 -0.4253  1.0191 -0.8896
  552TIP3   OH223070   2.688   4.811  15.353  0.7483 -0.1312  0.8216
  552TIP3    H123071   2.596   4.810  15.377  0.4683  1.2074 -0.0879
  552TIP3    H223072   2.713   4.903  15.354  1.3367 -0.1854 -1.5476
  553TIP3   OH223073   5.506   1.973   4.875  0.1685 -0.3295 -0.0307
  553TIP3    H123074   5.434   1.910   4.870 -1.3659  1.3832 -0.8945
  553TIP3    H223075   5.566   1.935   4.939 -0.9356 -2.3826 -0.1105
  554TIP3   OH223076   5.482   3.277  11.496 -0.2104  0.1278  0.0772
  554TIP3    H123077   5.441   3.262  11.582 -3.1523  0.4151 -1.1677
  554TIP3    H223078   5.530   3.197  11.478 -0.2929 -0.2942  1.5733
  555TIP3   OH223079   3.603   2.402  11.638  0.1238 -0.4153 -0.7424
  555TIP3    H123080   3.695   2.390  11.663 -0.1119 -1.1425 -0.1967
  555TIP3    H223081   3.589   2.497  11.643  0.7785 -0.3175 -0.6155
  556TIP3   OH223082   1.397   5.599   4.907 -0.5974 -0.5718 -0.0769
  556TIP3    H123083   1.377   5.510   4.936  0.6496 -0.7080  0.4077
  556TIP3    H223084   1.430   5.588   4.817 -1.3614 -0.4913 -0.3714
  557TIP3   OH223085   4.596   6.330  16.815  0.3933 -0.3520  0.3936
  557TIP3    H123086   4.677   6.283  16.834 -0.9940 -1.7254  3.5535
  557TIP3    H223087   4.558   6.284  16.740  2.2744  0.1095 -0.9169
  558TIP3   OH223088   0.103   3.751  12.640 -0.2514 -0.0772  0.3326
  558TIP3    H123089   0.026   3.735  12.586 -0.9710  1.6974  0.7525
  558TIP3    H223090   0.067   3.770  12.727  0.6493  0.7561  0.5409
  559TIP3   OH223091   3.819   3.536  13.430  0.4627  0.0889  0.1375
  559TIP3    H123092   3.823   3.479  13.353  0.7699 -0.1112  0.2986
  559TIP3    H223093   3.907   3.529  13.468  0.0117 -0.6130  1.0805
  560TIP3   OH223094   2.500   5.394  12.564  0.1647 -0.8082 -0.1011
  560TIP3    H123095   2.445   5.450  12.509  0.3334  1.3212  1.7308
  560TIP3    H223096   2.439   5.342  12.615 -0.1558  0.0872  0.4672
  561TIP3   OH223097   1.637   5.103  14.683  0.3256 -0.1859  0.5600
  561TIP3    H123098   1.689   5.183  14.676  1.4563 -0.9474 -0.0338
  561TIP3    H223099   1.646   5.061  14.597 -2.3615  0.2669 -0.0537
  562TIP3   OH223100   3.683   4.579  14.859  0.0392  0.1362 -0.2518
  562TIP3    H123101   3.772   4.606  14.882  0.0695 -0.7886  0.8034
  562TIP3    H223102   3.695   4.509  14.795  0.1727 -1.3244  1.3047
  563TIP3   OH223103   6.170   6.693   1.622  0.0006 -0.1793 -0.3721
  563TIP3    H123104   6.230   6.725   1.555  2.7680 -1.3609  1.3836
  563TIP3    H223105   6.191   6.600   1.631 -0.8816 -0.2334  1.5218
  564TIP3   OH223106   6.733   1.580   6.220  0.4364  0.0748 -0.3433
  564TIP3    H123107   6.816   1.540   6.246  0.0765 -0.7785 -0.4645
  564TIP3    H223108   6.753   1.672   6.208  1.2910 -0.0638 -0.0325
  565TIP3   OH223109   0.869   0.479  10.371 -0.3880 -0.4655 -0.2464
  565TIP3    H123110   0.827   0.393  10.364 -0.6223 -0.2585 -1.7097
  565TIP3    H223111   0.834   0.528  10.297  2.5151 -0.3298 -1.6388
  566TIP3   OH223112   6.089   1.446  14.921  0.0285 -0.3081  0.3560
  566TIP3    H123113   6.081   1.355  14.949 -0.5014  0.1496  1.8161
  566TIP3    H223114   6.001   1.482  14.933  0.3577  0.5295  0.3301
  567TIP3   OH223115   4.621   3.720   1.921 -0.0501  0.0115 -0.5996
  567TIP3    H123116   4.688   3.654   1.941 -1.3590 -0.8682  1.1909
  567TIP3    H223117   4.574   3.732   2.003 -1.5320  1.2648 -1.5770
  568TIP3   OH223118   1.166   2.330  13.230  0.1095  0.0654  0.4677
  568TIP3    H123119   1.256   2.298  13.226 -0.5336 -1.7788 -2.5297
  568TIP3    H223120   1.121   2.267  13.287  0.0003 -1.2402 -1.0080
  569TIP3   OH223121   2.605   6.550  16.962  0.5069 -0.0273  0.1753
  569TIP3    H123122   2.617   6.528  16.869 -0.4308 -0.8511  0.2309
  569TIP3    H223123   2.549   6.480  16.996  1.8312 -0.3982  1.6684
  570TIP3   OH223124   4.743   2.189   1.816  0.1627  0.1909  0.1085
  570TIP3    H123125   4.824   2.187   1.764 -1.2225 -1.1128 -2.1619
  570TIP3    H223126   4.738   2.279   1.849  3.1565 -0.0339  1.4634
  571TIP3   OH223127   5.935   5.708  12.565 -0.1123 -0.5798  0.5980
  571TIP3    H123128   5.902   5.730  12.478  0.6104  0.4937  0.5812
  571TIP3    H223129   5.981   5.625  12.553 -0.5906 -0.7821  0.1069
  572TIP3   OH223130   3.709   1.007  13.771  0.1755  0.0109 -0.4765
  572TIP3    H123131   3.770   0.944  13.733  3.4539  3.0686 -0.8261
  572TIP3    H223132   3.660   1.040  13.697  0.2737 -0.3243 -0.6918
  573TIP3   OH223133   0.959   3.122   1.672 -0.2305 -0.1334  0.1272
  573TIP3    H123134   0.921   3.101   1.587 -0.4893  0.4222  0.1016
  573TIP3    H223135   1.020   3.193   1.654 -0.9137  0.5748  0.5281
  574TIP3   OH223136   2.551   6.105  12.130 -0.2246 -0.1815 -0.6455
  574TIP3    H123137   2.487   6.088  12.061  0.6528  0.1035 -1.5676
  574TIP3    H223138   2.531   6.042  12.198 -1.9255  0.3689 -0.5972
  575TIP3   OH223139   5.322   0.118   5.570 -0.3610  0.3245 -0.5060
  575TIP3    H123140   5.305   0.176   5.496 -0.0104  0.9163 -0.1288
  575TIP3    H223141   5.408   0.080   5.551 -0.2076  0.5853 -0.3314
  576TIP3   OH223142   3.486   1.246   3.048 -0.1775 -0.0190  0.6449
  576TIP3    H123143   3.482   1.285   3.135 -1.1544  0.5616  0.3489
  576TIP3    H223144   3.508   1.154   3.065 -0.9013 -0.0454  1.5456
  577TIP3   OH223145   4.288   0.780  10.691  0.0002 -0.1464 -0.4995
  577TIP3    H123146   4.305   0.724  10.767  2.2749  0.7819 -0.2466
  577TIP3    H223147   4.205   0.748  10.657 -2.0464  0.4305  3.3101
  578TIP3   OH223148   1.042   2.153  12.931  0.7699  0.6773 -0.7320
  578TIP3    H123149   0.963   2.189  12.972  0.5630 -1.2540  0.7241
  578TIP3    H223150   1.009   2.094  12.864  0.9838  0.3572 -0.5565
  579TIP3   OH223151   0.560   0.275   0.792  0.3364 -0.3271  0.4111
  579TIP3    H123152   0.521   0.216   0.857  0.2471  0.7682  1.3867
  579TIP3    H223153   0.531   0.240   0.708 -1.4732 -0.4605  1.0383
  580TIP3   OH223154   6.713   5.792   1.353 -0.1576 -0.1467 -0.1970
  580TIP3    H123155   6.773   5.743   1.410 -0.0934 -1.0633 -1.0289
  580TIP3    H223156   6.626   5.758   1.373 -0.2576  0.2569  0.0735
  581TIP3   OH223157   6.593   5.673   4.908  0.4033 -0.2511 -0.3244
  581TIP3    H123158   6.511   5.722   4.915  1.5174  1.8223 -1.1005
  581TIP3    H223159   6.621   5.659   4.998 -0.2829 -0.0824 -0.0816
  582TIP3   OH223160   3.819   4.268   1.763  0.0297  0.5659  0.2560
  582TIP3    H123161   3.822   4.304   1.674 -0.6496  0.2774  0.1069
  582TIP3    H223162   3.852   4.338   1.818  0.1115  0.8860 -0.1895
  583TIP3   OH223163   5.535   5.469  11.248 -0.1244 -0.6374  0.0512
  583TIP3    H123164   5.453   5.474  11.197  0.3484 -1.4179 -0.8338
  583TIP3    H223165   5.596   5.423  11.190  1.2374  0.7466  0.3450
  584TIP3   OH223166   6.470   0.563  15.309 -0.2157 -0.1532  0.2411
  584TIP3    H123167   6.392   0.582  15.362 -0.9544  1.0437 -1.1842
  584TIP3    H223168   6.504   0.650  15.286  1.6929 -0.6510  0.9980
  585TIP3   OH223169   3.035   0.889   3.971  0.2197  0.1253 -0.8498
  585TIP3    H123170   3.095   0.939   3.916  1.5288  0.1753  0.5642
  585TIP3    H223171   3.025   0.806   3.925 -1.0891  1.2092 -2.6435
  586TIP3   OH223172   5.992   2.250  11.529 -0.1697  0.2029 -0.3535
  586TIP3    H123173   5.929   2.217  11.466 -0.7659 -1.6254  1.1077
  586TIP3    H223174   5.943   2.314  11.581 -0.4068 -0.1508 -0.1409
  587TIP3   OH223175   2.864   3.011   0.892  0.3708  0.3255  0.1532
  587TIP3    H123176   2.921   3.084   0.919  1.0702 -1.0351  2.7603
  587TIP3    H223177   2.923   2.949   0.849  0.6298 -0.3930  1.4735
  588TIP3   OH223178   4.311   1.535  16.872  0.0925  0.1830  0.0436
  588TIP3    H123179   4.258   1.564  16.947  0.2506 -1.7585  0.9712
  588TIP3    H223180   4.248   1.498  16.811  0.1021  0.5804 -0.2134
  589TIP3   OH223181   1.484   2.146  14.754 -0.3248 -0.6629  0.2343
  589TIP3    H123182   1.418   2.095  14.800  0.1770 -1.7613 -0.2186
  589TIP3    H223183   1.494   2.101  14.670  2.7240 -2.0189  1.1841
  590TIP3   OH223184   3.871   2.303  11.676 -0.4172 -0.6603  0.2989
  590TIP3    H123185   3.877   2.362  11.601  0.2050 -2.5382 -1.2408
  590TIP3    H223186   3.945   2.327  11.731 -0.3610  0.1948 -0.1360
  591TIP3   OH223187   5.483   3.920   1.481  0.3922 -0.0496 -0.1686
  591TIP3    H123188   5.537   3.971   1.420  1.4128 -0.5025  0.3227
  591TIP3    H223189   5.431   3.985   1.527 -1.1712  0.2390 -2.2057
  592TIP3   OH223190   5.720   3.886  13.140 -0.7544 -0.1974  0.0285
  592TIP3    H123191   5.732   3.927  13.055  1.0528  0.3558  0.5131
  592TIP3    H223192   5.703   3.794  13.119  0.4657 -0.2295 -0.9155
  593TIP3   OH223193   1.872   3.680  13.967  0.1348  0.7059 -0.4188
  593TIP3    H123194   1.828   3.765  13.965 -1.0075  0.1875  0.9545
  593TIP3    H223195   1.925   3.679  13.888 -1.0339  2.0624 -1.2761
  594TIP3   OH223196   4.034   2.682  16.628  0.5989  0.6240 -0.1574
  594TIP3    H123197   4.120   2.684  16.669  0.4845  1.4372  0.0676
  594TIP3    H223198   4.048   2.711  16.538  0.6191  0.3296 -0.2505
  595TIP3   OH223199   5.320   6.019  12.456 -0.1761  0.1717 -0.6559
  595TIP3    H123200   5.354   6.025  12.367  2.2663 -0.9079  0.1027
  595TIP3    H223201   5.360   6.093  12.502 -0.5969  0.1297 -0.2112
  596TIP3   OH223202   5.665   6.694   5.290  0.2342  0.8522  0.2020
  596TIP3    H123203   5.735   6.755   5.268 -0.4185  1.3977 -0.4237
  596TIP3    H223204   5.647   6.711   5.383  1.1380  0.4794  0.4518
  597TIP3   OH223205   1.099   5.413  16.061 -0.6029  0.3909  0.3612
  597TIP3    H123206   1.052   5.384  15.983 -0.8455  0.0004  0.6526
  597TIP3    H223207   1.072   5.353  16.130 -0.0110  0.4288  0.6342
  598TIP3   OH223208   5.679   6.232  13.198 -0.2718  0.3540 -0.3363
  598TIP3    H123209   5.642   6.230  13.110 -1.9338 -0.6942  0.3435
  598TIP3    H223210   5.734   6.310  13.199  0.8555 -0.3267 -2.6894
  599TIP3   OH223211   5.196   3.434   0.687 -0.4582  0.8702  0.9105
  599TIP3    H123212   5.115   3.385   0.703  0.3469 -0.6091  0.6085
  599TIP3    H223213   5.229   3.400   0.604  0.7954  0.9969  1.3357
  600TIP3   OH223214   2.638   4.548   5.684  0.2081 -0.1879 -0.4546
  600TIP3    H123215   2.635   4.634   5.727  0.0400  0.4267 -1.6411
  600TIP3    H223216   2.593   4.489   5.744 -0.1180  0.6580  0.1548
  601TIP3   OH223217   3.719   5.167   5.214  0.6126 -0.1008  0.5712
  601TIP3    H123218   3.766   5.093   5.251  1.1890  0.7420  1.5957
  601TIP3    H223219   3.637   5.171   5.264 -0.3374 -1.2324 -0.8370
  602TIP3   OH223220   0.650   1.206   2.084 -0.5914  0.0611  0.1978
  602TIP3    H123221   0.606   1.208   1.999 -1.0880 -0.4021  0.4447
  602TIP3    H223222   0.738   1.173   2.065 -0.8339 -0.4249 -0.0741
  603TIP3   OH223223   2.687   5.740  13.755 -0.0889 -0.9132 -0.0984
  603TIP3    H123224   2.728   5.717  13.672  1.6171 -1.8507  0.9381
  603TIP3    H223225   2.598   5.765  13.732  0.0303 -2.1150 -2.0843
  604TIP3   OH223226   6.727   2.736  17.163 -0.0153  0.0468 -0.1103
  604TIP3    H123227   6.680   2.784  17.095  1.8109 -0.3363 -1.7307
  604TIP3    H223228   6.741   2.649  17.125 -0.8305 -0.8901  1.6532
  605TIP3   OH223229   2.749   2.944  11.059 -0.4495  0.5921 -0.5356
  605TIP3    H123230   2.831   2.988  11.082 -0.1500  1.0312 -2.3083
  605TIP3    H223231   2.685   2.982  11.119  0.3666  1.2888 -0.0663
  606TIP3   OH223232   0.977   3.123   2.072 -0.0332  0.6549  0.1761
  606TIP3    H123233   0.883   3.130   2.088  0.1012 -0.1745  1.4510
  606TIP3    H223234   1.006   3.051   2.127  1.1992  0.2628 -0.9239
  607TIP3   OH223235   3.754   1.248   6.251  0.2258 -0.2117 -0.0775
  607TIP3    H123236   3.768   1.178   6.316 -1.5952 -2.4221 -1.8899
  607TIP3    H223237   3.690   1.307   6.293 -0.3558 -1.1837  0.4495
  608TIP3   OH223238   4.639   3.436   0.444  0.3765  0.0829 -0.3414
  608TIP3    H123239   4.610   3.521   0.412 -0.1577 -0.4511 -1.3388
  608TIP3    H223240   4.730   3.449   0.469  0.4503  0.8263 -0.9649
  609TIP3   OH223241   1.304   0.295   4.065 -0.0245  0.2879 -0.0442
  609TIP3    H123242   1.224   0.340   4.091  0.8599  1.2720  1.0482
  609TIP3    H223243   1.364   0.365   4.038  0.3922 -0.4531 -1.1359
  610TIP3   OH223244   6.554   6.574   0.311 -0.0274  0.1641  0.5902
  610TIP3    H123245   6.617   6.531   0.369  1.2197  0.4005 -0.5481
  610TIP3    H223246   6.482   6.600   0.369  1.6520  1.3695  2.2574
  611TIP3   OH223247   4.870   5.598   2.392 -0.0959  0.0484  0.7033
  611TIP3    H123248   4.914   5.582   2.308  1.3170  3.4863  0.6179
  611TIP3    H223249   4.806   5.528   2.399 -0.3347 -0.3787 -3.3164
  612TIP3   OH223250   2.494   1.275   0.273  0.7166  0.0676 -0.7335
  612TIP3    H123251   2.435   1.319   0.211  0.2292 -0.8591 -0.9501
  612TIP3    H223252   2.562   1.339   0.291 -0.0719  0.9679 -0.9013
  613TIP3   OH223253   6.300   2.252   3.668  0.1782  0.2454  0.2404
  613TIP3    H123254   6.214   2.271   3.630 -0.7743 -1.9220  1.1323
  613TIP3    H223255   6.358   2.318   3.630 -1.7739  1.5010 -0.7384
  614TIP3   OH223256   6.644   1.560   4.592 -0.1981 -0.0524 -0.0209
  614TIP3    H123257   6.708   1.564   4.521  1.9147 -0.1780  1.7889
  614TIP3    H223258   6.581   1.629   4.571 -0.0454 -0.5081 -2.3135
  615TIP3   OH223259   0.959   5.605  11.855  0.1617 -0.0410 -0.0414
  615TIP3    H123260   0.949   5.541  11.783  0.6958  0.3275 -0.4515
  615TIP3    H223261   1.054   5.617  11.863  0.0744  0.4753  0.2372
  616TIP3   OH223262   0.981   4.683  10.619  0.4453  0.4127  0.2405
  616TIP3    H123263   0.896   4.675  10.662 -1.2632 -2.6899 -3.1653
  616TIP3    H223264   1.028   4.604  10.643  2.7642  2.2510  2.3844
  617TIP3   OH223265   1.329   6.194  12.880 -0.0146  0.1488 -0.4337
  617TIP3    H123266   1.377   6.150  12.810 -1.5645 -2.4868  0.0279
  617TIP3    H223267   1.344   6.288  12.864  1.2519 -0.4116 -3.0989
  618TIP3   OH223268   3.814   3.298   3.272  0.1509  0.9488 -0.0239
  618TIP3    H123269   3.884   3.293   3.337 -0.6048  0.5474  0.7631
  618TIP3    H223270   3.855   3.342   3.197  1.4085  0.2292  0.2117
  619TIP3   OH223271   2.078   4.862   2.747 -0.4530 -0.2820 -0.3225
  619TIP3    H123272   2.066   4.838   2.839 -1.9216  0.9810 -0.1338
  619TIP3    H223273   2.118   4.949   2.751  0.1410 -0.5252 -0.8974
  620TIP3   OH223274   2.344   3.703   4.876 -1.1820 -0.4601 -0.5329
  620TIP3    H123275   2.392   3.631   4.917  0.5657  0.5754 -0.6575
  620TIP3    H223276   2.352   3.775   4.939 -0.5079  0.4370 -1.6090
  621TIP3   OH223277   6.553   3.550  11.098 -0.5190  0.2818 -0.2700
  621TIP3    H123278   6.550   3.492  11.022 -0.8852 -1.7242  1.1797
  621TIP3    H223279   6.645   3.573  11.107  0.2544 -2.6675  0.8280
  622TIP3   OH223280   1.349   1.789   4.024 -0.1341 -0.4551  0.0937
  622TIP3    H123281   1.326   1.868   4.073 -0.4623 -1.5581  1.8059
  622TIP3    H223282   1.265   1.745   4.009  0.2659 -2.4434  2.7602
  623TIP3   OH223283   0.899   1.285   1.884  0.2249  0.3638  0.4742
  623TIP3    H123284   0.928   1.213   1.940 -0.2468 -0.1373  0.0848
  623TIP3    H223285   0.806   1.267   1.868  0.0320  1.2074  0.5972
  624TIP3   OH223286   5.627   6.330   4.976 -0.4827 -0.4755 -0.1069
  624TIP3    H123287   5.582   6.297   5.053 -0.0204  0.7218  0.6994
  624TIP3    H223288   5.717   6.296   4.983 -0.9210 -2.0074 -1.1839
  625TIP3   OH223289   0.685   0.355   2.160  0.3568 -0.6986  0.0001
  625TIP3    H123290   0.673   0.331   2.252  1.8761 -1.2347  0.0809
  625TIP3    H223291   0.711   0.273   2.117 -0.0989 -0.4025 -0.8747
  626TIP3   OH223292   6.623   4.169   1.978 -0.4054 -0.0318 -0.5290
  626TIP3    H123293   6.540   4.163   2.025 -0.0364  2.5953  0.6335
  626TIP3    H223294   6.687   4.130   2.039 -0.3178  1.0460  0.0997
  627TIP3   OH223295   5.857   1.068  16.004 -0.1890  0.0772  0.3659
  627TIP3    H123296   5.899   0.993  15.962  1.0403  0.4113  0.9351
  627TIP3    H223297   5.893   1.144  15.959 -0.7773  0.3600  0.3638
  628TIP3   OH223298   2.612   1.106   0.612 -0.0820 -0.2652 -0.1616
  628TIP3    H123299   2.633   1.199   0.616  0.3993 -0.4032  0.7166
  628TIP3    H223300   2.667   1.071   0.543  1.1215 -0.2371  0.7525
  629TIP3   OH223301   4.366   5.140  11.221 -0.2115  0.0358 -0.4006
  629TIP3    H123302   4.358   5.100  11.307  1.7232  0.8453  0.2056
  629TIP3    H223303   4.277   5.168  11.199 -0.7116 -0.0329  1.4003
  630TIP3   OH223304   0.403   0.647   6.128 -0.4808 -0.6122 -0.8810
  630TIP3    H123305   0.356   0.687   6.055  0.2660  0.7347 -0.6681
  630TIP3    H223306   0.363   0.685   6.207  0.1010 -0.4368 -0.6632
  631TIP3   OH223307   2.754   1.489  11.708  0.0939 -0.0239 -0.6251
  631TIP3    H123308   2.796   1.404  11.716 -0.0559 -0.1413 -1.0227
  631TIP3    H223309   2.790   1.526  11.627  1.7136  1.1872  0.5947
  632TIP3   OH223310   4.878   0.566  14.457 -0.1395  0.3469 -0.1206
  632TIP3    H123311   4.896   0.493  14.398  0.1029  0.0690  0.2911
  632TIP3    H223312   4.919   0.541  14.540 -1.3409  0.2851  0.4694
  633TIP3   OH223313   1.221   0.357   6.335 -0.2755  0.4435 -0.7012
  633TIP3    H123314   1.226   0.420   6.406  0.0015  0.2657 -0.5628
  633TIP3    H223315   1.127   0.346   6.320 -0.3448  0.2326 -0.1429
  634TIP3   OH223316   3.436   1.113   5.189 -0.3266  0.4942 -0.3438
  634TIP3    H123317   3.349   1.075   5.201  0.0900 -0.1349  0.8194
  634TIP3    H223318   3.497   1.045   5.220  0.4924  1.6006  0.5838
  635TIP3   OH223319   1.720   4.837   5.200  0.2090 -0.2884 -0.6091
  635TIP3    H123320   1.758   4.900   5.261 -0.8213  1.0673 -1.3258
  635TIP3    H223321   1.643   4.804   5.246  0.0807 -0.1298 -0.7096
  636TIP3   OH223322   1.047   3.817  13.643 -0.0945  0.0226 -0.4378
  636TIP3    H123323   1.076   3.905  13.616  0.6026 -0.2081 -0.4614
  636TIP3    H223324   0.959   3.808  13.605 -0.2623  0.7947 -0.2471
  637TIP3   OH223325   2.049   6.503  15.711 -0.3326 -0.1524 -0.1565
  637TIP3    H123326   2.080   6.417  15.739  1.7132  0.7845  0.6470
  637TIP3    H223327   2.084   6.514  15.623 -0.4949 -0.0760 -0.2124
  638TIP3   OH223328   3.708   3.856   2.743  0.0750  0.0481 -0.1902
  638TIP3    H123329   3.635   3.916   2.732  1.9055  2.0889 -2.2317
  638TIP3    H223330   3.694   3.816   2.829 -3.9560 -0.5492 -0.9511
  639TIP3   OH223331   4.259   3.288  13.240  0.7465  0.5680  0.5691
  639TIP3    H123332   4.291   3.361  13.294 -0.0643  0.5204  1.1227
  639TIP3    H223333   4.170   3.271  13.272  1.1924 -1.1782  0.9800
  640TIP3   OH223334   4.012   0.032   1.291 -0.1259  0.6836  0.1726
  640TIP3    H123335   4.066   0.073   1.358  2.1240  0.5756 -1.4801
  640TIP3    H223336   3.937   0.091   1.282  0.7939  2.0354  1.0016
  641TIP3   OH223337   2.811   2.841  17.037 -0.8597  0.1784 -0.0699
  641TIP3    H123338   2.772   2.925  17.061 -0.0693  0.0148  1.9651
  641TIP3    H223339   2.743   2.777  17.056 -0.8219  0.2041  0.1578
  642TIP3   OH223340   5.107   1.595  12.203  0.1021  0.4066 -0.1150
  642TIP3    H123341   5.149   1.623  12.122  1.6677 -1.3656  0.0355
  642TIP3    H223342   5.168   1.621  12.272  0.2196 -0.7464  0.2391
  643TIP3   OH223343   3.758   2.989   0.484 -0.0538  0.2834 -0.2369
  643TIP3    H123344   3.692   2.956   0.545  1.7558  0.5646  2.0091
  643TIP3    H223345   3.805   2.911   0.456  0.9255  0.3988  1.0148
  644TIP3   OH223346   5.200   4.047  11.040  0.0847 -0.0602  0.5021
  644TIP3    H123347   5.138   4.052  11.113 -1.5007 -0.8038 -0.7139
  644TIP3    H223348   5.144   4.040  10.963  1.7166  0.1265 -0.7337
  645TIP3   OH223349   5.090   5.441  15.935 -0.1427 -0.4011 -0.2862
  645TIP3    H123350   5.074   5.407  16.023  0.5295  1.8838  0.8139
  645TIP3    H223351   5.166   5.393  15.904 -0.1602 -0.9778  0.5425
  646TIP3   OH223352   3.594   6.664   5.448  0.2522 -0.2653  0.0424
  646TIP3    H123353   3.591   6.760   5.443  0.5821 -0.2572  0.0058
  646TIP3    H223354   3.575   6.645   5.540 -1.6197 -0.2485 -0.2998
  647TIP3   OH223355   1.562   0.812  12.270 -0.1987 -0.0770 -0.6029
  647TIP3    H123356   1.536   0.849  12.185 -0.8255  0.3583 -0.2343
  647TIP3    H223357   1.571   0.888  12.327 -1.2522 -0.4530  0.1025
  648TIP3   OH223358   2.305   4.162  17.046  0.1969  0.0315 -0.0740
  648TIP3    H123359   2.228   4.108  17.030  0.3840 -0.3107  0.1818
  648TIP3    H223360   2.350   4.166  16.961  1.3723 -2.0601  0.4075
  649TIP3   OH223361   2.775   6.104  13.701  0.1160 -0.4848 -0.0519
  649TIP3    H123362   2.805   6.044  13.633  1.3156  0.3858 -0.3271
  649TIP3    H223363   2.856   6.138  13.740 -0.5470 -0.0483  0.9881
  650TIP3   OH223364   4.526   4.889   1.731  0.1185  0.2225  0.3733
  650TIP3    H123365   4.534   4.985   1.729 -1.8694  0.4032 -1.0989
  650TIP3    H223366   4.522   4.863   1.639 -1.6129 -1.0411  0.7561
  651TIP3   OH223367   3.304   4.546   3.079 -0.0688  0.2915  0.3566
  651TIP3    H123368   3.323   4.595   2.999 -1.0512  1.1881  0.6499
  651TIP3    H223369   3.350   4.463   3.067  0.0956  0.5433 -0.9835
  652TIP3   OH223370   5.380   4.071   5.817  0.1655 -0.1430 -0.4409
  652TIP3    H123371   5.416   4.127   5.886  1.2568 -0.8340 -0.4154
  652TIP3    H223372   5.303   4.118   5.786  0.2559  0.6946  0.5241
  653TIP3   OH223373   5.630   2.741  16.455 -0.3426 -0.2300 -0.6218
  653TIP3    H123374   5.565   2.810  16.470 -0.1466  0.2704 -1.9529
  653TIP3    H223375   5.694   2.752  16.526 -0.4122  0.8425 -0.7139
  654TIP3   OH223376   2.444   1.276   2.320  0.3740  0.2893  0.9072
  654TIP3    H123377   2.420   1.338   2.389 -0.3477  0.6238  0.3615
  654TIP3    H223378   2.538   1.286   2.310  0.3532  0.8470  1.2559
  655TIP3   OH223379   1.506   3.694   6.369 -0.3659 -0.1464  0.0347
  655TIP3    H123380   1.492   3.601   6.389  1.5630 -0.3988  0.3287
  655TIP3    H223381   1.592   3.714   6.405  0.6141  0.9594 -2.6459
  656TIP3   OH223382   2.575   2.343   1.288  0.2265 -0.0125  0.1755
  656TIP3    H123383   2.635   2.365   1.216  0.9914 -2.6082 -0.1037
  656TIP3    H223384   2.519   2.274   1.252  1.9181 -2.8638  2.4898
  657TIP3   OH223385   5.004   0.753   3.338  0.0478  0.0028  0.7727
  657TIP3    H123386   5.076   0.815   3.345 -0.7376  0.8368  1.7375
  657TIP3    H223387   4.969   0.766   3.250  1.4736 -0.9005  0.0283
  658TIP3   OH223388   5.416   5.215  15.116 -0.4954  0.0608  0.3941
  658TIP3    H123389   5.375   5.233  15.201 -1.1201 -1.6927  0.5026
  658TIP3    H223390   5.433   5.302  15.079 -4.3836  0.9622  0.2921
  659TIP3   OH223391   2.673   5.628   2.378 -0.1408  0.2907 -0.3559
  659TIP3    H123392   2.619   5.707   2.377 -1.6437 -0.6016  2.2950
  659TIP3    H223393   2.632   5.570   2.314 -0.0483  0.9921 -1.0694
  660TIP3   OH223394   5.988   4.112   0.486  0.1551  0.1266 -0.1521
  660TIP3    H123395   6.076   4.111   0.448 -0.0760 -0.7788 -0.6920
  660TIP3    H223396   5.987   4.190   0.542  1.5842 -0.2864  0.5107
  661TIP3   OH223397   4.066   2.830   3.268 -0.5008  0.3692  0.5132
  661TIP3    H123398   4.149   2.810   3.225  0.1347  1.9727  0.9230
  661TIP3    H223399   4.039   2.915   3.231 -1.5921  0.2095  0.9010
  662TIP3   OH223400   2.955   2.812   4.285 -0.0662 -0.1517  0.1541
  662TIP3    H123401   2.936   2.741   4.223  0.8838 -0.7983  0.5787
  662TIP3    H223402   2.945   2.892   4.233 -1.0929 -0.5825 -0.3539
  663TIP3   OH223403   4.104   3.827   0.405 -0.7008  0.0030 -0.2958
  663TIP3    H123404   4.074   3.746   0.366 -0.7256  0.4639 -1.2628
  663TIP3    H223405   4.115   3.887   0.331  1.1542  0.3121  0.1775
  664TIP3   OH223406   4.237   3.692   4.916 -0.4370  0.1921  0.0196
  664TIP3    H123407   4.319   3.644   4.917 -0.5981 -0.1077 -0.6541
  664TIP3    H223408   4.212   3.700   5.008  1.7133  2.6515  0.5099
  665TIP3   OH223409   1.444   2.915   2.602 -0.2770  0.4530  0.4671
  665TIP3    H123410   1.441   2.888   2.694 -0.1306 -0.0501  0.3303
  665TIP3    H223411   1.361   2.885   2.566  0.9376 -2.2613 -0.3232
  666TIP3   OH223412   5.768   5.789  17.045  0.5030 -0.0117  0.4731
  666TIP3    H123413   5.675   5.791  17.068  0.3650  0.6211 -0.1151
  666TIP3    H223414   5.782   5.868  16.993  1.0970 -0.7185 -0.4726
  667TIP3   OH223415   5.579   5.876   5.536  1.2255 -0.2284 -0.4126
  667TIP3    H123416   5.626   5.833   5.607  3.2882  1.0238 -0.9260
  667TIP3    H223417   5.583   5.969   5.557 -1.3902 -0.0577 -0.3441
  668TIP3   OH223418   4.372   3.356   1.769  0.0634  0.4608 -0.7378
  668TIP3    H123419   4.453   3.305   1.772 -0.1118 -0.1001 -3.2980
  668TIP3    H223420   4.400   3.447   1.775  0.5763  0.2046  1.4892
  669TIP3   OH223421   6.723   0.362  15.145 -0.4538  0.1305 -0.4108
  669TIP3    H123422   6.776   0.440  15.159  0.3525 -0.3694 -0.6415
  669TIP3    H223423   6.633   0.395  15.136 -0.6448  0.7928  2.7551
  670TIP3   OH223424   1.333   3.206  15.433  0.3413  0.1501  0.1929
  670TIP3    H123425   1.290   3.191  15.349  1.1195 -0.2431 -0.1481
  670TIP3    H223426   1.266   3.245  15.488 -1.0677 -2.2652  0.3194
  671TIP3   OH223427   3.744   4.574  12.990  0.1816  0.5812  0.2806
  671TIP3    H123428   3.740   4.488  13.031 -0.0721 -0.0948 -1.1087
  671TIP3    H223429   3.724   4.636  13.061 -0.2056 -0.5332  1.1654
  672TIP3   OH223430   5.235   3.949  12.315  0.3050 -0.1392 -0.1302
  672TIP3    H123431   5.195   3.967  12.231  1.2078  2.4964 -0.0664
  672TIP3    H223432   5.180   3.996  12.379 -0.9434 -2.8614  0.9793
  673TIP3   OH223433   6.517   2.487  14.504  0.2772  0.9648  0.6899
  673TIP3    H123434   6.552   2.555  14.562 -0.5902  1.0431  1.1419
  673TIP3    H223435   6.422   2.491  14.517  0.2979 -1.9507  2.5876
  674TIP3   OH223436   1.463   1.647   6.751 -0.1579  0.6789 -0.6287
  674TIP3    H123437   1.541   1.594   6.766 -0.9638 -0.5030 -0.5187
  674TIP3    H223438   1.391   1.594   6.784 -1.0421  1.6472 -0.9589
  675TIP3   OH223439   5.549   0.614   0.311  0.5280  0.2754 -0.9600
  675TIP3    H123440   5.467   0.639   0.267  0.4050  2.8031  0.5053
  675TIP3    H223441   5.537   0.521   0.332 -2.5983  0.8554  0.3913
  676TIP3   OH223442   5.022   5.781   1.172 -0.0092  0.0559 -0.0822
  676TIP3    H123443   4.943   5.825   1.202 -0.9904 -1.9123  0.3617
  676TIP3    H223444   5.025   5.699   1.222  2.0703 -0.1381 -0.4152
  677TIP3   OH223445   1.259   3.324  11.900  0.2927  0.3742 -0.3835
  677TIP3    H123446   1.189   3.284  11.952  0.0510 -1.5791 -2.0996
  677TIP3    H223447   1.221   3.406  11.868  0.2142  1.2900  1.8652
  678TIP3   OH223448   1.353   6.094   5.627  0.2567 -0.6040  0.1356
  678TIP3    H123449   1.335   6.007   5.663  0.9222  0.1012  2.3681
  678TIP3    H223450   1.292   6.152   5.673 -0.2617  0.1143 -1.4059
  679TIP3   OH223451   0.266   3.822   0.738  0.4368  0.0714 -0.6340
  679TIP3    H123452   0.240   3.737   0.703 -1.5749 -0.9797  2.8897
  679TIP3    H223453   0.341   3.803   0.795  0.8339  0.9111 -0.8571
  680TIP3   OH223454   6.265   3.962  13.848 -0.7342  0.0562  0.2237
  680TIP3    H123455   6.235   3.881  13.806  1.5791  0.5188 -2.6377
  680TIP3    H223456   6.206   4.029  13.814  1.0472  0.4087 -2.5147
  681TIP3   OH223457   4.058   2.916  14.171 -0.0470 -0.1413  0.0005
  681TIP3    H123458   4.066   2.821  14.179 -1.9778 -0.5627 -2.0320
  681TIP3    H223459   4.052   2.947  14.261  1.3986 -1.8341  0.7460
  682TIP3   OH223460   2.096   4.180  15.888  0.6640  0.0023  0.0997
  682TIP3    H123461   2.065   4.138  15.969  3.5041  2.7003  2.8915
  682TIP3    H223462   2.147   4.113  15.843 -1.1017 -1.6154  0.3717
  683TIP3   OH223463   0.672   3.355   2.229 -0.4316 -0.4826 -0.4586
  683TIP3    H123464   0.693   3.436   2.276  2.1862  0.1786 -2.4983
  683TIP3    H223465   0.641   3.385   2.144  0.8903 -1.5765 -1.3618
  684TIP3   OH223466   1.479   5.908   3.287 -0.3140  0.6702 -0.1565
  684TIP3    H123467   1.566   5.942   3.266  0.2669 -0.8664 -0.3915
  684TIP3    H223468   1.469   5.926   3.381  0.3557  0.7013 -0.0817
  685TIP3   OH223469   1.159   6.427   4.064 -0.0631 -0.0635 -0.1571
  685TIP3    H123470   1.190   6.422   3.973  2.0121 -3.5703  0.5687
  685TIP3    H223471   1.225   6.479   4.109  1.2957 -1.8617  0.0553
  686TIP3   OH223472   2.814   1.963  16.928 -0.2726  0.3686 -0.4822
  686TIP3    H123473   2.746   1.911  16.885  0.6307 -0.8694 -0.4423
  686TIP3    H223474   2.847   2.020  16.859 -0.9011  0.5310 -0.6582
  687TIP3   OH223475   6.141   1.518  15.775  0.5170  0.3988 -0.1698
  687TIP3    H123476   6.179   1.532  15.689 -0.5988 -0.7692 -0.8819
  687TIP3    H223477   6.070   1.582  15.780 -1.2695 -1.3788 -1.3365
  688TIP3   OH223478   1.079   0.836   6.304 -0.6076 -0.2621  0.0068
  688TIP3    H123479   0.992   0.870   6.323 -0.2863  0.5695  0.0672
  688TIP3    H223480   1.122   0.831   6.389 -0.2736  0.2829 -0.1232
  689TIP3   OH223481   5.079   2.565   5.934  0.3618  0.1799  0.0967
  689TIP3    H123482   5.131   2.590   5.858 -0.2781  0.8153 -0.1420
  689TIP3    H223483   5.096   2.471   5.944 -0.2700 -0.1340 -1.4196
  690TIP3   OH223484   1.382   0.451  13.539 -0.6867  0.7044 -0.5669
  690TIP3    H123485   1.471   0.438  13.505 -0.5942  1.6825 -0.7536
  690TIP3    H223486   1.380   0.544  13.562 -0.8676  0.1693  1.8186
  691TIP3   OH223487   0.252   4.376   4.804 -0.0468 -0.0868 -0.1228
  691TIP3    H123488   0.187   4.388   4.735  0.2836 -0.9157 -0.6063
  691TIP3    H223489   0.334   4.360   4.757  0.5393  1.0563  0.4734
  692TIP3   OH223490   0.154   3.836   6.383 -0.5129  0.3071  0.1237
  692TIP3    H123491   0.107   3.837   6.299 -0.3964 -1.0621  0.0130
  692TIP3    H223492   0.096   3.789   6.443  0.2136 -0.4122  0.2856
  693TIP3   OH223493   1.789   6.764   5.783  0.2554 -0.5508 -1.0045
  693TIP3    H123494   1.708   6.781   5.832 -0.8692 -0.9290 -2.6292
  693TIP3    H223495   1.829   6.850   5.774  0.5278 -0.4779  0.5860
  694TIP3   OH223496   3.892   0.855   5.310 -0.6741  0.1345 -0.4596
  694TIP3    H123497   3.863   0.943   5.284 -0.7496  0.1541 -0.3116
  694TIP3    H223498   3.969   0.838   5.256  1.4919  1.7102  1.8901
  695TIP3   OH223499   5.793   2.555  12.681  0.4532 -0.6255  0.4658
  695TIP3    H123500   5.805   2.648  12.661  0.1324 -0.6445  0.1794
  695TIP3    H223501   5.882   2.521  12.691  0.6909 -0.7871 -1.7453
  696TIP3   OH223502   5.285   2.915   5.383 -0.1810 -0.3442  0.0331
  696TIP3    H123503   5.239   2.988   5.424  1.3694 -0.0913  1.4479
  696TIP3    H223504   5.218   2.848   5.370 -1.1428  0.3820  1.0665
  697TIP3   OH223505   0.309   3.807   3.070 -0.1667  0.2485 -0.1552
  697TIP3    H123506   0.346   3.792   2.983 -2.4308 -1.7832 -0.8546
  697TIP3    H223507   0.383   3.795   3.130  0.8279 -1.3353 -1.6262
  698TIP3   OH223508   5.231   1.278  16.815 -0.2766 -0.3752  0.1015
  698TIP3    H123509   5.297   1.314  16.757  0.3423  1.0389  1.5995
  698TIP3    H223510   5.242   1.183  16.808 -0.7399 -0.2927 -2.5924
  699TIP3   OH223511   6.457   3.308   1.837 -0.3759  0.1833 -0.6634
  699TIP3    H123512   6.377   3.302   1.890 -0.3945  0.1791 -0.6918
  699TIP3    H223513   6.518   3.357   1.891 -0.0648 -0.6505 -0.2314
  700TIP3   OH223514   0.591   1.752   1.814  0.6422  0.2023  0.1445
  700TIP3    H123515   0.617   1.738   1.905 -1.6432  0.7561  0.9284
  700TIP3    H223516   0.579   1.663   1.779  2.4718 -0.0390  0.0461
  701TIP3   OH223517   3.532   2.212   1.730  0.4533  0.1516  1.0110
  701TIP3    H123518   3.570   2.158   1.661  1.4049  1.7248  0.2209
  701TIP3    H223519   3.573   2.181   1.810  1.9582  0.4694  0.4149
  702TIP3   OH223520   5.273   3.532   0.939 -0.2413 -0.0143  0.5975
  702TIP3    H123521   5.235   3.480   0.868 -0.1324  0.9307 -0.1689
  702TIP3    H223522   5.259   3.478   1.017 -0.0936 -1.2192 -0.1675
  703TIP3   OH223523   6.689   5.964  16.634 -0.4228  0.0192 -0.6297
  703TIP3    H123524   6.640   6.021  16.575  2.3590  0.2292 -2.9544
  703TIP3    H223525   6.735   6.025  16.692 -0.5198 -0.0496 -0.4793
  704TIP3   OH223526   5.222   4.801   2.739 -0.3625  0.1264 -0.2235
  704TIP3    H123527   5.282   4.844   2.799  0.8921 -0.3113 -1.1241
  704TIP3    H223528   5.139   4.797   2.787  1.0212 -1.8948  2.2923
  705TIP3   OH223529   3.120   1.540   2.508  0.3226 -1.4439 -0.1149
  705TIP3    H123530   3.081   1.458   2.538 -2.7888 -0.3304 -0.7261
  705TIP3    H223531   3.124   1.595   2.586 -2.0620 -0.6259 -0.5071
  706TIP3   OH223532   6.710   6.679  13.453 -0.0328  0.4583  0.4661
  706TIP3    H123533   6.627   6.653  13.493  0.4270 -0.2563  0.9774
  706TIP3    H223534   6.767   6.604  13.465  0.3899  0.5480 -0.8048
  707TIP3   OH223535   5.951   0.116  16.309 -0.6730 -0.4898  0.1989
  707TIP3    H123536   5.883   0.181  16.290  0.3067  0.5261  0.0500
  707TIP3    H223537   5.903   0.038  16.334 -1.9001  0.1715 -0.0056
  708TIP3   OH223538   1.190   1.613   6.053  0.1685  0.0070  0.5804
  708TIP3    H123539   1.247   1.688   6.070 -1.4988  1.0656  1.6999
  708TIP3    H223540   1.166   1.580   6.139 -1.3366 -0.0780  0.1542
  709TIP3   OH223541   4.273   5.068  14.067 -0.0509  0.0331  0.3712
  709TIP3    H123542   4.254   5.041  13.977  1.1709 -0.9895  0.3912
  709TIP3    H223543   4.368   5.061  14.074 -0.1112  0.3461  1.6802
  710TIP3   OH223544   1.828   2.774   1.874  0.4940 -0.5588  0.3814
  710TIP3    H123545   1.778   2.700   1.842  1.6287 -0.6076 -1.4110
  710TIP3    H223546   1.911   2.769   1.827  0.2756  2.3451 -0.5149
  711TIP3   OH223547   5.899   6.664  14.075 -0.1999  0.3256 -0.6160
  711TIP3    H123548   5.827   6.670  14.138 -0.5382 -0.6953 -0.8965
  711TIP3    H223549   5.907   6.753  14.040 -2.0833  0.2203 -1.4281
  712TIP3   OH223550   2.568   2.611   4.883 -0.3678 -0.1713 -0.2521
  712TIP3    H123551   2.475   2.590   4.890 -0.2300 -1.4699 -1.7692
  712TIP3    H223552   2.610   2.560   4.952 -0.7346  0.2206  0.2707
  713TIP3   OH223553   0.190   3.022  16.843 -0.3760  0.2749 -0.0745
  713TIP3    H123554   0.210   2.935  16.876  0.5766  0.0808 -1.0975
  713TIP3    H223555   0.100   3.017  16.811 -0.5174 -0.1637  0.3843
  714TIP3   OH223556   1.927   2.077   2.779 -0.3500 -0.4686  0.1810
  714TIP3    H123557   1.922   2.046   2.870  0.3403 -0.2765  0.2858
  714TIP3    H223558   1.898   2.169   2.784 -0.3953 -0.4832  0.1898
  715TIP3   OH223559   4.070   5.029  16.475 -0.3189 -0.1972 -0.1591
  715TIP3    H123560   4.164   5.014  16.484 -0.5760 -1.8778 -0.0387
  715TIP3    H223561   4.062   5.124  16.474  1.4546 -0.0132 -1.0062
  716TIP3   OH223562   0.226   6.760  11.711  0.3596 -0.1220  0.0301
  716TIP3    H123563   0.310   6.758  11.758  0.7300 -0.6416 -0.6369
  716TIP3    H223564   0.191   6.847  11.729  0.9652  0.0444  0.4521
  717TIP3   OH223565   6.131   5.039  13.282 -0.3514  0.2459  0.2290
  717TIP3    H123566   6.060   5.009  13.225  0.2339  1.9453 -1.4815
  717TIP3    H223567   6.102   5.125  13.314  0.1541  0.1488  0.9792
  718TIP3   OH223568   6.489   6.420   4.965  0.3872  0.7949  0.3466
  718TIP3    H123569   6.486   6.330   4.998  1.0061  0.2938 -0.8648
  718TIP3    H223570   6.583   6.440   4.962  0.8570 -0.6758 -4.6342
  719TIP3   OH223571   3.945   2.432  10.265  0.5625 -0.0523  0.1201
  719TIP3    H123572   3.989   2.356  10.227  3.0307  0.7948  1.0901
  719TIP3    H223573   4.008   2.503  10.255  0.0871  0.8959  3.0115
  720TIP3   OH223574   3.160   2.765   0.869 -0.2838  0.7190 -0.0921
  720TIP3    H123575   3.220   2.712   0.817 -1.0058 -0.2423  0.0440
  720TIP3    H223576   3.203   2.850   0.876 -0.1116  0.8312 -2.1413
  721TIP3   OH223577   1.097   0.074   6.218  0.5018  0.1386  0.4773
  721TIP3    H123578   1.104   0.024   6.300 -0.3874 -0.5431  0.1481
  721TIP3    H223579   1.035   0.144   6.238 -0.1214 -0.3395  0.2458
  722TIP3   OH223580   6.770   4.809   1.134  0.0247 -0.7733 -0.0638
  722TIP3    H123581   6.806   4.726   1.103 -0.0768 -1.0294  0.4989
  722TIP3    H223582   6.751   4.858   1.054  0.0332 -1.3135 -0.4008
  723TIP3   OH223583   6.415   5.727  12.563  1.1659 -0.0785  0.5264
  723TIP3    H123584   6.365   5.783  12.503  0.6671 -1.2243 -0.1512
  723TIP3    H223585   6.488   5.695  12.511  0.8230 -0.9474  0.5710
  724TIP3   OH223586   4.641   3.863  13.808 -0.0449  0.3756  0.0760
  724TIP3    H123587   4.641   3.941  13.863  1.4833  1.2220 -1.0362
  724TIP3    H223588   4.601   3.893  13.725  3.1616  0.8830 -1.4204
  725TIP3   OH223589   5.591   1.247  10.741 -0.0123  0.2356  0.0902
  725TIP3    H123590   5.559   1.283  10.658 -2.0599 -1.9771 -0.2297
  725TIP3    H223591   5.516   1.196  10.774  1.9093 -1.8626  1.4898
  726TIP3   OH223592   3.444   1.343   1.141  0.2007 -0.1743  0.2606
  726TIP3    H123593   3.364   1.382   1.105  0.0546  0.3132  1.0851
  726TIP3    H223594   3.477   1.410   1.202 -0.1321 -1.3774  1.8278
  727TIP3   OH223595   5.804   0.164   5.273 -0.3131  0.6509  0.2108
  727TIP3    H123596   5.800   0.250   5.314 -1.1886  0.1388  1.2432
  727TIP3    H223597   5.754   0.174   5.192 -0.1451  1.1885  0.1669
  728TIP3   OH223598   0.758   2.367   3.522 -0.3569 -0.1028  0.1071
  728TIP3    H123599   0.699   2.405   3.586  0.0358 -1.3173  1.2331
  728TIP3    H223600   0.780   2.281   3.557 -0.0855 -0.7998 -1.6368
  729TIP3   OH223601   3.479   1.458  11.852  0.4560  0.2641  1.1103
  729TIP3    H123602   3.557   1.462  11.797  0.8482 -0.3700  1.6038
  729TIP3    H223603   3.432   1.539  11.833  0.4108 -0.0789 -0.4039
  730TIP3   OH223604   6.305   3.615  16.529 -0.5395 -0.3320 -0.0826
  730TIP3    H123605   6.227   3.575  16.491 -0.2949 -0.0275 -0.9321
  730TIP3    H223606   6.276   3.651  16.612 -1.5021  0.4814 -0.7505
  731TIP3   OH223607   1.579   4.822  17.084 -0.5067  0.1773 -0.5852
  731TIP3    H123608   1.563   4.910  17.120 -0.8550 -0.5259  1.0580
  731TIP3    H223609   1.515   4.766  17.128  0.1469 -1.0323 -1.1248
  732TIP3   OH223610   4.772   0.227  16.892  0.4223 -0.0459 -0.4501
  732TIP3    H123611   4.695   0.214  16.837 -1.7380 -0.6467  2.4211
  732TIP3    H223612   4.794   0.140  16.924  0.0141  0.4908  1.4596
  733TIP3   OH223613   0.117   3.801   0.215 -0.3471  0.0602 -0.4017
  733TIP3    H123614   0.146   3.772   0.129 -0.7153  1.2142 -0.9385
  733TIP3    H223615   0.190   3.779   0.273 -0.3160 -1.2169 -0.8936
  734TIP3   OH223616   1.526   1.081  15.033  0.0631 -0.4424  0.5130
  734TIP3    H123617   1.504   0.988  15.036  1.7566 -0.8675  1.8722
  734TIP3    H223618   1.617   1.085  15.063  0.1481  1.6284  0.1552
  735TIP3   OH223619   4.941   5.215   1.944  0.3967  0.8505 -0.6811
  735TIP3    H123620   5.023   5.166   1.951  0.0451  0.0497 -1.8037
  735TIP3    H223621   4.909   5.222   2.034  1.6433  1.0942 -0.2453
  736TIP3   OH223622   4.658   1.469   1.966  0.4445 -0.4751  0.2124
  736TIP3    H123623   4.567   1.437   1.973  0.0502  0.5493 -0.0356
  736TIP3    H223624   4.660   1.517   1.884  1.1215 -0.1779  0.3956
  737TIP3   OH223625   0.531   4.879  11.768  0.6892 -0.3658  0.3774
  737TIP3    H123626   0.595   4.891  11.697  1.1289  1.4240  1.0224
  737TIP3    H223627   0.517   4.784  11.771  2.5734 -0.7314 -0.4282
  738TIP3   OH223628   1.442   6.608   0.751 -0.1435 -0.5170  0.3185
  738TIP3    H123629   1.374   6.557   0.707 -0.2954 -0.8252  0.9008
  738TIP3    H223630   1.394   6.672   0.803  0.0319  1.7038 -2.0202
  739TIP3   OH223631   2.423   0.000   4.619 -0.5713 -0.0226 -0.0744
  739TIP3    H123632   2.402   0.053   4.542  1.4734  1.4215  0.2846
  739TIP3    H223633   2.493  -0.059   4.589 -0.3574 -0.0397  0.4548
  740TIP3   OH223634   0.373   3.107   0.685 -0.3036  0.3115 -0.1469
  740TIP3    H123635   0.434   3.051   0.638 -0.4361  0.5602 -0.6312
  740TIP3    H223636   0.331   3.050   0.749  1.5852  0.4850  1.3178
  741TIP3   OH223637   1.838   2.400   6.426 -0.3118 -0.2417 -0.4442
  741TIP3    H123638   1.796   2.485   6.409  0.1646  0.5359  1.9273
  741TIP3    H223639   1.926   2.409   6.388 -0.2196  0.3853 -0.1011
  742TIP3   OH223640   5.624   3.562   1.049  0.3155 -0.0468  0.0744
  742TIP3    H123641   5.558   3.613   1.096  1.4329  1.1540  0.3924
  742TIP3    H223642   5.649   3.617   0.975  0.8968 -0.5190 -0.0881
  743TIP3   OH223643   6.388   5.088   3.275 -0.0511  0.1006 -0.2138
  743TIP3    H123644   6.436   5.019   3.231  0.8262  0.2994  0.3944
  743TIP3    H223645   6.333   5.042   3.338 -1.5241 -0.2009 -1.6679
  744TIP3   OH223646   0.621   4.680   2.569  0.2957  0.5308 -0.5283
  744TIP3    H123647   0.689   4.747   2.576 -0.7533  1.5424  0.2936
  744TIP3    H223648   0.549   4.723   2.524  0.2240 -0.5726 -1.5128
  745TIP3   OH223649   6.310   2.891  11.852 -0.0749  0.5141  0.1060
  745TIP3    H123650   6.264   2.962  11.806  1.1778  0.6538 -0.9985
  745TIP3    H223651   6.290   2.813  11.800 -1.1840  0.0802  1.1329
  746TIP3   OH223652   5.738   2.770  14.935  0.5526 -0.5883  0.8444
  746TIP3    H123653   5.719   2.696  14.878  0.1290  0.3120 -0.2149
  746TIP3    H223654   5.707   2.846  14.887  4.8511  0.8199 -0.1061
  747TIP3   OH223655   1.165   1.109   3.863  0.3886 -0.9473  0.6512
  747TIP3    H123656   1.251   1.076   3.837  0.8893 -1.3626  2.6763
  747TIP3    H223657   1.148   1.069   3.948 -1.6782 -0.6059  0.4543
  748TIP3   OH223658   5.838   2.796  16.633 -0.6823 -0.3969 -0.3282
  748TIP3    H123659   5.824   2.762  16.722  0.1018 -0.7942 -0.3507
  748TIP3    H223660   5.930   2.779  16.615 -0.1734  1.9769 -0.2496
  749TIP3   OH223661   5.713   3.798  17.071  0.2174  0.0340  0.4778
  749TIP3    H123662   5.630   3.752  17.077  0.2089  0.0807  0.7024
  749TIP3    H223663   5.743   3.781  16.981  0.3335 -0.6049  0.6353
  750TIP3   OH223664   0.281   2.892  12.278 -0.0294 -0.1607  0.3981
  750TIP3    H123665   0.262   2.826  12.345 -0.7336 -0.8519 -0.4724
  750TIP3    H223666   0.377   2.895  12.275  0.0820  1.0348  2.5305
  751TIP3   OH223667   0.743   4.600   4.151 -0.1015  0.0339 -0.2271
  751TIP3    H123668   0.717   4.551   4.073 -0.0543  1.1971 -1.0064
  751TIP3    H223669   0.712   4.690   4.134 -3.4542 -0.3352  2.6632
  752TIP3   OH223670   0.614   5.378  15.652 -0.0315  0.1817  0.1881
  752TIP3    H123671   0.619   5.472  15.635  1.0545  0.2221  0.6409
  752TIP3    H223672   0.653   5.338  15.574 -1.3436  0.0449 -0.4249
  753TIP3   OH223673   0.110   2.167  16.239 -0.4283 -0.0059  0.6003
  753TIP3    H123674   0.021   2.133  16.228 -0.1783 -0.2594 -0.9017
  753TIP3    H223675   0.164   2.088  16.246 -0.1754  0.1221  0.0987
  754TIP3   OH223676   1.712   0.454  10.808  0.5240 -0.2766  0.3463
  754TIP3    H123677   1.652   0.526  10.829 -0.5833 -1.2067  0.4810
  754TIP3    H223678   1.739   0.470  10.718 -0.9519 -0.5129 -0.1643
  755TIP3   OH223679   5.312   4.542  12.997 -0.3952 -0.5604  0.4565
  755TIP3    H123680   5.231   4.583  12.968  0.1601 -0.2450 -0.7018
  755TIP3    H223681   5.300   4.530  13.091 -1.4183  0.3068  0.4602
  756TIP3   OH223682   6.197   0.106   5.240 -0.3976 -0.7445 -0.3794
  756TIP3    H123683   6.134   0.033   5.248 -0.8610 -0.4710 -1.3572
  756TIP3    H223684   6.158   0.163   5.174 -0.6459  1.0356  1.2248
  757TIP3   OH223685   1.367   1.399   6.531  0.4643 -0.7769  0.2232
  757TIP3    H123686   1.292   1.449   6.565  1.0419  1.1515 -1.1775
  757TIP3    H223687   1.441   1.426   6.585  0.4462 -1.5578  0.6522
  758TIP3   OH223688   4.413   0.100  16.619 -0.4794  0.1716 -0.1009
  758TIP3    H123689   4.447   0.012  16.636  0.5240  0.2342 -1.6014
  758TIP3    H223690   4.440   0.152  16.695 -0.3848 -0.6128  0.4133
  759TIP3   OH223691   1.367   4.643  12.563  0.0691  0.3400  0.4061
  759TIP3    H123692   1.455   4.665  12.593  0.8850  0.1443 -1.6591
  759TIP3    H223693   1.372   4.652  12.468 -1.6946 -1.2046  0.1166
  760TIP3   OH223694   2.161   3.688   1.518 -0.3574 -0.1582  0.7131
  760TIP3    H123695   2.254   3.677   1.536  0.0524  1.6917 -0.0716
  760TIP3    H223696   2.141   3.777   1.547 -1.8367 -0.4365  0.6400
  761TIP3   OH223697   5.777   3.885  15.334  0.0225 -0.2859  0.4054
  761TIP3    H123698   5.776   3.805  15.386 -1.3397  0.1570  1.1143
  761TIP3    H223699   5.841   3.942  15.378  0.5640 -0.7607  0.2396
  762TIP3   OH223700   2.475   4.579  12.083  0.6116  0.1459 -0.1863
  762TIP3    H123701   2.417   4.520  12.036  0.5103  0.4327 -0.4228
  762TIP3    H223702   2.430   4.595  12.166 -0.2349  1.3088 -0.8430
  763TIP3   OH223703   3.645   1.078   1.445 -0.2324 -0.2180  0.0008
  763TIP3    H123704   3.657   1.137   1.371 -0.5529 -0.2608 -0.0865
  763TIP3    H223705   3.643   1.135   1.522 -1.9328  0.0442 -0.1941
  764TIP3   OH223706   1.566   5.360  15.102  0.7015  0.2698  0.3832
  764TIP3    H123707   1.473   5.353  15.124  0.5617  0.7600 -0.0227
  764TIP3    H223708   1.587   5.452  15.118  1.0852  0.1894  0.3474
  765TIP3   OH223709   6.298   3.497  17.111 -0.4681  0.4689 -0.5959
  765TIP3    H123710   6.259   3.580  17.137  2.0628  1.1866  1.2813
  765TIP3    H223711   6.343   3.516  17.029  0.7977  1.2043  0.2510
  766TIP3   OH223712   0.049   0.782   0.331 -0.6015  0.1093 -0.0567
  766TIP3    H123713  -0.014   0.720   0.292 -1.7241  2.1681 -1.7249
  766TIP3    H223714   0.012   0.868   0.314  1.4230  1.3261  1.2513
  767TIP3   OH223715   5.103   2.463   0.832 -0.1219  0.2827 -0.2013
  767TIP3    H123716   5.185   2.512   0.841 -0.2829  0.1510  3.0438
  767TIP3    H223717   5.129   2.371   0.837 -0.3981  0.2362  0.6069
  768TIP3   OH223718   1.539   2.182  16.645 -0.3795 -0.6723 -0.1387
  768TIP3    H123719   1.516   2.255  16.702  2.3167  1.2677 -1.3120
  768TIP3    H223720   1.455   2.144  16.619 -1.8573  1.4621  1.1839
  769TIP3   OH223721   6.318   1.190   3.091 -0.0366  0.2338 -0.1623
  769TIP3    H123722   6.340   1.211   3.182  2.4867  0.1781 -0.6686
  769TIP3    H223723   6.226   1.213   3.082 -0.1635  0.8820  2.2190
  770TIP3   OH223724   0.378   2.974  14.309  0.2998  0.1937  0.4553
  770TIP3    H123725   0.307   3.016  14.358 -0.7567  0.2544 -1.0540
  770TIP3    H223726   0.405   3.039  14.244 -0.0021 -0.7136 -0.6182
  771TIP3   OH223727   2.035   6.457  11.762 -0.1036  0.0385  0.3613
  771TIP3    H123728   2.079   6.502  11.834  2.3654 -0.3320 -0.8097
  771TIP3    H223729   2.070   6.499  11.683 -0.8908 -1.1825 -0.6751
  772TIP3   OH223730   2.969   6.732   0.036 -0.2360  0.1869 -0.1893
  772TIP3    H123731   2.992   6.660   0.095  1.6862 -1.8047 -3.0590
  772TIP3    H223732   2.904   6.695  -0.023  0.2647  0.9824 -1.2906
  773TIP3   OH223733   3.228   4.714   0.136 -0.2165  0.4164 -0.3514
  773TIP3    H123734   3.287   4.667   0.077 -1.6427 -2.3844  0.2528
  773TIP3    H223735   3.268   4.705   0.222 -0.8560 -0.4044 -0.1251
  774TIP3   OH223736   3.775   1.132   5.372  0.4179  0.2935  0.0587
  774TIP3    H123737   3.727   1.170   5.445  0.0891  0.2357 -0.1239
  774TIP3    H223738   3.863   1.168   5.379  0.9332 -1.1334  1.5688
  775TIP3   OH223739   1.228   2.368  16.717 -0.4362 -0.1074  0.0680
  775TIP3    H123740   1.236   2.276  16.741  0.0265  0.3290  1.7028
  775TIP3    H223741   1.313   2.406  16.735 -1.1280  1.0079  1.1427
  776TIP3   OH223742   4.946   1.088   4.229  0.2217 -0.4549  0.0077
  776TIP3    H123743   4.993   1.018   4.185 -0.1355 -0.7048  0.0140
  776TIP3    H223744   4.891   1.127   4.161  2.4408  1.6694 -0.6994
  777TIP3   OH223745   1.861   5.752   1.840 -0.0030  0.3750 -0.1490
  777TIP3    H123746   1.936   5.692   1.844 -0.4181 -0.3552 -2.1567
  777TIP3    H223747   1.819   5.732   1.757 -3.0101  0.0734  1.2917
  778TIP3   OH223748   0.240   3.136   1.309 -0.2316  0.2643 -0.4373
  778TIP3    H123749   0.240   3.225   1.344  0.7229  0.0924  0.0214
  778TIP3    H223750   0.233   3.148   1.214  2.3470  0.9556 -0.6054
  779TIP3   OH223751   0.338   4.034   1.889  0.6094  0.0956  0.5670
  779TIP3    H123752   0.299   4.093   1.954  1.3215 -0.3617  1.4313
  779TIP3    H223753   0.346   3.950   1.935  1.2777 -0.1924 -0.0613
  780TIP3   OH223754   0.046   0.756  16.263 -0.1875  0.3187 -0.1746
  780TIP3    H123755   0.007   0.674  16.234 -0.4576  0.2012  0.5129
  780TIP3    H223756   0.115   0.729  16.324  0.3690  0.5620 -0.6914
  781TIP3   OH223757   4.765   3.178   1.620  0.4233 -0.2903  0.3587
  781TIP3    H123758   4.751   3.270   1.598  0.6530 -0.1566  0.7545
  781TIP3    H223759   4.695   3.158   1.682 -0.8132 -0.9341 -1.1669
  782TIP3   OH223760   4.187   6.156   4.157  0.4036 -0.0133 -0.2661
  782TIP3    H123761   4.137   6.201   4.089 -1.2864 -1.8857 -0.3524
  782TIP3    H223762   4.229   6.083   4.111  0.0633 -0.7050  0.5105
  783TIP3   OH223763   3.838   4.802  15.387 -0.2787 -0.4010 -0.3376
  783TIP3    H123764   3.769   4.814  15.451  0.1989  2.2352 -0.2173
  783TIP3    H223765   3.798   4.748  15.318 -1.8725 -0.3670  0.5168
  784TIP3   OH223766   6.357   1.651  16.850 -0.2679  0.1352 -0.7612
  784TIP3    H123767   6.360   1.720  16.917 -0.1771 -0.0177 -0.6073
  784TIP3    H223768   6.274   1.667  16.804  0.1503  0.8630 -1.2769
  785TIP3   OH223769   6.055   2.762   1.779  0.2516 -0.1955  0.0621
  785TIP3    H123770   6.139   2.804   1.761  1.1160 -1.9220 -0.1352
  785TIP3    H223771   6.060   2.738   1.872 -0.6429  0.9936  0.4334
  786TIP3   OH223772   1.171   2.586  10.551  0.9593  0.3235  0.9212
  786TIP3    H123773   1.124   2.618  10.628  0.4987 -2.2889  1.8637
  786TIP3    H223774   1.142   2.495  10.542  0.6817  0.6242 -2.6374
  787TIP3   OH223775   3.054   4.517   2.959  0.1257  0.4995  0.3212
  787TIP3    H123776   3.111   4.540   3.032 -1.3206  0.5741  1.4576
  787TIP3    H223777   3.036   4.423   2.971 -0.2087  0.5359  0.1252
  788TIP3   OH223778   5.254   3.257   3.275  0.1703  0.2330 -0.1325
  788TIP3    H123779   5.344   3.276   3.248 -0.0238 -0.0979 -1.0521
  788TIP3    H223780   5.230   3.330   3.332  1.7186 -0.7197  1.8681
  789TIP3   OH223781   2.260   6.420  12.707  0.1799 -0.2401 -0.4669
  789TIP3    H123782   2.215   6.368  12.773  0.6833 -1.5219 -1.0962
  789TIP3    H223783   2.325   6.471  12.756  1.1937 -1.8775 -0.0412
  790TIP3   OH223784   3.301   6.445  15.778  0.0364  0.2696  0.0585
  790TIP3    H123785   3.300   6.422  15.871  1.0810  2.7990  0.7788
  790TIP3    H223786   3.212   6.425  15.747 -0.1265 -1.2496  1.3941
  791TIP3   OH223787   5.668   4.906   0.442 -0.0803  0.3040  0.3506
  791TIP3    H123788   5.674   4.988   0.491 -1.8039  0.7880 -0.1781
  791TIP3    H223789   5.749   4.860   0.462 -0.3214  0.8527  2.9731
  792TIP3   OH223790   2.334   0.135   0.847 -0.3476 -0.3614  0.0494
  792TIP3    H123791   2.243   0.142   0.877 -0.1396 -1.2525  0.9517
  792TIP3    H223792   2.327   0.103   0.757 -0.9640  1.4359 -0.5925
  793TIP3   OH223793   1.786   1.844   0.945  0.5017  0.4845  0.2856
  793TIP3    H123794   1.709   1.847   1.002  0.3960  0.7656  0.1337
  793TIP3    H223795   1.855   1.807   1.000 -0.0356 -0.8779  0.0654
  794TIP3   OH223796   6.788   2.385  10.830 -0.2177 -0.4421  0.3370
  794TIP3    H123797   6.757   2.301  10.864 -1.0934 -0.6350 -0.8672
  794TIP3    H223798   6.732   2.450  10.873  0.1923 -0.4898  0.9608
  795TIP3   OH223799   3.030   1.694  15.775 -0.8784  0.7092 -0.7210
  795TIP3    H123800   3.069   1.728  15.694  1.0858  1.1089  0.3258
  795TIP3    H223801   3.091   1.721  15.844 -2.4793  0.3544  0.9024
  796TIP3   OH223802   5.386   5.715   0.682  0.0402 -0.4218  0.2145
  796TIP3    H123803   5.323   5.736   0.751  0.0143  1.2005 -0.2653
  796TIP3    H223804   5.462   5.770   0.701 -0.6943  1.5490 -2.0663
  797TIP3   OH223805   3.349   2.166  12.108 -0.1564  0.2814  0.3442
  797TIP3    H123806   3.404   2.156  12.030 -1.3129  2.1863 -0.8123
  797TIP3    H223807   3.397   2.121  12.178  1.9022  0.2129 -1.0250
  798TIP3   OH223808   6.101   1.293  16.425  0.8884 -0.2215 -0.6617
  798TIP3    H123809   6.125   1.229  16.358  1.3376  1.2624 -1.9865
  798TIP3    H223810   6.005   1.287  16.431  0.9493 -1.2029 -0.5431
  799TIP3   OH223811   5.266   4.084  16.568  0.4258  0.4106 -0.7018
  799TIP3    H123812   5.176   4.073  16.597  0.9267 -2.8049 -0.0802
  799TIP3    H223813   5.316   4.101  16.648  0.5567  1.0430 -0.9083
  800TIP3   OH223814   3.829   1.091   5.835  0.7038  0.4276 -0.0680
  800TIP3    H123815   3.854   1.146   5.909 -0.7400  0.7637  0.2010
  800TIP3    H223816   3.734   1.084   5.841  0.6783 -0.5910 -1.1662
  801TIP3   OH223817   5.492   5.938  12.800  0.2425 -0.0832 -0.2664
  801TIP3    H123818   5.418   5.887  12.768  0.0324  0.0291  0.0303
  801TIP3    H223819   5.542   5.877  12.854  1.1211 -0.5375 -1.5566
  802TIP3   OH223820   3.026   2.881  15.434  0.3463  0.8689  0.0308
  802TIP3    H123821   2.960   2.890  15.365 -0.2692 -0.5769  0.3975
  802TIP3    H223822   3.066   2.796  15.419 -0.3512  0.1587  1.8903
  803TIP3   OH223823   5.472   1.847   4.501 -0.4479  0.2229  0.5581
  803TIP3    H123824   5.432   1.767   4.536  1.4909  0.3523  3.3382
  803TIP3    H223825   5.546   1.817   4.449 -0.9957  0.1908 -0.2333
  804TIP3   OH223826   3.364   4.190   4.089  0.4809  0.8397  0.1270
  804TIP3    H123827   3.403   4.120   4.142 -0.5787  1.3168  1.6058
  804TIP3    H223828   3.321   4.144   4.017 -0.3766 -0.0635  1.1879
  805TIP3   OH223829   5.343   5.035   3.731  0.0220  0.0607 -0.4260
  805TIP3    H123830   5.306   4.947   3.739  0.2826  0.0398  0.8509
  805TIP3    H223831   5.266   5.092   3.724 -0.1329 -0.3069 -2.0530
  806TIP3   OH223832   0.541   6.587  16.606 -0.5943 -0.0849 -0.6377
  806TIP3    H123833   0.583   6.574  16.691 -0.6333 -1.3021 -0.7974
  806TIP3    H223834   0.481   6.661  16.621 -0.4449 -0.1398  0.3248
  807TIP3   OH223835   1.463   5.861  12.918 -0.3095  0.4219  0.6743
  807TIP3    H123836   1.442   5.911  12.839  0.7019  0.6065  0.5103
  807TIP3    H223837   1.378   5.850  12.962 -1.0290 -0.4061 -0.8288
  808TIP3   OH223838   3.371   4.962   3.366 -0.5588 -0.2824  0.7661
  808TIP3    H123839   3.459   4.995   3.383 -0.8659  1.0966 -0.1527
  808TIP3    H223840   3.385   4.875   3.329  0.4114 -0.1574  0.8113
  809TIP3   OH223841   0.464   6.660   2.199  0.6010  0.1257 -0.2414
  809TIP3    H123842   0.450   6.755   2.198 -2.0337 -0.1641  0.3267
  809TIP3    H223843   0.442   6.632   2.110 -1.1919 -0.1723  0.2503
  810TIP3   OH223844   0.530   0.537   0.905 -0.2667  0.2626  0.4609
  810TIP3    H123845   0.544   0.447   0.935  1.2273 -0.3210 -1.6854
  810TIP3    H223846   0.613   0.581   0.920 -0.5040  0.8398  0.1387
  811TIP3   OH223847   0.481   6.092  15.600 -0.5490  0.6866 -0.0182
  811TIP3    H123848   0.464   6.002  15.572  2.0844 -0.0607  0.4711
  811TIP3    H223849   0.487   6.086  15.695 -4.7077  2.3167  0.5467
  812TIP3   OH223850   3.562   5.736  13.687  0.3104 -0.0188  0.1825
  812TIP3    H123851   3.496   5.698  13.745 -1.2213 -0.0006 -1.4652
  812TIP3    H223852   3.512   5.781  13.619  2.0524  1.2553 -0.3430
  813TIP3   OH223853   3.477   1.211  11.266 -0.0268  0.1386  0.2366
  813TIP3    H123854   3.445   1.294  11.230 -0.7228 -0.2989 -0.1776
  813TIP3    H223855   3.398   1.161  11.286  0.3771 -0.9182 -0.7082
  814TIP3   OH223856   5.204   1.848   3.768 -0.4159 -0.1424  0.0775
  814TIP3    H123857   5.228   1.834   3.860  0.5776 -0.0778 -0.1698
  814TIP3    H223858   5.200   1.943   3.759 -2.3010 -0.1429  0.4959
  815TIP3   OH223859   5.794   5.187   1.089 -0.1255  0.3178  0.1146
  815TIP3    H123860   5.815   5.280   1.093  1.0643  0.2009 -2.0147
  815TIP3    H223861   5.877   5.145   1.069 -0.8631 -1.0930 -0.0953
  816TIP3   OH223862   2.484   4.457  10.763 -0.3485  1.1820  0.1002
  816TIP3    H123863   2.485   4.424  10.673 -0.5167  0.4633  0.3536
  816TIP3    H223864   2.576   4.461  10.788 -0.2067  2.6907 -0.5541
  817TIP3   OH223865   6.539   4.313   0.509 -0.1216  0.2085 -0.1177
  817TIP3    H123866   6.564   4.220   0.510 -1.9399 -0.3312 -0.1700
  817TIP3    H223867   6.578   4.348   0.430  2.6956  0.1649  1.1264
  818TIP3   OH223868   3.569   4.184  12.821 -0.6030 -0.5864  0.3759
  818TIP3    H123869   3.545   4.276  12.808 -0.3247 -0.6755 -0.8903
  818TIP3    H223870   3.485   4.137  12.817 -0.6078 -0.5237 -0.3736
  819TIP3   OH223871   1.754   0.935   4.296 -0.3276 -0.5964 -0.2002
  819TIP3    H123872   1.828   0.875   4.295 -1.3442 -1.9145  0.5468
  819TIP3    H223873   1.715   0.925   4.383 -0.7469  0.8899 -0.1783
  820TIP3   OH223874   4.862   0.781  16.948  0.4966  0.4911  0.2968
  820TIP3    H123875   4.852   0.795  16.853  0.5193  1.4537  0.4282
  820TIP3    H223876   4.955   0.761  16.959  0.9127  2.2152  0.3036
  821TIP3   OH223877   3.446   5.559   4.018  0.2887 -0.0290  0.6277
  821TIP3    H123878   3.433   5.522   4.105 -0.1967  0.6272  0.8437
  821TIP3    H223879   3.467   5.651   4.034 -0.2159  0.1952  0.0403
  822TIP3   OH223880   4.208   1.404  13.961  0.5231  0.9560 -0.1782
  822TIP3    H123881   4.119   1.381  13.988  0.9557 -0.0921  0.4379
  822TIP3    H223882   4.210   1.388  13.867 -0.9058  4.2858 -0.9176
  823TIP3   OH223883   2.265   6.514  14.529  0.6980 -0.3814  0.0278
  823TIP3    H123884   2.174   6.512  14.556  0.5508  0.0224 -0.4178
  823TIP3    H223885   2.312   6.466  14.597  0.1050 -0.9029  0.0727
  824TIP3   OH223886   0.700   5.999  11.986  0.2190 -0.2259 -0.0114
  824TIP3    H123887   0.682   6.056  12.061 -0.2307  0.7284 -0.8275
  824TIP3    H223888   0.725   5.915  12.026  0.1353  0.2976  1.2038
  825TIP3   OH223889   3.489   4.596   2.241  0.2318 -0.5007 -0.0797
  825TIP3    H123890   3.516   4.505   2.233  0.1138 -0.6275  0.8677
  825TIP3    H223891   3.427   4.597   2.314  0.7894  0.4538  0.4113
  826TIP3   OH223892   5.885   1.158   1.416  0.0060  0.0676  0.0321
  826TIP3    H123893   5.819   1.124   1.357  0.2110  1.9235 -1.3426
  826TIP3    H223894   5.918   1.237   1.373  1.5893  0.3796  1.6888
  827TIP3   OH223895   5.754   3.405   1.311 -0.2083  0.0372 -0.0424
  827TIP3    H123896   5.717   3.493   1.317 -2.0251 -0.6049 -1.0243
  827TIP3    H223897   5.691   3.349   1.356  2.0584 -0.5468  2.6635
  828TIP3   OH223898   0.309   4.826   1.376 -0.4868  1.2306  0.4496
  828TIP3    H123899   0.339   4.907   1.334 -1.2474  1.5541  0.4939
  828TIP3    H223900   0.221   4.813   1.341 -0.8088  1.0448  1.2951
  829TIP3   OH223901   0.285   3.696  10.571  0.3900 -0.4775  0.6564
  829TIP3    H123902   0.357   3.652  10.526  0.7020  1.2323 -0.6348
  829TIP3    H223903   0.274   3.648  10.653  3.1087 -0.6884  0.9781
  830TIP3   OH223904   3.829   2.312  15.319  0.2079 -0.1867 -0.0405
  830TIP3    H123905   3.818   2.404  15.340  0.3630 -0.1919  0.0596
  830TIP3    H223906   3.921   2.293  15.337 -0.2823 -0.8877  1.9787
  831TIP3   OH223907   2.691   4.956   2.095 -0.1675 -0.0867 -0.0984
  831TIP3    H123908   2.647   5.014   2.033 -1.0329 -1.1886 -0.5431
  831TIP3    H223909   2.783   4.981   2.090 -0.4408  0.8642 -0.6802
  832TIP3   OH223910   3.353   4.817   4.884 -0.1470 -0.7678 -0.3598
  832TIP3    H123911   3.426   4.874   4.909 -1.0366  0.1502  0.1553
  832TIP3    H223912   3.372   4.794   4.792  0.3073  0.2024 -0.5192
  833TIP3   OH223913   2.918   2.753  16.496 -0.4628  0.0492  0.1290
  833TIP3    H123914   2.952   2.830  16.540 -0.7612  0.1308  0.2225
  833TIP3    H223915   2.974   2.742  16.420  0.2364 -0.2554  0.6715
  834TIP3   OH223916   5.219   4.031   2.642 -0.0313 -0.3695  0.2358
  834TIP3    H123917   5.235   3.987   2.726 -3.6152 -1.3792  0.5636
  834TIP3    H223918   5.305   4.038   2.602  1.7596 -0.4936  3.6529
  835TIP3   OH223919   5.532   0.225   3.209  0.5184 -0.3832 -0.1619
  835TIP3    H123920   5.477   0.288   3.163 -0.2988 -0.9893 -0.0212
  835TIP3    H223921   5.621   0.246   3.179  0.3157  1.0550  0.1400
  836TIP3   OH223922   6.119   4.495  12.962  0.0413  0.1507 -0.5752
  836TIP3    H123923   6.094   4.586  12.948  0.6318  0.3855 -0.1381
  836TIP3    H223924   6.208   4.499  12.998  0.0466 -0.5895 -0.4805
  837TIP3   OH223925   3.501   2.232   0.589  0.1150 -0.5414 -0.2126
  837TIP3    H123926   3.546   2.309   0.624  1.8238 -1.0570 -1.1427
  837TIP3    H223927   3.524   2.162   0.650 -0.1182 -0.6475 -0.2466
  838TIP3   OH223928   5.627   1.293   4.223 -0.1189 -0.3504  0.0171
  838TIP3    H123929   5.641   1.343   4.304 -0.9890  0.0920 -0.0953
  838TIP3    H223930   5.557   1.341   4.178  0.0792 -0.8297 -0.8017
  839TIP3   OH223931   2.425   1.990  16.869  0.3838  0.2105 -0.2844
  839TIP3    H123932   2.407   2.030  16.954  1.3597 -0.3184  0.1898
  839TIP3    H223933   2.461   1.904  16.891 -1.1474 -0.7328 -1.2673
  840TIP3   OH223934   4.024   4.181  15.518 -0.0948  0.0785  0.5488
  840TIP3    H123935   3.945   4.198  15.569  0.3130  0.5099  1.0567
  840TIP3    H223936   4.000   4.113  15.456 -1.4737  1.6252 -0.7154
  841TIP3   OH223937   5.826   4.391  12.022  0.2599 -0.3401  0.9515
  841TIP3    H123938   5.777   4.342  12.088  0.2971 -1.0236  0.4805
  841TIP3    H223939   5.776   4.471  12.009 -2.3763 -2.2184 -1.5827
  842TIP3   OH223940   0.526   5.434  14.939 -0.1909 -0.1011 -0.5537
  842TIP3    H123941   0.475   5.492  14.882 -0.2721 -0.0422 -0.4230
  842TIP3    H223942   0.546   5.358  14.884  1.8419  1.0027 -1.4518
  843TIP3   OH223943   3.995   3.765  10.666  0.2807  0.1354  0.0286
  843TIP3    H123944   4.000   3.721  10.581  1.2501  0.3040 -0.0128
  843TIP3    H223945   3.932   3.836  10.652 -1.5434 -1.3729  0.1763
  844TIP3   OH223946   5.624   2.126  16.120 -0.5582 -0.4370  0.5373
  844TIP3    H123947   5.705   2.176  16.130 -0.4349 -0.8086  1.4458
  844TIP3    H223948   5.569   2.154  16.193 -2.2451  1.6054 -1.3682
  845TIP3   OH223949   2.429   1.453   5.400 -0.3289  0.5476  0.1837
  845TIP3    H123950   2.434   1.517   5.329 -0.3966  0.0209 -0.3031
  845TIP3    H223951   2.350   1.478   5.448 -2.7768 -1.5589 -2.4116
  846TIP3   OH223952   4.185   4.854   2.627 -0.2870  0.1177  0.1542
  846TIP3    H123953   4.278   4.865   2.649 -0.4696  1.1417  0.4390
  846TIP3    H223954   4.186   4.806   2.544  0.4932  0.0129  0.2128
  847TIP3   OH223955   4.161   3.665   4.356 -0.3953 -0.3133 -0.1146
  847TIP3    H123956   4.235   3.611   4.384  1.1059  1.3239 -0.7972
  847TIP3    H223957   4.143   3.636   4.267 -0.2270 -0.3577 -0.1344
  848TIP3   OH223958   3.853   6.270  16.391 -0.3245  0.9503  0.2458
  848TIP3    H123959   3.875   6.343  16.448 -0.8582 -0.0540  1.7874
  848TIP3    H223960   3.787   6.221  16.438  0.9350 -1.2695 -0.1300
  849TIP3   OH223961   3.003   3.726  11.808 -0.2046 -0.4011 -0.6708
  849TIP3    H123962   2.946   3.784  11.859  0.9112 -0.5316  0.7860
  849TIP3    H223963   2.943   3.673  11.755 -1.2888  1.5103 -1.4607
  850TIP3   OH223964   5.794   5.798  16.349  0.3182  0.3984  0.0088
  850TIP3    H123965   5.801   5.760  16.261  0.3998 -1.2645  0.7097
  850TIP3    H223966   5.709   5.840  16.349  0.7206  1.2955 -1.1809
  851TIP3   OH223967   5.905   5.933   0.680 -0.0845 -0.6712 -0.3122
  851TIP3    H123968   5.958   5.977   0.614 -0.3675 -0.2622 -0.2686
  851TIP3    H223969   5.969   5.886   0.733  0.1322 -1.1135 -0.9538
  852TIP3   OH223970   3.150   4.998  16.959 -0.5026 -0.1783 -0.7946
  852TIP3    H123971   3.185   4.992  17.047 -0.6624  0.9319 -0.6354
  852TIP3    H223972   3.056   4.982  16.969 -0.4330 -0.6086 -0.8425
  853TIP3   OH223973   5.602   4.795  13.777  0.1743 -0.4208 -0.4448
  853TIP3    H123974   5.593   4.843  13.859  0.3942 -1.8865  0.4775
  853TIP3    H223975   5.558   4.711  13.793 -2.7390  0.4276 -2.9020
  854TIP3   OH223976   6.755   4.791   0.102 -0.1061  0.2021  0.2166
  854TIP3    H123977   6.766   4.865   0.043  1.1614 -2.0824 -2.6575
  854TIP3    H223978   6.686   4.738   0.061 -1.7770  0.2031  2.7752
  855TIP3   OH223979   2.386   2.019  16.614  0.0167  0.6878  0.0890
  855TIP3    H123980   2.315   1.964  16.580  0.2593  0.1261  0.4709
  855TIP3    H223981   2.374   2.017  16.709 -0.1999  1.6214  0.0880
  856TIP3   OH223982   5.029   0.015   0.991  0.2228 -0.7915 -0.0669
  856TIP3    H123983   4.949   0.020   1.043 -0.2753 -1.6085 -0.7196
  856TIP3    H223984   5.079  -0.057   1.030  1.1248  0.3644  0.9664
  857TIP3   OH223985   1.177   0.072  14.229 -0.3813 -0.3295 -0.0955
  857TIP3    H123986   1.143   0.072  14.319 -0.6849 -2.0831 -0.1662
  857TIP3    H223987   1.143  -0.008  14.191  0.8032 -0.2652 -1.3746
  858TIP3   OH223988   3.682   5.528   1.982 -0.3029 -0.1464  0.1546
  858TIP3    H123989   3.628   5.501   2.056 -0.7482  0.5211  0.0859
  858TIP3    H223990   3.630   5.596   1.938 -0.1669 -0.7159 -0.9214
  859TIP3   OH223991   0.584   0.308   4.416 -0.0778  0.0891  0.3819
  859TIP3    H123992   0.551   0.387   4.374  0.8480  0.4428  0.2988
  859TIP3    H223993   0.506   0.254   4.429 -0.7420  1.0651  0.5644
  860TIP3   OH223994   6.511   2.666   3.044 -0.4356 -0.1394 -0.1211
  860TIP3    H123995   6.544   2.579   3.021 -0.5899  0.4631 -2.9181
  860TIP3    H223996   6.584   2.725   3.025 -1.4023  0.6666 -1.4661
  861TIP3   OH223997   0.458   1.748   0.701 -0.3054  0.4178 -0.2019
  861TIP3    H123998   0.483   1.804   0.627 -0.1535  0.6516  0.0244
  861TIP3    H223999   0.427   1.667   0.661  2.5685 -0.6621 -0.5188
  862TIP3   OH224000   2.517   1.240  10.664  0.5845  0.3057 -0.6244
  862TIP3    H124001   2.521   1.301  10.590 -1.2595  1.0398 -0.1894
  862TIP3    H224002   2.548   1.157  10.629  0.6227  0.8651 -1.9722
  863TIP3   OH224003   4.459   3.451  17.070 -0.1581  0.0428 -0.1674
  863TIP3    H124004   4.506   3.369  17.087 -0.1783  0.3546  1.6670
  863TIP3    H224005   4.417   3.438  16.985  0.8634 -1.3571 -0.4983
  864TIP3   OH224006   6.379   3.932  16.009 -0.2239  0.1119  0.2680
  864TIP3    H124007   6.412   3.898  16.092 -1.7771  0.8833  1.2450
  864TIP3    H224008   6.368   4.026  16.024 -0.1612  0.3294 -0.9515
  865TIP3   OH224009   6.733   6.513   1.713 -0.0417  0.5385  0.6136
  865TIP3    H124010   6.827   6.524   1.701  0.2706 -2.2009 -0.0166
  865TIP3    H224011   6.724   6.477   1.801 -0.3882 -0.1636  0.3000
  866TIP3   OH224012   1.590   2.757   2.058  0.2195 -0.3773  0.0983
  866TIP3    H124013   1.656   2.779   1.992  0.8066 -1.7619  0.1848
  866TIP3    H224014   1.640   2.713   2.128 -0.6377 -0.4555  0.6787
  867TIP3   OH224015   2.197   1.640   1.965  0.3892  0.1754 -0.0292
  867TIP3    H124016   2.242   1.584   1.902  1.7799 -0.4112  1.4160
  867TIP3    H224017   2.267   1.682   2.014 -0.6449  1.7857  0.1454
  868TIP3   OH224018   3.540   3.870   0.795  0.3249  0.1169  0.3398
  868TIP3    H124019   3.545   3.837   0.885 -0.8721 -1.1106 -0.0128
  868TIP3    H224020   3.457   3.837   0.762  1.7295 -1.4308 -1.9525
  869TIP3   OH224021   1.198   3.767  15.614 -0.0455  0.1622 -0.3507
  869TIP3    H124022   1.269   3.803  15.560 -0.2448  0.8261 -0.1657
  869TIP3    H224023   1.137   3.729  15.551 -1.2612  2.6386 -0.7582
  870TIP3   OH224024   1.260   5.436  12.465  0.3413  0.4421 -0.4108
  870TIP3    H124025   1.299   5.357  12.427  1.4089  0.7438  0.0098
  870TIP3    H224026   1.203   5.403  12.535  0.1787  0.0123 -0.7417
  871TIP3   OH224027   6.168   4.726  16.867  0.4287  0.1942 -0.2737
  871TIP3    H124028   6.124   4.810  16.881  0.4406 -0.0878  1.7782
  871TIP3    H224029   6.252   4.750  16.828 -0.3378  0.9566 -1.5151
  872TIP3   OH224030   3.243   0.999   0.209 -0.3862  0.1529  0.7143
  872TIP3    H124031   3.277   0.946   0.281 -0.0771  1.2451  1.3812
  872TIP3    H224032   3.163   1.039   0.244 -0.6158  0.1448  0.2178
  873TIP3   OH224033   1.644   2.355   5.867 -0.0059 -0.2005 -0.3516
  873TIP3    H124034   1.686   2.324   5.947  2.2196  2.9501 -0.0943
  873TIP3    H224035   1.557   2.386   5.895  0.6897  0.7241  0.8777
  874TIP3   OH224036   6.057   6.050  13.878  0.3193  0.2758  0.2292
  874TIP3    H124037   6.035   5.966  13.837 -3.2333  1.5121 -0.8233
  874TIP3    H224038   6.077   6.108  13.804  1.4882  0.6962  0.8512
  875TIP3   OH224039   3.526   1.712   4.649  0.2998 -0.1160  0.6211
  875TIP3    H124040   3.447   1.767   4.651 -1.5395 -2.5052 -0.6530
  875TIP3    H224041   3.595   1.770   4.617 -1.5408  1.4860 -0.7085
  876TIP3   OH224042   1.578   1.669   3.962  0.4280 -0.5187 -0.1095
  876TIP3    H124043   1.642   1.715   4.016  0.5224 -0.6255 -0.1278
  876TIP3    H224044   1.493   1.694   3.998  0.4364  0.4291 -0.7325
  877TIP3   OH224045   6.320   3.243   5.340  0.1873 -0.2479 -0.6477
  877TIP3    H124046   6.309   3.320   5.396  0.8916  0.5701 -1.6123
  877TIP3    H224047   6.397   3.262   5.287 -0.1393 -1.2520 -1.5153
  878TIP3   OH224048   3.442   5.015   4.371  0.1226  0.5499 -0.2410
  878TIP3    H124049   3.466   4.941   4.315 -1.3865  0.2433 -0.5424
  878TIP3    H224050   3.517   5.074   4.368  2.8153 -2.3221  2.5287
  879TIP3   OH224051   5.071   4.007  12.057  0.1078 -0.1164  0.6210
  879TIP3    H124052   5.052   3.918  12.087  1.5576 -0.0232  1.9542
  879TIP3    H224053   4.986   4.050  12.055 -0.6655 -1.6209 -0.4149
  880TIP3   OH224054   5.317   3.485  13.611  0.3475 -0.3497 -0.7110
  880TIP3    H124055   5.261   3.408  13.605 -0.6357  0.1783  1.0091
  880TIP3    H224056   5.258   3.555  13.641  1.1527  1.1515 -2.4256
  881TIP3   OH224057   6.035   5.124   0.982  0.0375 -0.1789  0.1929
  881TIP3    H124058   6.019   5.043   0.934  3.1814 -0.7294 -0.1143
  881TIP3    H224059   6.045   5.190   0.914 -0.0681 -0.0114  0.3389
  882TIP3   OH224060   1.764   0.303  12.399  0.5748 -0.5119  0.1805
  882TIP3    H124061   1.793   0.394  12.391 -2.4944  0.6612  1.0644
  882TIP3    H224062   1.693   0.306  12.463 -1.5477 -3.0154 -1.8313
  883TIP3   OH224063   3.312   5.114  12.638  0.0424 -0.3950  0.3764
  883TIP3    H124064   3.358   5.079  12.714  1.6366 -0.8292 -0.7257
  883TIP3    H224065   3.289   5.204  12.663  1.9925  0.0305  0.8269
  884TIP3   OH224066   1.601   2.787   5.897 -0.9732  0.6404  0.0898
  884TIP3    H124067   1.634   2.877   5.902  4.0109 -0.7555 -1.3869
  884TIP3    H224068   1.650   2.740   5.965 -3.1674 -1.1267  0.5687
  885TIP3   OH224069   2.975   1.611  15.215  0.6582  0.3677  0.2970
  885TIP3    H124070   2.981   1.577  15.305  0.3887  1.0091  0.5614
  885TIP3    H224071   3.061   1.649  15.198  0.7850  0.0419  0.1944
  886TIP3   OH224072   6.401   6.066   4.438 -0.5844  0.3866 -0.2396
  886TIP3    H124073   6.414   6.086   4.530  0.8972 -0.7886 -0.1511
  886TIP3    H224074   6.441   5.980   4.426 -1.0833  0.3438 -1.8991
  887TIP3   OH224075   1.077   2.481   4.576 -0.0203  0.1559 -0.0107
  887TIP3    H124076   1.068   2.554   4.515  1.8819 -0.0065 -0.5653
  887TIP3    H224077   1.172   2.477   4.594 -0.3764 -0.5647  2.0102
  888TIP3   OH224078   0.655   6.454  13.830  0.4276  0.7782  0.0437
  888TIP3    H124079   0.582   6.393  13.823  0.0489  1.1144  0.9653
  888TIP3    H224080   0.675   6.457  13.924  0.5860  1.8905 -0.0110
  889TIP3   OH224081   0.657   5.281   4.597  0.1192 -0.2540  0.2551
  889TIP3    H124082   0.567   5.314   4.588  0.3103  0.4406  0.8132
  889TIP3    H224083   0.712   5.352   4.565  0.4363 -1.3131 -1.7213
  890TIP3   OH224084   3.020   5.231   4.295  0.1198  0.1127  0.4090
  890TIP3    H124085   2.925   5.223   4.292  0.1859 -1.2607  1.0923
  890TIP3    H224086   3.046   5.177   4.370  1.3983  0.8916  0.5577
  891TIP3   OH224087   4.788   3.670  14.008  0.2073 -0.1027  0.3649
  891TIP3    H124088   4.715   3.706  13.957 -0.4612 -1.7931  0.0409
  891TIP3    H224089   4.832   3.611  13.947  1.4291  0.3655  0.7784
  892TIP3   OH224090   0.945   0.760   2.830 -0.3235 -0.4933  0.5499
  892TIP3    H124091   1.023   0.805   2.798  0.6609 -1.2447  1.8008
  892TIP3    H224092   0.873   0.819   2.810  0.4699 -0.0546 -1.1949
  893TIP3   OH224093   5.669   6.568   6.067  0.8912 -0.1151  0.2142
  893TIP3    H124094   5.744   6.525   6.107  0.5884 -2.7578 -1.7921
  893TIP3    H224095   5.607   6.497   6.050 -0.6574  1.4784 -1.1877
  894TIP3   OH224096   2.393   2.013  15.074 -0.1675  0.4352 -0.0350
  894TIP3    H124097   2.366   2.073  15.005  0.4862  0.3669 -0.3560
  894TIP3    H224098   2.327   2.025  15.143 -1.4720 -0.2948 -1.1016
  895TIP3   OH224099   4.303   6.007   1.309  0.6622  0.1299  0.3401
  895TIP3    H124100   4.289   6.092   1.266 -0.0188 -0.5319 -0.8034
  895TIP3    H224101   4.306   5.944   1.237 -0.8425 -1.0732  1.2657
  896TIP3   OH224102   5.263   5.103   1.172 -0.4453 -0.0080 -0.8122
  896TIP3    H124103   5.287   5.195   1.162  2.3775 -0.5489  0.0613
  896TIP3    H224104   5.238   5.094   1.264  1.4612 -0.4735 -0.2941
  897TIP3   OH224105   3.528   2.277  15.304  0.8700 -0.1376  0.3180
  897TIP3    H124106   3.570   2.247  15.385  1.2936  0.3772  0.2908
  897TIP3    H224107   3.505   2.196  15.258  1.7767 -0.4236  0.3597
  898TIP3   OH224108   2.104   3.574  16.730 -0.3361  0.0283  0.2354
  898TIP3    H124109   2.120   3.480  16.721  0.0893  0.1768 -0.7473
  898TIP3    H224110   2.191   3.614  16.719 -0.0343  0.4300  3.2454
  899TIP3   OH224111   4.815   2.679  14.830 -1.2826 -0.0240 -0.4436
  899TIP3    H124112   4.732   2.718  14.805 -0.2577  1.4651 -1.6555
  899TIP3    H224113   4.878   2.750  14.825 -0.0288 -0.9315  1.2050
  900TIP3   OH224114   6.123   5.063   3.820 -0.0965  0.1758  0.4843
  900TIP3    H124115   6.179   5.020   3.884  0.9315 -0.6929 -0.9235
  900TIP3    H224116   6.063   4.994   3.790 -1.6753  0.9841  1.6535
  901TIP3   OH224117   5.595   0.107   2.037  0.9743  0.0226 -0.7797
  901TIP3    H124118   5.619   0.198   2.055  0.2640  0.0807 -0.0616
  901TIP3    H224119   5.633   0.088   1.952  0.8344  1.1082 -1.0939
  902TIP3   OH224120   3.049   6.389  12.272 -0.5792  0.3454 -0.8769
  902TIP3    H124121   3.060   6.340  12.354 -0.8451  0.4474 -0.7778
  902TIP3    H224122   2.960   6.424  12.277  0.0129  1.8629 -0.3817
  903TIP3   OH224123   5.519   5.213   2.095 -0.4844 -0.1100 -0.9038
  903TIP3    H124124   5.520   5.200   2.190 -0.5878  0.1332 -0.8702
  903TIP3    H224125   5.529   5.124   2.059  1.4702 -0.0137 -0.6668
  904TIP3   OH224126   2.108   3.718   2.888  0.1324 -1.0253 -0.5719
  904TIP3    H124127   2.105   3.705   2.983 -0.7608 -0.9150 -0.5737
  904TIP3    H224128   2.201   3.711   2.866  0.3491 -1.0885  0.3029
  905TIP3   OH224129   4.193   3.239   1.280 -0.0296 -0.1682  0.1167
  905TIP3    H124130   4.245   3.302   1.329  0.8340 -1.7888  1.4153
  905TIP3    H224131   4.107   3.242   1.321 -0.2918  0.8514 -0.4871
  906TIP3   OH224132   4.213   0.980   5.010 -0.0493 -0.0035 -0.0365
  906TIP3    H124133   4.138   1.039   4.998  0.1150  0.0752 -0.7705
  906TIP3    H224134   4.288   1.039   5.018 -0.0146 -0.0900  0.2493
  907TIP3   OH224135   0.039   3.080   0.996  0.3216  0.1032  0.5216
  907TIP3    H124136   0.082   3.164   1.009  1.3197  0.5401 -3.9530
  907TIP3    H224137   0.110   3.016   0.994  0.3616  0.1149 -1.8349
  908TIP3   OH224138   0.122   0.179   3.019  0.3017  0.2784  0.6645
  908TIP3    H124139   0.030   0.162   3.000  1.3190 -2.4821 -3.3688
  908TIP3    H224140   0.136   0.144   3.107 -2.4932  1.0904  1.5126
  909TIP3   OH224141   0.391   5.152   2.851 -0.2631  0.5513  0.9131
  909TIP3    H124142   0.434   5.213   2.791  0.7685 -0.6928  0.3446
  909TIP3    H224143   0.386   5.200   2.934  0.2678  1.5033  0.4079
  910TIP3   OH224144   5.941   0.299  13.061  0.1186  0.1610 -0.2101
  910TIP3    H124145   5.945   0.275  13.154 -0.9239 -0.1276 -0.2197
  910TIP3    H224146   5.988   0.382  13.055 -0.2186  0.4267  0.6694
  911TIP3   OH224147   1.630   4.391   4.994  0.8646 -0.0645 -0.9825
  911TIP3    H124148   1.706   4.432   4.952 -0.4455  1.2958 -2.1633
  911TIP3    H224149   1.660   4.369   5.082  2.6247  0.3880 -1.4263
  912TIP3   OH224150   3.774   5.778  12.127 -0.1861  0.6378 -0.5067
  912TIP3    H124151   3.701   5.733  12.170 -1.2460  2.4094 -0.3719
  912TIP3    H224152   3.780   5.736  12.041 -1.5752  0.6790 -0.6362
  913TIP3   OH224153   2.034   2.160   4.304  0.5084  0.2484 -0.3523
  913TIP3    H124154   2.002   2.223   4.240  1.8176  1.1052 -0.2163
  913TIP3    H224155   2.055   2.082   4.253 -2.3412 -0.6243 -0.3488
  914TIP3   OH224156   3.799   0.318  13.134 -0.3066 -0.0441 -0.1330
  914TIP3    H124157   3.759   0.233  13.153  1.5083 -0.5230  2.0365
  914TIP3    H224158   3.893   0.299  13.130  0.2403  1.9617  1.4464
  915TIP3   OH224159   4.382   3.986   1.193  0.2218 -0.0613  0.3462
  915TIP3    H124160   4.322   3.954   1.260 -3.2008  0.8250 -2.0369
  915TIP3    H224161   4.347   4.072   1.170  1.0895 -0.4335 -2.6965
  916TIP3   OH224162   3.557   3.002  12.563  0.1887  0.2886 -0.4805
  916TIP3    H124163   3.495   3.071  12.584 -1.0853 -0.4047 -1.8024
  916TIP3    H224164   3.622   3.045  12.507  0.8891  0.9925  0.8275
  917TIP3   OH224165   1.007   5.886   1.727 -0.0079  0.2066  0.2940
  917TIP3    H124166   1.019   5.793   1.747  0.1755  0.3831  1.0234
  917TIP3    H224167   1.017   5.892   1.632 -0.2143 -0.5482  0.2224
  918TIP3   OH224168   6.318   0.132  16.003  0.5927  0.5294 -0.5118
  918TIP3    H124169   6.292   0.181  15.925 -0.4977  0.2732 -0.3162
  918TIP3    H224170   6.258   0.162  16.072  0.9955  0.1291  0.0197
  919TIP3   OH224171   0.808   6.395   3.800 -0.1463 -0.0842 -0.1852
  919TIP3    H124172   0.842   6.468   3.851 -0.1558 -0.3818  0.2561
  919TIP3    H224173   0.773   6.335   3.866 -0.6396 -0.2260 -0.5794
  920TIP3   OH224174   2.315   1.555  13.123  0.0385  0.2485 -0.2607
  920TIP3    H124175   2.282   1.643  13.140 -2.5946 -0.4970 -1.0151
  920TIP3    H224176   2.380   1.567  13.053 -0.3367  1.5753 -0.4098
  921TIP3   OH224177   2.532   3.211   5.020 -0.2632  0.2383 -0.0851
  921TIP3    H124178   2.478   3.231   4.944 -0.3629 -0.3931 -0.1880
  921TIP3    H224179   2.567   3.123   5.002  1.2184  0.8352 -0.2627
  922TIP3   OH224180   1.315   0.210   1.506  0.4601  0.6168  0.4028
  922TIP3    H124181   1.362   0.278   1.554  0.6043  0.4110  0.5559
  922TIP3    H224182   1.231   0.203   1.550  0.7778  0.0837  0.9419
  923TIP3   OH224183   6.310   2.549   4.534 -0.3358  0.6704 -0.1040
  923TIP3    H124184   6.355   2.628   4.506  0.9381  0.0786  0.1843
  923TIP3    H224185   6.355   2.524   4.616 -3.7749  2.2595  2.5221
  924TIP3   OH224186   4.758   5.918  17.103  0.3851  0.1131 -0.0741
  924TIP3    H124187   4.763   6.012  17.088 -0.4342  0.4703  1.6820
  924TIP3    H224188   4.699   5.908  17.177 -0.1957 -1.8570 -0.7402
  925TIP3   OH224189   2.864   6.299   3.285 -0.0003 -0.7455  0.1917
  925TIP3    H124190   2.916   6.220   3.266 -1.5367 -1.8124  0.2305
  925TIP3    H224191   2.837   6.331   3.199 -0.3989 -0.9899  0.2225
  926TIP3   OH224192   0.442   1.260  16.458  0.1895  0.3752  0.9078
  926TIP3    H124193   0.525   1.302  16.434 -0.1374  1.1228  1.0705
  926TIP3    H224194   0.390   1.263  16.378 -0.1569  1.0753  1.1507
  927TIP3   OH224195   3.162   1.434   5.936  0.1856 -0.0670  0.2012
  927TIP3    H124196   3.179   1.505   5.874 -1.6338  0.9781  0.8204
  927TIP3    H224197   3.157   1.477   6.021 -0.9960 -0.9118  0.5909
  928TIP3   OH224198   3.062   4.669   1.597  0.0913  0.1936  0.1396
  928TIP3    H124199   3.097   4.581   1.606 -0.8346 -0.1622  0.3653
  928TIP3    H224200   3.105   4.719   1.667  0.9422  0.0389 -0.2618
  929TIP3   OH224201   0.184   1.108   0.494 -0.6480  0.5502  0.2871
  929TIP3    H124202   0.095   1.079   0.476 -0.6684  0.5405  0.4034
  929TIP3    H224203   0.235   1.027   0.501 -0.9992  0.4629  2.1880
  930TIP3   OH224204   2.094   4.654   4.514 -0.1030  0.0528  0.2515
  930TIP3    H124205   2.185   4.656   4.485  0.3750  0.7486  1.6777
  930TIP3    H224206   2.043   4.651   4.433  1.1777 -1.0827 -0.5633
  931TIP3   OH224207   5.504   5.004  13.242  0.4759  1.1595 -0.4713
  931TIP3    H124208   5.545   4.924  13.274 -0.0714  1.6291  1.5486
  931TIP3    H224209   5.570   5.044  13.186  0.6156 -0.8541 -1.8412
  932TIP3   OH224210   4.598   2.931  15.650  0.1203  0.2066 -0.1351
  932TIP3    H124211   4.544   2.970  15.718 -0.7544 -1.2965  0.0953
  932TIP3    H224212   4.545   2.939  15.570 -0.1828 -0.7053 -0.0342
  933TIP3   OH224213   6.607   5.657  11.400 -0.0225  0.0938 -0.2150
  933TIP3    H124214   6.558   5.654  11.317 -3.4359 -1.6461  1.6674
  933TIP3    H224215   6.656   5.574  11.401 -0.5555 -0.2282 -0.1948
  934TIP3   OH224216   6.057   0.015  14.911 -0.3539 -0.0418 -0.2645
  934TIP3    H124217   6.008   0.039  14.832 -0.1659 -0.4030 -0.4977
  934TIP3    H224218   6.059   0.094  14.964 -0.9406  0.0584 -0.3829
  935TIP3   OH224219   2.456   4.919   6.213 -0.0054  0.5891 -0.2835
  935TIP3    H124220   2.523   4.915   6.282 -1.0434 -0.1684  0.7160
  935TIP3    H224221   2.444   4.828   6.186 -0.4705  0.7513 -0.6194
  936TIP3   OH224222   1.112   0.955  13.250 -0.2710  0.4301 -0.4533
  936TIP3    H124223   1.047   0.888  13.271 -1.3743  1.6887  0.3255
  936TIP3    H224224   1.077   0.999  13.172  0.5034  0.0372 -1.0308
  937TIP3   OH224225   4.097   3.844   4.586 -0.0624 -0.2668  0.3919
  937TIP3    H124226   4.128   3.887   4.507 -1.6840  2.8194  1.2720
  937TIP3    H224227   4.170   3.790   4.615  0.9963 -0.5175 -2.4872
  938TIP3   OH224228   2.062   1.180  13.978  0.4734 -0.4079  0.2355
  938TIP3    H124229   2.012   1.102  13.954  2.1958 -1.3713 -0.3505
  938TIP3    H224230   2.102   1.158  14.062  2.1712 -0.8011 -0.6212
  939TIP3   OH224231   4.249   3.578   3.027  0.1815  0.0318  0.4187
  939TIP3    H124232   4.325   3.532   2.991 -0.3712 -1.9338  1.6581
  939TIP3    H224233   4.242   3.657   2.972  1.7728 -0.8165 -1.1340
  940TIP3   OH224234   3.698   2.672   0.428  0.5113 -0.2398 -0.2857
  940TIP3    H124235   3.781   2.718   0.437  0.1191  0.2565  1.0976
  940TIP3    H224236   3.688   2.624   0.510  0.4861 -2.1421 -1.3457
  941TIP3   OH224237   0.699   4.760   4.557 -0.6011  0.1944  0.4839
  941TIP3    H124238   0.657   4.795   4.635  0.7847 -1.6830  2.1799
  941TIP3    H224239   0.785   4.731   4.587  0.1016 -0.3312 -1.8291
  942TIP3   OH224240   3.251   6.200  16.332  0.3756 -0.2186 -0.2288
  942TIP3    H124241   3.303   6.261  16.384  0.7772  0.3112 -1.2215
  942TIP3    H224242   3.182   6.170  16.392 -0.0737  1.5106  0.1809
  943TIP3   OH224243   4.828   0.884   1.363 -0.3366 -0.4396 -0.4037
  943TIP3    H124244   4.763   0.924   1.421  1.1522  0.4468  0.7329
  943TIP3    H224245   4.899   0.948   1.358 -0.1444 -0.7570 -2.7884
  944TIP3   OH224246   3.821   1.664   0.413 -0.1313 -0.2900  0.3857
  944TIP3    H124247   3.827   1.722   0.337 -0.3675 -1.0354 -0.2202
  944TIP3    H224248   3.799   1.721   0.486  0.9323  0.5701  0.0627
  945TIP3   OH224249   3.755   3.922  11.781  0.1937  0.2780 -0.3431
  945TIP3    H124250   3.820   3.952  11.844  0.8563  0.9875 -1.3417
  945TIP3    H224251   3.802   3.861  11.725  0.2978  1.5373 -1.6812
  946TIP3   OH224252   1.455   4.050   0.120  0.5246  0.2626 -0.0829
  946TIP3    H124253   1.462   3.955   0.114  2.0908  0.3107  0.5965
  946TIP3    H224254   1.361   4.066   0.126  0.1633 -1.1453 -1.3305
  947TIP3   OH224255   4.321   3.019   2.370  0.0501  0.0493 -0.7006
  947TIP3    H124256   4.333   3.037   2.463 -1.2435 -0.1395 -0.4835
  947TIP3    H224257   4.410   3.017   2.334  0.4756  2.5474  0.0544
  948TIP3   OH224258   2.955   1.592   4.081  0.3167  0.1232  0.1320
  948TIP3    H124259   3.032   1.648   4.091  3.4156 -3.6180 -0.4276
  948TIP3    H224260   2.922   1.581   4.171  2.3449 -0.4868  0.8657
  949TIP3   OH224261   0.007   1.161   0.859  0.1115 -0.2950  0.3492
  949TIP3    H124262  -0.036   1.106   0.924 -0.5921 -0.3644 -0.1554
  949TIP3    H224263   0.024   1.243   0.905 -0.0563 -0.4682  0.7238
  950TIP3   OH224264   5.376   1.115  15.011 -0.3381 -0.5711 -0.3177
  950TIP3    H124265   5.410   1.185  15.067  0.0455 -0.9055 -0.1340
  950TIP3    H224266   5.285   1.103  15.040 -0.4558 -0.0390 -0.4591
  951TIP3   OH224267   3.513   6.000   4.051  0.6173 -0.0552  0.2699
  951TIP3    H124268   3.526   6.090   4.082 -0.7532  0.2342  0.0606
  951TIP3    H224269   3.504   6.008   3.956 -0.9772 -0.2068  0.3818
  952TIP3   OH224270   5.715   3.974  12.844 -0.4267 -0.6729 -0.1536
  952TIP3    H124271   5.663   4.029  12.785 -0.6460  0.8312  1.3781
  952TIP3    H224272   5.786   4.030  12.874 -1.1228 -0.8782  2.1076
  953TIP3   OH224273   1.849   2.695  13.125 -0.1911  0.2289  0.1724
  953TIP3    H124274   1.915   2.741  13.177 -1.2262  1.0853  0.7699
  953TIP3    H224275   1.766   2.737  13.149 -1.3213 -2.4772  1.3444
  954TIP3   OH224276   0.268   6.256  15.526  0.0469 -0.1983 -0.0977
  954TIP3    H124277   0.262   6.229  15.434  0.1038  0.6406 -0.3545
  954TIP3    H224278   0.343   6.207  15.560 -0.1362 -0.7198 -0.4223
  955TIP3   OH224279   4.617   2.351   1.590 -0.1800  0.3666  0.1237
  955TIP3    H124280   4.652   2.269   1.557 -0.1609  0.3736  0.1263
  955TIP3    H224281   4.613   2.339   1.685  1.5537  1.0276  0.3116
  956TIP3   OH224282   4.446   4.633  17.085  0.2821  0.0710  0.3532
  956TIP3    H124283   4.507   4.632  17.012 -1.2819 -0.5604 -0.9864
  956TIP3    H224284   4.392   4.711  17.070 -2.0693 -1.6754 -0.9824
  957TIP3   OH224285   0.335   2.903  12.559 -0.4251 -0.0080 -0.2155
  957TIP3    H124286   0.425   2.874  12.573 -0.4652 -0.3392 -0.6315
  957TIP3    H224287   0.290   2.881  12.641  0.3745  2.2395  0.9070
  958TIP3   OH224288   4.543   5.085  13.451 -0.2132 -0.0132  0.4600
  958TIP3    H124289   4.486   5.010  13.466  0.6199 -0.7899 -0.1686
  958TIP3    H224290   4.624   5.048  13.417 -0.2964  1.2735 -1.2981
  959TIP3   OH224291   1.136   5.282  14.968  0.2705 -0.2320  0.2501
  959TIP3    H124292   1.114   5.214  15.032  1.3059  0.2660  1.1536
  959TIP3    H224293   1.182   5.349  15.018  0.2451  0.6322 -0.8383
  960TIP3   OH224294   2.268   2.898   4.753 -0.2738 -0.0460 -0.0792
  960TIP3    H124295   2.214   2.822   4.731 -0.8201  0.7647 -1.6956
  960TIP3    H224296   2.269   2.899   4.849 -0.8992 -1.6260 -0.0253
  961TIP3   OH224297   1.362   1.115  14.215  0.6049 -0.4553  0.3464
  961TIP3    H124298   1.300   1.043  14.201  0.1993 -0.5238  2.2468
  961TIP3    H224299   1.427   1.080  14.276 -0.4116  1.1616  2.5012
  962TIP3   OH224300   4.819   3.062   0.551  0.5057 -0.0490  0.3738
  962TIP3    H124301   4.791   3.088   0.639 -0.5430  1.1308 -0.2760
  962TIP3    H224302   4.762   2.988   0.529  0.6902 -0.2709  0.6274
  963TIP3   OH224303   0.083   6.744  15.415 -0.1100  0.3813 -0.0750
  963TIP3    H124304   0.172   6.718  15.441 -0.1062  1.0012  0.5694
  963TIP3    H224305   0.067   6.825  15.463 -0.4454  1.1220 -1.3973
  964TIP3   OH224306   5.645   5.258   5.328 -0.3348 -0.3399  0.2736
  964TIP3    H124307   5.711   5.327   5.333 -0.7482  0.0025  1.1050
  964TIP3    H224308   5.615   5.261   5.237  1.2511 -0.9492 -0.3096
  965TIP3   OH224309   1.586   3.047  16.126  0.3970  0.1507 -0.2026
  965TIP3    H124310   1.505   3.073  16.082  0.4951 -0.2826 -0.6545
  965TIP3    H224311   1.644   3.019  16.055 -0.0419 -2.2154  0.2574
  966TIP3   OH224312   4.422   3.250   4.513 -0.2405  0.0185 -0.2410
  966TIP3    H124313   4.336   3.231   4.475 -1.0650  3.3580 -0.3620
  966TIP3    H224314   4.418   3.212   4.601 -1.3369 -0.9797 -0.6991
  967TIP3   OH224315   5.812   1.855  12.540  0.1573 -0.3731  0.2861
  967TIP3    H124316   5.875   1.924  12.561 -0.9630  0.0843  2.5762
  967TIP3    H224317   5.846   1.777  12.584  0.8212 -1.0353 -1.3263
  968TIP3   OH224318   1.836   0.891  15.376  0.4046 -0.6776  0.2167
  968TIP3    H124319   1.885   0.924  15.300  3.8170 -0.4209  2.2869
  968TIP3    H224320   1.873   0.805  15.393  0.9867 -0.0451  2.5151
  969TIP3   OH224321   2.163   1.575   0.778 -0.3217  0.0387  0.2504
  969TIP3    H124322   2.095   1.511   0.797 -0.7650  0.2848 -0.4916
  969TIP3    H224323   2.116   1.655   0.756  0.2118  0.2957  0.0213
  970TIP3   OH224324   1.040   0.006   1.586 -0.0003  0.0576  0.0490
  970TIP3    H124325   1.096  -0.071   1.581  0.8353  0.6981 -1.4293
  970TIP3    H224326   0.951  -0.027   1.575  0.4018 -0.6545 -1.2028
  971TIP3   OH224327   0.247   0.546  14.106  0.1895  0.6281  0.1883
  971TIP3    H124328   0.152   0.538  14.112  0.3723 -1.4142  1.0881
  971TIP3    H224329   0.272   0.599  14.182 -0.1545  0.4072  0.4563
  972TIP3   OH224330   3.115   5.760   1.996  0.4233  0.3857  0.4520
  972TIP3    H124331   3.119   5.677   2.043 -0.2412 -0.8710 -1.5849
  972TIP3    H224332   3.030   5.797   2.020 -0.7346 -1.1325 -1.0711
  973TIP3   OH224333   1.208   3.012   4.987 -0.1324 -0.6277  0.6178
  973TIP3    H124334   1.208   2.970   5.072 -0.8120  0.1134  1.0020
  973TIP3    H224335   1.299   3.010   4.958  0.5612  1.1837  2.4287
  974TIP3   OH224336   5.460   3.905   2.005  0.5375  0.0992 -0.4671
  974TIP3    H124337   5.478   3.823   2.051  1.0309 -0.7545 -2.0964
  974TIP3    H224338   5.474   3.884   1.912 -0.0614  1.8358 -0.9894
  975TIP3   OH224339   0.502   6.469   4.073  0.8468  0.3277 -0.5252
  975TIP3    H124340   0.581   6.421   4.096 -1.1886 -2.0299  2.3005
  975TIP3    H224341   0.482   6.439   3.984  2.2831 -0.2568 -0.6801
  976TIP3   OH224342   4.988   5.188  12.452 -0.1124 -0.5250  0.0359
  976TIP3    H124343   4.923   5.137  12.501 -1.4268  0.6089 -0.4670
  976TIP3    H224344   5.004   5.265  12.507  0.0821 -0.3266 -0.2947
  977TIP3   OH224345   2.597   1.688  15.881  0.4389 -0.2093  0.8671
  977TIP3    H124346   2.536   1.643  15.823  0.0689 -2.0616  2.5579
  977TIP3    H224347   2.545   1.756  15.924  0.1687 -0.2690  0.6347
  978TIP3   OH224348   6.556   1.610   4.077  0.0412  0.5399 -0.0821
  978TIP3    H124349   6.604   1.664   4.141  0.5376 -0.0314  0.0317
  978TIP3    H224350   6.621   1.549   4.044 -0.2502  0.7330 -1.0329
  979TIP3   OH224351   0.676   4.471  15.190 -0.2383  0.3985  0.3284
  979TIP3    H124352   0.642   4.386  15.163 -0.1297  0.1795  0.8584
  979TIP3    H224353   0.683   4.465  15.285  2.1347  0.0854  0.2124
  980TIP3   OH224354   2.138   5.210  16.142  0.4413 -0.4019 -0.2041
  980TIP3    H124355   2.136   5.129  16.193 -0.7136  0.4658  1.2143
  980TIP3    H224356   2.107   5.184  16.055  1.5848 -1.7448 -0.2419
  981TIP3   OH224357   4.092   0.463   5.556 -1.1501  0.9300 -0.6782
  981TIP3    H124358   3.998   0.464   5.536 -1.3704  1.2264  0.2891
  981TIP3    H224359   4.095   0.466   5.652 -0.1380  1.4369 -0.7192
  982TIP3   OH224360   6.732   6.114  16.870  0.2096 -0.4625  0.0776
  982TIP3    H124361   6.643   6.107  16.906  0.7558 -3.1288  1.1277
  982TIP3    H224362   6.760   6.203  16.893 -1.9147  0.1986  0.3220
  983TIP3   OH224363   5.115   4.683   2.497 -0.4308  0.3236 -0.7746
  983TIP3    H124364   5.025   4.680   2.528 -0.2810 -0.8191 -0.4243
  983TIP3    H224365   5.168   4.681   2.577 -0.0850  0.2110 -1.0058
  984TIP3   OH224366   0.118   3.349  11.989 -0.5770  0.3102 -0.1360
  984TIP3    H124367   0.039   3.339  12.042  0.7276  0.3844  1.9412
  984TIP3    H224368   0.186   3.305  12.039  1.2641  2.6371 -0.4117
  985TIP3   OH224369   1.022   5.962  14.990  0.0569 -0.0609 -0.5603
  985TIP3    H124370   1.113   5.989  14.995  0.2737 -0.9805  2.3218
  985TIP3    H224371   1.024   5.875  14.949  0.4967 -0.1832 -0.2789
  986TIP3   OH224372   0.910   2.063  13.971 -0.3483  0.9779  0.4816
  986TIP3    H124373   0.911   2.156  13.992 -1.6098  1.0055  0.5293
  986TIP3    H224374   0.853   2.056  13.895 -0.7491  0.1884  0.8353
  987TIP3   OH224375   3.587   4.930  13.505  0.2601 -0.5481 -0.1795
  987TIP3    H124376   3.535   4.863  13.461  0.0475 -0.8810  0.5643
  987TIP3    H224377   3.542   5.012  13.486 -0.4422 -0.8146  0.3206
  988TIP3   OH224378   3.486   0.727   2.836 -0.0944 -0.8753  0.8136
  988TIP3    H124379   3.440   0.714   2.919  0.0515  0.1932  1.0816
  988TIP3    H224380   3.416   0.731   2.770 -0.3063 -0.4951  1.0551
  989TIP3   OH224381   4.982   1.510   5.826 -0.1597  0.3397 -0.1293
  989TIP3    H124382   5.077   1.516   5.833  0.0713 -1.2080 -1.5090
  989TIP3    H224383   4.959   1.432   5.877 -0.7969  1.1052  0.7931
  990TIP3   OH224384   3.642   0.058   2.589 -0.1993  0.2257 -0.2106
  990TIP3    H124385   3.689   0.123   2.642 -0.0549  0.5314 -0.7023
  990TIP3    H224386   3.594   0.005   2.652  1.8357 -0.9529  0.4230
  991TIP3   OH224387   3.057   2.501  16.926 -0.1260 -0.0481  0.4226
  991TIP3    H124388   2.973   2.459  16.906 -0.0529  0.2609 -0.5431
  991TIP3    H224389   3.052   2.587  16.886  0.8270 -0.1878 -0.0309
  992TIP3   OH224390   3.701   6.250  15.161  0.3479 -0.1405 -0.1766
  992TIP3    H124391   3.606   6.247  15.170  0.3924  1.6495  1.5795
  992TIP3    H224392   3.735   6.211  15.242  1.0086  2.5118  0.9203
  993TIP3   OH224393   3.113   6.328   5.785 -0.1258  0.1873 -0.1431
  993TIP3    H124394   3.163   6.379   5.849 -0.8746 -1.0845  1.5583
  993TIP3    H224395   3.038   6.383   5.764 -0.6751  0.0343  1.2902
  994TIP3   OH224396   2.774   4.409   4.381 -0.0310 -0.1097  0.1393
  994TIP3    H124397   2.791   4.495   4.418 -1.5207 -0.6285  2.2895
  994TIP3    H224398   2.786   4.419   4.287  0.5344  2.2346  0.4108
  995TIP3   OH224399   6.069   6.278  13.710  0.0897  0.5977  0.3768
  995TIP3    H124400   5.983   6.313  13.734  0.4335  1.0371  0.9877
  995TIP3    H224401   6.076   6.293  13.616 -1.4795 -1.5456 -0.1609
  996TIP3   OH224402   2.215   4.950   2.237  0.0276 -0.1533  0.1487
  996TIP3    H124403   2.287   4.898   2.203  0.1110 -0.3584  0.6278
  996TIP3    H224404   2.247   4.987   2.319 -0.3650 -0.1410  0.3029
  997TIP3   OH224405   3.688   5.959  16.165  0.6978  0.1281 -0.5159
  997TIP3    H124406   3.730   6.038  16.130  0.7863 -0.8351 -2.7812
  997TIP3    H224407   3.712   5.890  16.103 -1.6386 -1.1146 -0.1576
  998TIP3   OH224408   4.852   4.740   3.694  0.0340  0.2412  0.3945
  998TIP3    H124409   4.763   4.708   3.708  0.1687 -1.3096 -1.8325
  998TIP3    H224410   4.901   4.710   3.770 -1.0049 -0.2277  0.8892
  999TIP3   OH224411   0.334   0.280   2.886 -0.0895 -0.5248  0.1569
  999TIP3    H124412   0.243   0.271   2.914 -0.0205  0.3362  0.7008
  999TIP3    H224413   0.337   0.238   2.800 -1.1740  0.0722 -0.1990
 1000TIP3   OH224414   0.082   6.044  13.169  0.0171  0.8124  0.1549
 1000TIP3    H124415   0.147   6.097  13.122  1.1579  1.0994  1.9480
 1000TIP3    H224416   0.129   5.964  13.192 -1.0043 -0.0126 -0.5245
 1001TIP3   OH224417   6.123   3.344   6.566  0.3661  0.5110 -1.0745
 1001TIP3    H124418   6.113   3.276   6.499  0.9385 -1.4397  0.7122
 1001TIP3    H224419   6.204   3.322   6.611 -1.1430  0.3047  1.7786
 1002TIP3   OH224420   3.059   5.184  16.159 -0.5233 -0.3491  0.5812
 1002TIP3    H124421   3.086   5.206  16.249  1.4546  1.5546 -0.3536
 1002TIP3    H224422   3.003   5.257  16.133  1.1168  0.5717 -0.5611
 1003TIP3   OH224423   5.677   3.263   4.744  0.2403  0.4036  0.1539
 1003TIP3    H124424   5.644   3.271   4.833  1.9621  2.4090  0.7157
 1003TIP3    H224425   5.710   3.351   4.723 -1.1461  0.3331 -2.9288
 1004TIP3   OH224426   1.882   4.048   2.831  0.7000  0.1651 -0.4548
 1004TIP3    H124427   1.826   4.078   2.759 -1.6802 -1.3193  0.6630
 1004TIP3    H224428   1.964   4.096   2.818 -0.8285  2.6084 -2.1004
 1005TIP3   OH224429   3.155   4.082   3.876  0.3206  0.4771  0.0235
 1005TIP3    H124430   3.075   4.034   3.853  1.6980 -2.8085  1.4383
 1005TIP3    H224431   3.199   4.098   3.793 -0.3417 -0.4983 -0.5305
 1006TIP3   OH224432   6.221   3.691  15.012 -0.1936 -0.4286 -0.7540
 1006TIP3    H124433   6.178   3.719  15.094  0.0796 -1.1347 -0.3603
 1006TIP3    H224434   6.224   3.595  15.018 -1.4744 -0.5964 -2.2602
 1007TIP3   OH224435   1.393   0.915   4.191  0.9900 -0.6275 -0.0787
 1007TIP3    H124436   1.431   1.003   4.188 -1.6641  0.6168 -0.0671
 1007TIP3    H224437   1.345   0.908   4.108 -0.3592 -1.3038  0.7366
 1008TIP3   OH224438   6.223   6.244   4.339  0.5051  0.0661  1.1071
 1008TIP3    H124439   6.291   6.197   4.389  1.2647  1.5458  1.5097
 1008TIP3    H224440   6.238   6.336   4.358 -0.1196  0.5906 -0.7158
 1009TIP3   OH224441   2.759   2.111  16.399 -0.1191 -0.3083 -0.3288
 1009TIP3    H124442   2.761   2.096  16.493 -0.1380  2.4679  0.2107
 1009TIP3    H224443   2.850   2.128  16.375 -0.3264  0.6880 -0.4523
 1010TIP3   OH224444   4.750   2.974  14.529 -0.4547  0.2022 -0.4694
 1010TIP3    H124445   4.661   3.003  14.508 -0.6385  0.4597  0.5657
 1010TIP3    H224446   4.802   2.997  14.453 -1.4410 -0.7796 -1.4680
 1011TIP3   OH224447   3.234   1.917   1.074  0.0493 -0.2370  0.4656
 1011TIP3    H124448   3.276   1.987   1.123  1.8001 -0.1351 -1.0945
 1011TIP3    H224449   3.210   1.956   0.991 -1.9568 -0.6777  0.7811
 1012TIP3   OH224450   1.002   5.913   3.817 -0.5726  0.5845  0.0545
 1012TIP3    H124451   1.082   5.960   3.841 -0.3925  0.3738 -0.1306
 1012TIP3    H224452   1.027   5.820   3.820 -0.9312  0.4976  0.4353
 1013TIP3   OH224453   1.117   5.658   2.430  0.1830 -0.1290  0.2024
 1013TIP3    H124454   1.168   5.629   2.354  1.0618  0.1415  0.6669
 1013TIP3    H224455   1.043   5.707   2.393  0.5531 -0.0757 -0.4798
 1014TIP3   OH224456   6.209   0.791   4.886  0.4039  0.7253  0.1272
 1014TIP3    H124457   6.178   0.730   4.819 -0.6931  1.6285 -0.2207
 1014TIP3    H224458   6.181   0.751   4.969  0.3975  0.3645 -0.0462
 1015TIP3   OH224459   2.542   1.782  14.131  0.2711  0.0742  0.0562
 1015TIP3    H124460   2.582   1.724  14.195  1.2238 -0.8920 -1.3504
 1015TIP3    H224461   2.615   1.819  14.081 -0.4085  1.2073 -0.1606
 1016TIP3   OH224462   3.952   3.603   5.396 -0.1401  0.1231 -0.2365
 1016TIP3    H124463   4.026   3.544   5.410  0.9996  1.7867  1.2156
 1016TIP3    H224464   3.992   3.685   5.369 -1.5428  0.7622 -0.4424
 1017TIP3   OH224465   3.138   5.765  15.656 -0.2730 -0.0541 -0.4114
 1017TIP3    H124466   3.201   5.804  15.596 -0.5408  0.2728 -0.4805
 1017TIP3    H224467   3.056   5.766  15.607 -0.2737 -0.7477 -0.4345
 1018TIP3   OH224468   1.915   5.770   0.347  0.4472 -0.1556 -0.1933
 1018TIP3    H124469   2.007   5.744   0.343  0.5398 -0.1767  1.4653
 1018TIP3    H224470   1.906   5.837   0.279  1.4199 -0.8702 -1.0707
 1019TIP3   OH224471   4.558   4.904   5.012  0.0574  0.0308 -0.5922
 1019TIP3    H124472   4.573   4.987   4.966  1.2458  0.0851 -0.1365
 1019TIP3    H224473   4.597   4.917   5.098 -1.4868 -0.3359  0.2045
 1020TIP3   OH224474   6.356   0.391  14.550  0.3921 -0.2239  0.1218
 1020TIP3    H124475   6.423   0.324  14.536  0.6662 -0.5578  2.5802
 1020TIP3    H224476   6.294   0.378  14.479  1.1188 -2.2306 -0.2012
 1021TIP3   OH224477   4.031   3.300  15.377 -0.1325 -0.1741  0.0303
 1021TIP3    H124478   4.031   3.350  15.295  1.0620  0.6483  0.5008
 1021TIP3    H224479   4.110   3.329  15.423 -0.2941 -1.2939  1.0735
 1022TIP3   OH224480   1.224   4.053  15.383 -0.2264  0.2382  0.2878
 1022TIP3    H124481   1.154   4.001  15.343 -0.2317  0.1778  0.3758
 1022TIP3    H224482   1.178   4.118  15.435 -0.2151 -0.3054  0.9958
 1023TIP3   OH224483   4.146   1.448   2.002 -0.6153  0.1787  0.1902
 1023TIP3    H124484   4.151   1.367   2.053  0.6035 -1.3895 -2.2174
 1023TIP3    H224485   4.069   1.437   1.947 -0.0166  0.2714 -0.6956
 1024TIP3   OH224486   2.541   0.453  12.875 -0.0905  0.2258  0.2487
 1024TIP3    H124487   2.488   0.389  12.921 -0.3066 -0.0961 -0.4430
 1024TIP3    H224488   2.620   0.405  12.850 -0.2945  0.1937 -0.3539
 1025TIP3   OH224489   6.757   5.087   2.212 -0.0881  0.4238 -0.1844
 1025TIP3    H124490   6.797   5.174   2.208  1.4997 -0.3194 -1.2880
 1025TIP3    H224491   6.715   5.076   2.127  0.6283 -0.2955 -0.4523
 1026TIP3   OH224492   1.326   1.733  16.855  0.2647  0.0037 -0.0188
 1026TIP3    H124493   1.416   1.706  16.838  0.2635  1.1895 -2.2325
 1026TIP3    H224494   1.277   1.703  16.779 -0.5353  2.3025 -0.4736
 1027TIP3   OH224495   2.802   0.221  10.982 -0.1398 -0.4823 -0.1204
 1027TIP3    H124496   2.860   0.180  10.918  2.7017  0.4922  1.6403
 1027TIP3    H224497   2.820   0.315  10.974 -0.7307 -0.2386  1.1883
 1028TIP3   OH224498   2.216   1.835   2.656  0.2171 -0.4156  0.4137
 1028TIP3    H124499   2.184   1.923   2.675 -0.9034 -0.2454 -1.9019
 1028TIP3    H224500   2.241   1.838   2.563  1.1325 -2.2706  0.5541
 1029TIP3   OH224501   3.093   2.486   1.200  0.0450 -0.0447  0.3334
 1029TIP3    H124502   3.042   2.559   1.165  0.2144  0.1523  0.4923
 1029TIP3    H224503   3.050   2.464   1.282  0.0235 -0.0923  0.3096
 1030TIP3   OH224504   4.576   5.149  10.743 -0.5278  0.3566  0.3378
 1030TIP3    H124505   4.649   5.208  10.724  1.4465 -1.9105  0.3252
 1030TIP3    H224506   4.539   5.182  10.824  3.4082 -0.7498  2.9027
 1031TIP3   OH224507   4.454   0.729   5.017 -0.3261  0.0909 -0.0946
 1031TIP3    H124508   4.389   0.670   4.978 -0.9028  0.1682  0.7060
 1031TIP3    H224509   4.528   0.672   5.037 -0.0632  0.0325 -1.1723
 1032TIP3   OH224510   2.720   5.067  11.417 -0.0306 -0.0230 -0.3067
 1032TIP3    H124511   2.637   5.019  11.420 -0.0323 -0.1450 -1.5988
 1032TIP3    H224512   2.726   5.098  11.326 -0.5384  3.3709  0.6751
 1033TIP3   OH224513   3.459   2.102  11.873  0.1625  0.0275  0.1863
 1033TIP3    H124514   3.401   2.095  11.797 -0.5110  2.3589  0.4234
 1033TIP3    H224515   3.513   2.023  11.869 -1.3299 -0.9765 -1.4583
 1034TIP3   OH224516   1.415   6.235  15.693 -0.8315  0.0799 -0.5785
 1034TIP3    H124517   1.420   6.326  15.724 -1.0172  0.8994 -2.7938
 1034TIP3    H224518   1.354   6.238  15.619 -2.1639 -2.1929  0.3269
 1035TIP3   OH224519   6.445   1.623  12.467  0.2020 -0.6593 -0.6298
 1035TIP3    H124520   6.424   1.715  12.452  1.9792 -0.5532 -3.2387
 1035TIP3    H224521   6.433   1.582  12.381  4.0217 -1.8081 -0.8136
 1036TIP3   OH224522   3.298   5.411  11.872  0.1047  0.0087 -0.3358
 1036TIP3    H124523   3.323   5.469  11.944 -1.3175  0.4082 -0.1250
 1036TIP3    H224524   3.214   5.374  11.899  0.4908 -1.3794 -0.9268
 1037TIP3   OH224525   5.720   2.615   0.810 -0.5103  0.0685 -0.2233
 1037TIP3    H124526   5.744   2.703   0.841  0.4890 -0.7415  1.3793
 1037TIP3    H224527   5.788   2.593   0.746 -0.2949  0.1485 -0.0255
 1038TIP3   OH224528   4.724   3.161  15.304 -0.2869  0.4302 -0.2948
 1038TIP3    H124529   4.643   3.144  15.351  0.1104  2.0659  1.0926
 1038TIP3    H224530   4.720   3.254  15.281  1.4222  0.7135  0.3499
 1039TIP3   OH224531   0.821   1.870   2.413  0.4041 -0.3880 -0.2628
 1039TIP3    H124532   0.819   1.788   2.364 -0.3601 -0.6568  0.1837
 1039TIP3    H224533   0.783   1.935   2.353 -1.3697 -0.8948  0.2293
 1040TIP3   OH224534   4.582   5.838   4.411  0.6595  0.0314  0.9148
 1040TIP3    H124535   4.637   5.837   4.333  0.1699 -1.2899  0.5638
 1040TIP3    H224536   4.617   5.769   4.467 -0.0374 -0.1923  1.0936
 1041TIP3   OH224537   2.716   0.925  13.172 -0.2410 -0.0707 -0.2103
 1041TIP3    H124538   2.691   0.930  13.080 -0.2961  0.0208 -0.1906
 1041TIP3    H224539   2.786   0.860  13.174 -1.2113 -1.1495 -0.1053
 1042TIP3   OH224540   5.127   3.955  12.977 -0.7420 -0.1393  0.3531
 1042TIP3    H124541   5.071   3.918  12.909  1.8384 -3.4030 -0.2222
 1042TIP3    H224542   5.163   4.035  12.937 -1.6247 -0.3335 -0.8854
 1043TIP3   OH224543   6.498   4.128   3.841  0.1845 -0.5003 -0.2685
 1043TIP3    H124544   6.430   4.067   3.811 -0.2758  0.0395 -0.3325
 1043TIP3    H224545   6.480   4.209   3.793  0.0020  0.0903  0.7788
 1044TIP3   OH224546   5.235   0.083  13.706  0.2474 -0.0833  0.2067
 1044TIP3    H124547   5.240   0.054  13.797  0.4736  1.3042  0.6570
 1044TIP3    H224548   5.313   0.137  13.693  0.3229 -0.4263 -0.8827
 1045TIP3   OH224549   5.858   5.442   5.307 -0.5882 -0.1708 -0.5572
 1045TIP3    H124550   5.813   5.524   5.328  1.5509  0.7887  0.6379
 1045TIP3    H224551   5.911   5.463   5.230 -0.8783 -0.7858 -0.9328
 1046TIP3   OH224552   3.720   5.935   4.215 -0.4511 -0.2883 -0.1907
 1046TIP3    H124553   3.761   6.022   4.217  1.1420 -1.0098 -0.0325
 1046TIP3    H224554   3.654   5.941   4.146  0.5557  0.6643 -1.1077
 1047TIP3   OH224555   0.275   2.814   5.433 -0.2702 -0.3055 -0.2333
 1047TIP3    H124556   0.308   2.747   5.373  2.2317 -0.3735  1.0975
 1047TIP3    H224557   0.287   2.896   5.385  0.9058 -0.4316 -0.1750
 1048TIP3   OH224558   6.072   4.680   2.422 -0.5825 -0.1884 -0.0708
 1048TIP3    H124559   6.088   4.700   2.330  1.1154  1.9961  0.6191
 1048TIP3    H224560   5.984   4.713   2.438 -1.5229 -1.9757 -1.2147
 1049TIP3   OH224561   4.808   1.377  12.306  0.1576  0.4252  0.3508
 1049TIP3    H124562   4.747   1.324  12.358  0.8612  0.2321  1.0039
 1049TIP3    H224563   4.894   1.348  12.334  0.5821 -0.1734 -1.4363
 1050TIP3   OH224564   0.239   2.278  13.558  0.0639 -0.2062  0.4200
 1050TIP3    H124565   0.324   2.323  13.560 -0.7497  1.3967  0.7371
 1050TIP3    H224566   0.206   2.292  13.469 -1.0027  1.4841  1.0348
 1051TIP3   OH224567   3.885   4.554  12.605  0.2799  0.4036  0.1890
 1051TIP3    H124568   3.977   4.578  12.593  0.9467 -1.5565  1.0964
 1051TIP3    H224569   3.881   4.461  12.584 -1.7439  0.6751 -0.9055
 1052TIP3   OH224570   0.985   6.301  14.776  0.5556  0.5935  0.1737
 1052TIP3    H124571   0.937   6.219  14.779 -1.8937  1.9675  1.7169
 1052TIP3    H224572   1.027   6.308  14.862 -0.1992  1.4144  0.5034
 1053TIP3   OH224573   0.032   3.119   5.909 -0.2191 -0.3266  0.3985
 1053TIP3    H124574   0.016   3.025   5.900 -0.0099 -0.4081  0.8808
 1053TIP3    H224575   0.126   3.126   5.925  0.0660  0.0745 -1.2585
 1054TIP3   OH224576   1.644   2.877  10.826  0.1876  0.4099  0.1256
 1054TIP3    H124577   1.590   2.933  10.881 -1.6389 -0.4125 -0.7532
 1054TIP3    H224578   1.718   2.854  10.882  0.1294  2.2854  1.0695
 1055TIP3   OH224579   4.817   1.177  16.842 -0.2428  0.0943 -0.4336
 1055TIP3    H124580   4.799   1.125  16.920  2.0354  0.8410  0.6645
 1055TIP3    H224581   4.731   1.189  16.801 -1.1403 -2.5429  0.4951
 1056TIP3   OH224582   3.739   1.715  15.536  0.5220  0.5063  0.6493
 1056TIP3    H124583   3.721   1.791  15.479 -1.5057  0.0795  0.6246
 1056TIP3    H224584   3.767   1.646  15.476 -2.0100 -0.0720 -0.0245
 1057TIP3   OH224585   4.840   2.171  12.002 -0.3344 -0.5895 -0.2938
 1057TIP3    H124586   4.751   2.197  11.977  0.1434  0.4416 -0.9909
 1057TIP3    H224587   4.860   2.096  11.945 -0.3885 -0.1859 -0.8481
 1058TIP3   OH224588   1.031   3.492   0.255 -0.7113  0.5024  0.1201
 1058TIP3    H124589   0.939   3.502   0.278 -0.8195  2.0309 -0.8412
 1058TIP3    H224590   1.035   3.518   0.163  0.8133  1.2232  0.3627
 1059TIP3   OH224591   4.526   6.671  15.844 -0.4145 -0.2684 -0.3758
 1059TIP3    H124592   4.506   6.598  15.785  0.1569  0.6335 -1.7534
 1059TIP3    H224593   4.465   6.740  15.817  0.3215  0.3877 -0.3924
 1060TIP3   OH224594   4.535   6.153   6.314  0.3832 -0.2090  0.0058
 1060TIP3    H124595   4.490   6.178   6.234  0.9424  0.2224 -0.1775
 1060TIP3    H224596   4.591   6.080   6.288  0.7672  0.1055 -0.0632
 1061TIP3   OH224597   0.482   5.610   4.668 -0.6553  0.2395  0.4896
 1061TIP3    H124598   0.500   5.600   4.762 -0.6221  0.7692  0.5421
 1061TIP3    H224599   0.522   5.694   4.645  0.5332 -0.5105 -0.2980
 1062TIP3   OH224600   1.207   0.218  14.657  0.2773 -0.1116 -0.1726
 1062TIP3    H124601   1.253   0.185  14.734 -0.5324  2.3546  1.4832
 1062TIP3    H224602   1.270   0.207  14.585  0.9026 -2.8550  0.6618
 1063TIP3   OH224603   4.929   6.438  16.711  0.3934 -0.4376 -0.0607
 1063TIP3    H124604   4.985   6.516  16.708  0.4488 -0.4338  0.7697
 1063TIP3    H224605   4.987   6.367  16.736 -0.1379 -0.2401  1.8854
 1064TIP3   OH224606   0.988   3.137   0.446  0.8150 -0.0672 -0.1284
 1064TIP3    H124607   1.070   3.178   0.474  0.5117  0.8563 -0.5264
 1064TIP3    H224608   1.003   3.043   0.456  1.7667  0.1083  0.2148
 1065TIP3   OH224609   4.003   2.281   2.289 -0.1530 -0.2343 -0.6221
 1065TIP3    H124610   4.009   2.249   2.199 -0.6891  1.8802 -1.4570
 1065TIP3    H224611   4.073   2.345   2.297 -0.1462 -0.3541  0.4735
 1066TIP3   OH224612   2.100   4.179   0.854 -0.3856  0.8426 -0.5627
 1066TIP3    H124613   2.139   4.263   0.832  0.8134  1.0368  1.9304
 1066TIP3    H224614   2.072   4.189   0.945  0.4500 -1.6419  0.0568
 1067TIP3   OH224615   2.489   6.658   3.929  0.2848 -0.1754  0.6665
 1067TIP3    H124616   2.453   6.680   4.015 -0.0926 -1.2415  0.7916
 1067TIP3    H224617   2.468   6.565   3.917  1.2636 -0.3119 -0.1133
 1068TIP3   OH224618   3.759   0.277   2.864 -0.5927 -0.2928 -0.2232
 1068TIP3    H124619   3.715   0.240   2.941  0.6919  2.0530  1.8030
 1068TIP3    H224620   3.734   0.369   2.865  1.0567  0.2036 -1.4427
 1069TIP3   OH224621   4.985   3.286   1.185 -0.3118 -0.2299 -0.3968
 1069TIP3    H124622   5.003   3.320   1.097 -0.2802 -0.5444 -0.5152
 1069TIP3    H224623   4.926   3.350   1.224 -0.0128  0.1170 -0.5017
 1070TIP3   OH224624   6.057   2.779  12.302 -0.0671  0.1070 -1.0283
 1070TIP3    H124625   5.979   2.828  12.326  0.7986  1.7395 -1.4112
 1070TIP3    H224626   6.102   2.834  12.239  1.1294 -1.0468 -1.2323
 1071TIP3   OH224627   5.433   2.096   1.324 -1.0101 -0.1138  0.1940
 1071TIP3    H124628   5.357   2.153   1.318 -0.1241  1.1597  0.6930
 1071TIP3    H224629   5.413   2.023   1.265 -1.6350  1.3470 -1.4827
 1072TIP3   OH224630   0.705   3.065   3.353 -0.1696  0.2310  0.2607
 1072TIP3    H124631   0.682   3.156   3.371 -2.4758 -0.2953  0.2685
 1072TIP3    H224632   0.735   3.031   3.438  0.7890  0.9768  0.2381
 1073TIP3   OH224633   5.161   0.254  14.406 -0.2066  0.2024 -0.3802
 1073TIP3    H124634   5.185   0.266  14.498 -0.8165  1.3554 -0.3529
 1073TIP3    H224635   5.070   0.285  14.401  0.1956  1.2672 -1.5813
 1074TIP3   OH224636   4.676   0.967   1.588  0.5615  0.0097  0.0449
 1074TIP3    H124637   4.702   0.896   1.647  0.4438 -0.7149 -0.7468
 1074TIP3    H224638   4.686   1.046   1.640 -1.1976 -0.7313  1.6079
 1075TIP3   OH224639   0.186   6.226   0.115  0.4476  0.1026 -0.4707
 1075TIP3    H124640   0.226   6.258   0.034 -1.5392  0.8651 -1.2102
 1075TIP3    H224641   0.157   6.306   0.160  2.2198 -0.2424  1.4455
 1076TIP3   OH224642   5.412   5.635  16.550 -0.3606  0.1913 -0.3879
 1076TIP3    H124643   5.467   5.581  16.493 -1.2274 -1.4865  0.3162
 1076TIP3    H224644   5.349   5.676  16.490  0.5454  0.7919 -0.9740
 1077TIP3   OH224645   3.717   3.145  12.341  0.0604 -0.9005 -0.6851
 1077TIP3    H124646   3.664   3.200  12.284  0.3989  1.0116  0.7571
 1077TIP3    H224647   3.807   3.158  12.309  0.2408  0.1108  0.1668
 1078TIP3   OH224648   6.192   2.130  12.772  0.0023 -0.4728  0.8844
 1078TIP3    H124649   6.192   2.050  12.826 -2.3161 -0.1011  1.5542
 1078TIP3    H224650   6.234   2.196  12.827 -0.7970 -0.5267  1.5898
 1079TIP3   OH224651   5.250   6.681   6.623 -0.2546 -0.5059  0.6241
 1079TIP3    H124652   5.319   6.648   6.566 -1.2124  0.4343 -1.1480
 1079TIP3    H224653   5.268   6.640   6.708  1.5624 -1.4782 -0.1721
 1080TIP3   OH224654   6.300   2.212   3.076  0.1642  0.4897  0.3022
 1080TIP3    H124655   6.209   2.225   3.048 -0.1198 -0.8444  0.5362
 1080TIP3    H224656   6.299   2.128   3.121  1.7336 -0.0521 -0.6188
 1081TIP3   OH224657   3.033   4.212  12.749 -0.4795  0.3173 -0.1672
 1081TIP3    H124658   2.967   4.246  12.810 -0.0179  2.8534 -0.9626
 1081TIP3    H224659   3.089   4.287  12.730  0.6269 -0.9148 -2.1318
 1082TIP3   OH224660   2.069   1.685   4.992 -0.5631  0.0744  0.0571
 1082TIP3    H124661   2.081   1.596   5.025 -0.3798  0.2024  0.3436
 1082TIP3    H224662   2.075   1.741   5.069 -1.7252  0.2602  0.0248
 1083TIP3   OH224663   5.959   1.397   1.278 -0.5336 -0.4069  0.2052
 1083TIP3    H124664   6.023   1.412   1.209  0.1938 -2.0009  0.4689
 1083TIP3    H224665   5.886   1.456   1.258  1.0909  1.6519  0.0367
 1084TIP3   OH224666   1.737   5.424  11.877 -0.0798 -0.0016  0.5678
 1084TIP3    H124667   1.806   5.381  11.927 -1.9845 -1.0187  2.4897
 1084TIP3    H224668   1.660   5.369  11.890 -1.4795  1.5350 -0.7652
 1085TIP3   OH224669   2.066   2.700   2.393 -0.0584  0.0020  0.1342
 1085TIP3    H124670   2.020   2.632   2.344 -0.4829 -0.4397  1.0974
 1085TIP3    H224671   2.053   2.780   2.342 -0.2271 -0.4940 -0.6102
 1086TIP3   OH224672   4.146   6.256   1.141 -0.0152  0.2674 -0.3046
 1086TIP3    H124673   4.140   6.226   1.051 -2.5608 -1.8278  0.4478
 1086TIP3    H224674   4.151   6.351   1.134 -0.4096  0.1712 -2.6306
 1087TIP3   OH224675   0.652   2.691  16.945  0.0156  0.0527  0.6964
 1087TIP3    H124676   0.563   2.723  16.959  0.4669  2.1781 -0.7110
 1087TIP3    H224677   0.647   2.641  16.864 -0.1280 -1.0064  1.3429
 1088TIP3   OH224678   6.122   3.038  16.803  0.3503  0.0542  0.0792
 1088TIP3    H124679   6.211   3.068  16.820  0.8155 -0.9604 -0.4652
 1088TIP3    H224680   6.109   3.053  16.709  1.0207 -2.3767 -0.4792
 1089TIP3   OH224681   3.708   5.442  15.126  0.1060  0.0071  0.4259
 1089TIP3    H124682   3.762   5.484  15.059  1.4831  1.2417  2.2245
 1089TIP3    H224683   3.627   5.419  15.080  0.2169  2.5407 -1.2325
 1090TIP3   OH224684   5.688   5.189   0.734  0.0113 -0.4060  0.1472
 1090TIP3    H124685   5.760   5.231   0.687  1.6282 -0.9817  1.9666
 1090TIP3    H224686   5.727   5.110   0.771 -1.3743 -0.4116  1.7250
 1091TIP3   OH224687   3.924   6.122  13.554 -0.3493  0.4169  0.6284
 1091TIP3    H124688   3.867   6.048  13.577 -0.1991 -1.1782 -3.3098
 1091TIP3    H224689   4.013   6.085  13.555  0.1133  1.4736  1.6190
 1092TIP3   OH224690   0.448   3.909   0.250 -0.6651  0.3275 -0.0423
 1092TIP3    H124691   0.454   3.944   0.338  0.8057  0.4837 -0.1889
 1092TIP3    H224692   0.392   3.971   0.203 -1.4487  0.2449  0.7624
 1093TIP3   OH224693   5.789   6.448  15.700 -0.3748 -0.5635 -0.5044
 1093TIP3    H124694   5.788   6.374  15.639 -2.5731 -1.0285  0.0130
 1093TIP3    H224695   5.750   6.520  15.650  0.2906 -0.1928 -0.4936
 1094TIP3   OH224696   0.768   2.837   1.219  0.1848 -0.1291  0.0248
 1094TIP3    H124697   0.820   2.867   1.294  0.2760  0.6581 -0.3430
 1094TIP3    H224698   0.830   2.839   1.145  0.4624 -2.1235  0.1317
 1095TIP3   OH224699   1.226   5.951   4.800  0.7578 -0.3498  0.4060
 1095TIP3    H124700   1.314   5.961   4.834  1.8438 -4.0415 -0.7917
 1095TIP3    H224701   1.175   5.918   4.875  0.2033  2.1166  1.1912
 1096TIP3   OH224702   0.034   5.348   5.581  0.0074 -0.0146 -0.1564
 1096TIP3    H124703   0.048   5.315   5.492 -0.5667  0.7869 -0.5575
 1096TIP3    H224704  -0.041   5.299   5.613 -1.4285  1.4553 -1.0886
 1097TIP3   OH224705   0.544   5.048   0.217  0.0246 -0.3910 -0.2329
 1097TIP3    H124706   0.557   5.119   0.155  0.9240 -0.1710  0.1967
 1097TIP3    H224707   0.576   4.970   0.172 -0.6748 -0.4895 -0.5842
 1098TIP3   OH224708   0.325   6.540   2.400  0.2899  0.0075  0.2516
 1098TIP3    H124709   0.379   6.558   2.323  1.7267 -2.2790  0.6105
 1098TIP3    H224710   0.383   6.491   2.458 -1.8348 -1.6002  1.1561
 1099TIP3   OH224711   0.259   1.485  13.155 -0.1384  0.2103  0.4147
 1099TIP3    H124712   0.297   1.560  13.201  0.7258  0.9072 -1.3650
 1099TIP3    H224713   0.308   1.410  13.188  0.3110  0.6612  0.8000
 1100TIP3   OH224714   1.124   2.559   4.170 -0.5222 -0.0685  0.1837
 1100TIP3    H124715   1.218   2.578   4.164 -0.2264 -1.6079 -0.6709
 1100TIP3    H224716   1.099   2.592   4.256  0.1075  3.0000 -0.7029
 1101TIP3   OH224717   1.172   6.637  14.806 -0.7249 -0.2914  0.3036
 1101TIP3    H124718   1.242   6.699  14.783 -0.2469 -0.6955  0.6376
 1101TIP3    H224719   1.212   6.551  14.794 -1.6420 -0.5797 -1.0034
 1102TIP3   OH224720   4.734   3.103  13.451  0.4575  0.0921  0.0427
 1102TIP3    H124721   4.718   3.059  13.368 -0.3676  0.1388  0.1645
 1102TIP3    H224722   4.740   3.032  13.515  0.3595  0.0932  0.0533
 1103TIP3   OH224723   4.805   3.428  12.179  0.1002 -0.7832 -0.6833
 1103TIP3    H124724   4.725   3.481  12.169  0.8417  0.8040  1.1288
 1103TIP3    H224725   4.782   3.343  12.142 -2.6744 -0.6103  0.3704
 1104TIP3   OH224726   0.768   6.018   1.776 -0.2695  0.5317  0.1900
 1104TIP3    H124727   0.832   6.078   1.814 -1.5857  1.4797  0.9956
 1104TIP3    H224728   0.819   5.940   1.752  1.0650  0.9900  1.3991
 1105TIP3   OH224729   5.319   2.512  13.101  0.3751  0.0228 -0.2356
 1105TIP3    H124730   5.348   2.433  13.055 -0.5297 -2.6677  3.3215
 1105TIP3    H224731   5.227   2.522  13.078  0.4776 -0.0008 -0.6515
 1106TIP3   OH224732   3.391   0.396  14.217  0.0976  0.4066 -0.4338
 1106TIP3    H124733   3.416   0.487  14.200 -0.5808  0.4300 -1.3611
 1106TIP3    H224734   3.335   0.372  14.143 -0.3662 -0.5135  0.1955
 1107TIP3   OH224735   6.673   4.077  15.920 -0.2573  0.4985  0.4997
 1107TIP3    H124736   6.651   3.986  15.937  2.2633 -0.2205  0.3197
 1107TIP3    H224737   6.644   4.124  15.999 -1.7520 -0.3890  0.5057
 1108TIP3   OH224738   5.006   5.357   0.642  0.8156 -0.0986 -0.5442
 1108TIP3    H124739   5.088   5.357   0.692 -0.1865 -0.9634  1.2120
 1108TIP3    H224740   5.004   5.272   0.598 -0.0456 -1.0006  1.1202
 1109TIP3   OH224741   5.023   6.511   5.448  0.0228 -0.3245  0.3258
 1109TIP3    H124742   4.981   6.430   5.419 -0.7704  0.1920 -0.0036
 1109TIP3    H224743   5.019   6.507   5.543 -0.4049 -0.4892  0.3059
 1110TIP3   OH224744   3.646   0.404   4.766 -0.0013 -0.0716  0.6138
 1110TIP3    H124745   3.677   0.315   4.752 -0.8683 -0.4551  1.0957
 1110TIP3    H224746   3.657   0.419   4.860 -0.8796 -0.0702  0.7221
 1111TIP3   OH224747   3.621   2.151   2.446 -0.3615 -0.5984 -0.3703
 1111TIP3    H124748   3.557   2.222   2.450 -1.0606 -1.2509  1.2381
 1111TIP3    H224749   3.570   2.075   2.418 -0.0886 -0.9032 -0.0574
 1112TIP3   OH224750   6.739   0.662  12.552 -0.3861 -0.1657 -0.0532
 1112TIP3    H124751   6.659   0.676  12.500 -0.4262  0.6671  0.2236
 1112TIP3    H224752   6.707   0.649  12.641 -0.3036 -1.4028 -0.1947
 1113TIP3   OH224753   3.049   4.953  12.619  0.4133 -0.0168 -0.0516
 1113TIP3    H124754   3.106   5.030  12.626  0.3327 -0.1300  3.8000
 1113TIP3    H224755   3.100   4.890  12.569  1.6056  1.5619 -0.9322
 1114TIP3   OH224756   1.852   5.366   0.238  0.5370  0.8451 -0.0190
 1114TIP3    H124757   1.942   5.398   0.227  1.4583 -1.8782 -1.3619
 1114TIP3    H224758   1.842   5.355   0.333  2.1023  0.0731  0.0999
 1115TIP3   OH224759   1.814   5.287  16.209 -0.0787  0.0988 -0.0337
 1115TIP3    H124760   1.882   5.340  16.169  0.7763  0.5437  1.8807
 1115TIP3    H224761   1.785   5.228  16.140  2.3464 -0.1908 -0.8966
 1116TIP3   OH224762   6.656   4.161  15.523 -0.2609 -0.5920  0.0697
 1116TIP3    H124763   6.564   4.174  15.544 -0.2287  1.0683 -0.6596
 1116TIP3    H224764   6.655   4.098  15.451 -0.9568  0.5317 -0.9396
 1117TIP3   OH224765   6.359   3.968  16.516 -0.0432 -0.1887 -0.1893
 1117TIP3    H124766   6.360   3.873  16.524 -1.0479 -0.1612  0.3143
 1117TIP3    H224767   6.337   4.000  16.603  3.3778  0.6630  0.5138
 1118TIP3   OH224768   5.776   6.747  15.749 -0.6031  0.0194 -0.4841
 1118TIP3    H124769   5.780   6.809  15.677 -0.6654 -0.0320 -0.5333
 1118TIP3    H224770   5.854   6.765  15.801 -1.0606  0.7207 -0.0221
 1119TIP3   OH224771   2.586   4.327  16.580  0.7573 -0.3137  0.4463
 1119TIP3    H124772   2.659   4.265  16.573  0.8778 -0.6370  3.4571
 1119TIP3    H224773   2.627   4.410  16.605  0.1790 -0.4136  1.8173
 1120TIP3   OH224774   5.220   5.856  12.675 -0.3803  0.6826 -0.0450
 1120TIP3    H124775   5.239   5.919  12.606  0.6977  0.3463 -0.0856
 1120TIP3    H224776   5.205   5.774  12.628  0.6101  0.3974  0.1167
 1121TIP3   OH224777   5.497   3.514   3.784  0.2709 -0.4630 -0.3337
 1121TIP3    H124778   5.404   3.535   3.774  0.5040  1.2183  0.6662
 1121TIP3    H224779   5.506   3.486   3.876  0.3325 -3.3077 -1.0985
 1122TIP3   OH224780   5.931   2.889  11.535 -0.4779  0.0671 -0.0094
 1122TIP3    H124781   5.914   2.881  11.441 -0.4538 -1.6304  0.0997
 1122TIP3    H224782   5.857   2.939  11.569 -1.9884 -1.6999 -0.5317
 1123TIP3   OH224783   4.441   5.068   2.295 -0.1088  0.1048 -0.2868
 1123TIP3    H124784   4.356   5.029   2.275 -0.9716  2.4669 -1.7401
 1123TIP3    H224785   4.420   5.157   2.323  1.8985  1.1859 -1.9362
 1124TIP3   OH224786   6.182   6.112   5.277  0.4454  0.2249  0.2401
 1124TIP3    H124787   6.124   6.072   5.342  0.6875  0.7206  0.7744
 1124TIP3    H224788   6.157   6.204   5.276  0.7647  0.3087 -0.0243
 1125TIP3   OH224789   5.091   0.198   5.719  0.3085  0.4400 -0.8728
 1125TIP3    H124790   5.164   0.179   5.661  0.4271 -0.4322 -0.4554
 1125TIP3    H224791   5.122   0.172   5.806 -0.9979 -1.3423 -0.8919
 1126TIP3   OH224792   3.128   1.340   0.463  0.1033 -0.2687  0.2402
 1126TIP3    H124793   3.060   1.273   0.471 -0.5615  0.3636  0.1068
 1126TIP3    H224794   3.199   1.310   0.519 -0.9871 -0.1177  1.7935
 1127TIP3   OH224795   3.441   1.785  10.237  0.0352  0.1372 -0.3428
 1127TIP3    H124796   3.382   1.726  10.283  0.3093 -0.8316 -1.1961
 1127TIP3    H224797   3.382   1.840  10.184 -0.2998  1.4607  1.3234
 1128TIP3   OH224798   1.797   4.212   3.020 -0.1624 -0.3022 -0.6081
 1128TIP3    H124799   1.865   4.154   2.985  2.0226  2.2862 -1.0500
 1128TIP3    H224800   1.755   4.248   2.942  1.2569  1.6276 -0.5659
 1129TIP3   OH224801   3.970   5.108   2.307 -0.5202  0.2561 -0.3647
 1129TIP3    H124802   3.888   5.158   2.305 -1.2126 -0.7089  1.3419
 1129TIP3    H224803   4.028   5.159   2.363 -1.3563 -0.8927  1.6987
 1130TIP3   OH224804   5.319   5.020   4.071 -0.2154 -0.2305 -0.1328
 1130TIP3    H124805   5.400   5.065   4.047  0.3579 -0.4209  1.3275
 1130TIP3    H224806   5.317   5.024   4.166 -0.3058 -2.9797  0.0653
 1131TIP3   OH224807   5.912   1.725   2.513 -0.7350  0.2960  0.6068
 1131TIP3    H124808   5.972   1.762   2.449 -0.4293 -2.1967 -0.6731
 1131TIP3    H224809   5.954   1.643   2.541 -2.4678 -0.3832  1.3937
 1132TIP3   OH224810   5.678   1.727  13.469 -0.4105  0.5445  0.4331
 1132TIP3    H124811   5.680   1.642  13.515  0.5032 -0.0316 -0.6174
 1132TIP3    H224812   5.725   1.786  13.527  2.2155 -0.5615 -0.3868
 1133TIP3   OH224813   3.324   2.340  12.650 -0.4212  0.0600  0.0200
 1133TIP3    H124814   3.249   2.286  12.627 -0.9031  1.3133 -1.5832
 1133TIP3    H224815   3.388   2.279  12.686 -1.7374 -1.2202  0.2626
 1134TIP3   OH224816   2.401   6.204   6.198 -0.2110  0.4295 -0.5985
 1134TIP3    H124817   2.482   6.164   6.166 -0.1220 -0.0275  0.1568
 1134TIP3    H224818   2.429   6.286   6.238 -0.3883  1.2580 -2.1172
 1135TIP3   OH224819   1.469   3.572  14.689 -0.1579 -0.4256 -0.3682
 1135TIP3    H124820   1.550   3.548  14.734  0.1572 -0.1780 -0.7916
 1135TIP3    H224821   1.477   3.532  14.602 -0.0032  0.4812 -0.7853
 1136TIP3   OH224822   0.211   5.542   0.880 -0.6284  0.6700 -0.9574
 1136TIP3    H124823   0.258   5.601   0.939 -0.3052  2.3842 -2.8148
 1136TIP3    H224824   0.121   5.542   0.912 -0.3182  1.0337 -0.0733
 1137TIP3   OH224825   0.536   5.001  10.562 -0.2043  0.7400 -0.4458
 1137TIP3    H124826   0.467   5.055  10.600 -0.2120 -1.0194  2.2739
 1137TIP3    H224827   0.616   5.029  10.606 -0.3035 -1.7241  1.5415
 1138TIP3   OH224828   4.672   1.198  14.781 -0.0515 -0.0553  0.2510
 1138TIP3    H124829   4.591   1.149  14.795 -1.8103  2.4106 -0.6529
 1138TIP3    H224830   4.709   1.210  14.868 -1.3170 -0.1488  0.8118
 1139TIP3   OH224831   4.497   1.340  13.962  0.3807 -0.8531  0.0955
 1139TIP3    H124832   4.428   1.400  13.935  1.0100  0.4027  1.1179
 1139TIP3    H224833   4.471   1.311  14.050  0.1265 -2.0333 -0.3561
 1140TIP3   OH224834   1.692   3.264   2.426 -0.0926 -0.1077 -0.0391
 1140TIP3    H124835   1.685   3.347   2.474  0.8930  0.4262 -0.7954
 1140TIP3    H224836   1.605   3.224   2.435  0.0302 -0.0035  2.1072
 1141TIP3   OH224837   3.144   4.613  14.406 -0.4227  0.3978 -0.1845
 1141TIP3    H124838   3.178   4.536  14.451 -0.9511 -0.5704 -1.3774
 1141TIP3    H224839   3.094   4.660  14.473  0.8136  0.3108  0.8363
 1142TIP3   OH224840   5.979   5.238   5.509 -0.6519  0.1392 -0.7552
 1142TIP3    H124841   5.953   5.330   5.512 -0.7459  0.1342 -1.2917
 1142TIP3    H224842   5.899   5.192   5.485 -0.8160 -0.1824  0.3430
 1143TIP3   OH224843   0.336   2.187   3.941 -0.6403 -0.0741  0.3669
 1143TIP3    H124844   0.428   2.212   3.928 -0.3813 -0.1676  1.7857
 1143TIP3    H224845   0.289   2.227   3.869  0.5707 -0.3457 -0.6033
 1144TIP3   OH224846   4.015   2.229  12.478 -0.2410 -0.6722  0.2418
 1144TIP3    H124847   4.094   2.179  12.457  1.4010  1.8937 -0.1044
 1144TIP3    H224848   4.041   2.284  12.552 -1.5433  0.5519 -0.1792
 1145TIP3   OH224849   1.673   3.257  15.541 -0.0615  0.2712  0.3205
 1145TIP3    H124850   1.595   3.223  15.497 -0.0948  1.5139 -0.6231
 1145TIP3    H224851   1.639   3.300  15.620 -0.1762 -0.4499  0.6684
 1146TIP3   OH224852   6.390   1.265   1.256  0.4764  0.1638  0.3811
 1146TIP3    H124853   6.421   1.337   1.202  1.6046 -0.9908 -0.5728
 1146TIP3    H224854   6.380   1.303   1.343 -0.5251  1.8507 -0.4169
 1147TIP3   OH224855   1.109   3.301   4.951  0.2109 -0.2545 -0.1740
 1147TIP3    H124856   1.097   3.207   4.937 -1.2254 -0.0065 -0.7158
 1147TIP3    H224857   1.191   3.307   5.001  1.6611 -1.6316 -2.2295
 1148TIP3   OH224858   2.987   5.959  14.291  0.0257  0.4937  0.3303
 1148TIP3    H124859   2.955   5.941  14.380  3.9214 -2.2727  1.4177
 1148TIP3    H224860   3.023   6.047  14.296  0.3715  0.3040  1.5816
 1149TIP3   OH224861   1.764   2.673  12.424 -0.4469  0.0350 -0.3918
 1149TIP3    H124862   1.735   2.634  12.506  0.4426  0.0699 -0.0491
 1149TIP3    H224863   1.852   2.636  12.410  0.1406  1.3881 -0.4102
 1150TIP3   OH224864   0.476   3.594   4.397 -0.1992 -0.1459 -0.5108
 1150TIP3    H124865   0.527   3.601   4.479 -1.7060 -1.3535  0.5817
 1150TIP3    H224866   0.401   3.651   4.411 -0.3689 -0.2050 -1.1553
 1151TIP3   OH224867   5.924   4.100   5.827 -0.3746  0.4804 -0.2617
 1151TIP3    H124868   5.927   4.142   5.913 -0.1498  2.1325 -1.0521
 1151TIP3    H224869   5.839   4.125   5.791 -0.8739 -0.9738 -0.1911
 1152TIP3   OH224870   0.908   6.792  11.959  0.7297 -0.0730  0.1500
 1152TIP3    H124871   1.003   6.786  11.946  0.5660 -0.6282 -0.9146
 1152TIP3    H224872   0.875   6.705  11.938 -0.1527  0.4687 -0.8053
 1153TIP3   OH224873   3.363   6.367   1.229  0.0263  0.3185  0.0611
 1153TIP3    H124874   3.300   6.431   1.197  0.3331  0.4754 -0.2263
 1153TIP3    H224875   3.314   6.285   1.232 -0.2709  0.4976  0.1072
 1154TIP3   OH224876   5.651   5.801  13.476 -0.6482 -0.2219  0.2610
 1154TIP3    H124877   5.622   5.789  13.566  0.9724  0.0910  0.8492
 1154TIP3    H224878   5.654   5.896  13.464 -0.0481 -0.2505  0.1567
 1155TIP3   OH224879   3.722   4.336   5.932  0.0012 -0.0672  0.1396
 1155TIP3    H124880   3.798   4.394   5.924  0.6167 -0.9617 -0.8543
 1155TIP3    H224881   3.741   4.265   5.871 -1.6635 -0.3032 -0.1291
 1156TIP3   OH224882   6.608   3.911  13.084 -0.1814  0.2201 -0.2768
 1156TIP3    H124883   6.562   3.970  13.144  0.8748  3.3627 -2.2660
 1156TIP3    H224884   6.699   3.912  13.114 -0.1815 -0.5307 -0.2468
 1157TIP3   OH224885   3.046   0.040   5.924  0.0852  0.0913 -0.8734
 1157TIP3    H124886   2.957   0.073   5.911  0.4448  2.0364  0.9391
 1157TIP3    H224887   3.097   0.082   5.855  0.1914  2.0281  0.2983
 1158TIP3   OH224888   0.274   3.524  12.768  0.2985 -0.5585 -0.5626
 1158TIP3    H124889   0.303   3.609  12.735 -1.1495 -0.2302 -1.0718
 1158TIP3    H224890   0.316   3.460  12.711  1.4938 -0.2081 -0.1032
 1159TIP3   OH224891   3.502   1.075   3.619 -0.1974 -0.5206 -0.1521
 1159TIP3    H124892   3.501   1.100   3.711  1.2958  2.4098 -0.7925
 1159TIP3    H224893   3.546   1.149   3.575  2.3238 -3.2912 -2.7695
 1160TIP3   OH224894   1.265   0.434  15.965  0.3147 -0.1706 -0.0016
 1160TIP3    H124895   1.200   0.372  15.997 -0.4212  0.6992  0.2193
 1160TIP3    H224896   1.238   0.518  16.001  0.7585  0.4431 -1.0630
 1161TIP3   OH224897   6.015   6.043  15.177  0.0829  0.3181 -0.0853
 1161TIP3    H124898   6.043   6.125  15.136  0.0366  1.3465  1.8040
 1161TIP3    H224899   6.023   6.059  15.271 -1.3166 -1.3531  0.3803
 1162TIP3   OH224900   2.721   4.672  10.394 -1.1351  0.6231  0.0254
 1162TIP3    H124901   2.701   4.581  10.416  1.5923  0.3731  2.0646
 1162TIP3    H224902   2.762   4.668  10.308  3.9862 -1.1414  2.1174
 1163TIP3   OH224903   5.530   3.454  17.028 -0.3728  0.6143  0.0048
 1163TIP3    H124904   5.492   3.394  16.964  0.2172  0.6669 -0.4020
 1163TIP3    H224905   5.590   3.400  17.079 -2.1424  0.1468  1.7415
 1164TIP3   OH224906   0.065   6.013   1.283 -0.4315 -0.0083  0.4252
 1164TIP3    H124907   0.144   6.007   1.338 -0.5943 -0.2029  0.6386
 1164TIP3    H224908   0.023   5.928   1.292 -0.9043  0.2481  0.6685
 1165TIP3   OH224909   5.469   5.829  16.978 -0.1527 -0.3366 -0.0594
 1165TIP3    H124910   5.464   5.924  16.987 -1.4615 -0.4521  0.6241
 1165TIP3    H224911   5.420   5.810  16.898  0.8655 -0.3871 -0.6957
 1166TIP3   OH224912   1.546   5.504   1.452  0.8452 -0.4436 -0.0355
 1166TIP3    H124913   1.457   5.498   1.486  1.3576  1.1842  1.7797
 1166TIP3    H224914   1.538   5.485   1.359 -1.4270 -0.1124  0.0463
 1167TIP3   OH224915   4.000   4.617  13.055 -0.2231 -0.4114 -0.0217
 1167TIP3    H124916   3.985   4.697  13.106  1.2779 -1.1217  1.6261
 1167TIP3    H224917   3.912   4.580  13.042 -0.6625 -0.1356  1.9433
 1168TIP3   OH224918   4.052   1.999   5.212  0.7058 -0.1567  0.1092
 1168TIP3    H124919   3.994   2.071   5.232  2.2392  1.0816  0.3264
 1168TIP3    H224920   4.031   1.932   5.276 -1.6895 -0.5178 -0.9501
 1169TIP3   OH224921   3.483   5.721  14.239 -0.1320  0.1014 -0.3155
 1169TIP3    H124922   3.444   5.633  14.242  0.0672 -0.0462 -1.4641
 1169TIP3    H224923   3.552   5.719  14.306 -0.0526 -0.6585 -0.4128
 1170TIP3   OH224924   5.979   4.470  14.592  0.3317 -0.6140  0.4003
 1170TIP3    H124925   6.010   4.389  14.633 -2.1275 -1.4240  0.8258
 1170TIP3    H224926   5.950   4.444  14.505  0.8568  0.1374 -0.0206
 1171TIP3   OH224927   3.293   6.063  11.723 -0.1515  0.1010 -0.5052
 1171TIP3    H124928   3.274   6.074  11.630 -0.1287  1.2216 -0.3861
 1171TIP3    H224929   3.337   5.979  11.729  0.4004  0.3050 -1.5854
 1172TIP3   OH224930   5.445   2.520  15.519 -0.1709 -0.5579  0.1212
 1172TIP3    H124931   5.404   2.533  15.434 -0.3739 -2.7705 -0.1828
 1172TIP3    H224932   5.454   2.425  15.527  3.6597 -0.2986  0.7706
 1173TIP3   OH224933   6.098   3.477  16.437  0.1331  0.4832  0.2739
 1173TIP3    H124934   6.089   3.545  16.370 -1.4862  0.9723  0.9379
 1173TIP3    H224935   6.009   3.459  16.465  0.4401 -2.3685 -0.2635
 1174TIP3   OH224936   0.304   2.962  17.128  0.3735 -0.1483 -0.0843
 1174TIP3    H124937   0.375   2.967  17.065 -1.9044 -0.4069 -2.8962
 1174TIP3    H224938   0.271   2.873  17.121 -3.8942  1.3267 -3.5643
 1175TIP3   OH224939   0.097   1.653  15.295 -0.4530 -0.1995  0.4021
 1175TIP3    H124940   0.001   1.658  15.288 -0.4067  0.9536  0.4015
 1175TIP3    H224941   0.117   1.560  15.281 -1.5309 -0.3774 -0.0820
 1176TIP3   OH224942   5.509   0.653  15.807  0.0405  0.3097  0.1509
 1176TIP3    H124943   5.568   0.614  15.872 -0.3129 -0.6768 -0.0924
 1176TIP3    H224944   5.422   0.646  15.847 -0.2329 -0.7023 -0.5899
 1177TIP3   OH224945   6.242   2.006   1.904 -0.1322 -0.0112  0.1153
 1177TIP3    H124946   6.168   2.062   1.925 -0.1942 -0.2937  0.6811
 1177TIP3    H224947   6.267   2.030   1.815 -2.4056 -1.5455 -1.0244
 1178TIP3   OH224948   3.822   1.373   5.803 -0.2341 -0.0880  0.2386
 1178TIP3    H124949   3.883   1.306   5.832  0.3762  0.0884 -0.5724
 1178TIP3    H224950   3.773   1.397   5.881  0.1111 -0.8857  0.7107
 1179TIP3   OH224951   6.067   4.825  16.203  0.0887 -0.4449  0.0817
 1179TIP3    H124952   6.162   4.837  16.205 -0.0212  0.4251  0.9045
 1179TIP3    H224953   6.032   4.907  16.239 -0.9002 -1.5549  1.7955
 1180TIP3   OH224954   2.175   1.344  16.992 -0.5072 -0.0865 -0.2534
 1180TIP3    H124955   2.145   1.434  17.007 -1.0022 -0.5401  1.7702
 1180TIP3    H224956   2.102   1.301  16.949 -0.4127  0.3742 -0.8841
 1181TIP3   OH224957   3.838   2.432  12.861  0.2676  0.4984  0.0175
 1181TIP3    H124958   3.784   2.374  12.807  0.7476  0.1186 -0.0657
 1181TIP3    H224959   3.894   2.372  12.910  2.0138  0.9293 -1.3767
 1182TIP3   OH224960   1.018   1.791  11.480  0.1742  0.5983  0.3673
 1182TIP3    H124961   1.093   1.763  11.428 -0.8835 -1.0858 -0.2944
 1182TIP3    H224962   1.056   1.813  11.566  1.8879  3.0945 -0.8992
 1183TIP3   OH224963   1.604   6.681  13.329  0.0570  0.5875  0.1731
 1183TIP3    H124964   1.677   6.734  13.295 -0.6680  1.7976  0.4387
 1183TIP3    H224965   1.637   6.592  13.328  0.8487  0.8527 -1.6143
 1184TIP3   OH224966   1.102   6.328  15.025  0.2368  0.2498  0.1684
 1184TIP3    H124967   1.123   6.385  15.099  1.0201 -0.6445  0.6530
 1184TIP3    H224968   1.171   6.261  15.025 -0.3743 -0.4102 -0.6913
 1185TIP3   OH224969   2.036   6.167   0.387 -0.3061 -0.4731  0.6357
 1185TIP3    H124970   1.941   6.177   0.391 -0.3182 -0.5368  0.5088
 1185TIP3    H224971   2.067   6.198   0.472 -0.5292 -1.3812  1.0635
 1186TIP3   OH224972   0.732   6.440  14.094  0.1101  0.3569 -0.0183
 1186TIP3    H124973   0.691   6.440  14.180  1.0071 -0.7143  0.4258
 1186TIP3    H224974   0.826   6.438  14.111  0.3135  0.6081 -1.0236
 1187TIP3   OH224975   1.630   2.298  14.251  0.4205  0.2512  0.3272
 1187TIP3    H124976   1.660   2.207  14.249  1.1323  0.4367  1.7385
 1187TIP3    H224977   1.583   2.306  14.334 -0.9676  0.7813 -0.4750
 1188TIP3   OH224978   0.360   6.382   3.030 -0.0388  0.7784 -0.4199
 1188TIP3    H124979   0.390   6.467   3.060  0.3939  0.8576 -1.0570
 1188TIP3    H224980   0.417   6.319   3.073 -1.2833  0.6968  1.2084
 1189TIP3   OH224981   1.274   0.217   2.711  0.4226  0.5601 -0.1298
 1189TIP3    H124982   1.285   0.292   2.652  0.1181  1.4268  0.8636
 1189TIP3    H224983   1.328   0.239   2.787 -0.6244  0.3661  0.6925
 1190TIP3   OH224984   2.898   3.604  16.116  0.5467  0.1365  0.3242
 1190TIP3    H124985   2.936   3.545  16.182  1.5745  2.0225  1.5168
 1190TIP3    H224986   2.948   3.685  16.124 -0.2168  0.9137 -1.8735
 1191TIP3   OH224987   4.421   1.800  13.172 -0.1798 -0.2323 -0.7843
 1191TIP3    H124988   4.394   1.817  13.262 -0.0165 -1.4745 -0.4894
 1191TIP3    H224989   4.476   1.875  13.149  0.1142 -0.1086  0.2836
 1192TIP3   OH224990   4.293   3.735   0.590  0.1693 -0.1753 -0.4234
 1192TIP3    H124991   4.222   3.766   0.533 -0.9138  1.3557  1.5920
 1192TIP3    H224992   4.314   3.648   0.557 -3.0621 -0.9641 -0.8266
 1193TIP3   OH224993   0.564   0.517   3.565  0.1425 -0.5764  0.1390
 1193TIP3    H124994   0.543   0.432   3.603 -0.6587 -0.5957 -0.3411
 1193TIP3    H224995   0.619   0.559   3.632 -0.5330 -0.9427  0.9451
 1194TIP3   OH224996   1.824   5.968   4.758  0.5194 -0.1723 -0.2877
 1194TIP3    H124997   1.759   5.962   4.688  1.5465 -0.1145 -1.2558
 1194TIP3    H224998   1.870   5.885   4.757  0.1083 -0.4395  0.7847
 1195TIP3   OH224999   4.756   5.355   5.932 -0.0866 -0.5347 -0.3081
 1195TIP3    H125000   4.749   5.376   6.025 -2.1451 -1.0129 -0.3027
 1195TIP3    H225001   4.778   5.262   5.930 -0.4385 -0.6176 -0.3006
 1196TIP3   OH225002   2.360   1.275  13.598  0.2585  0.0623 -0.0286
 1196TIP3    H125003   2.364   1.198  13.541 -2.3687  0.5745 -1.0248
 1196TIP3    H225004   2.282   1.261  13.651 -0.0562  1.8759  0.0436
 1197TIP3   OH225005   2.997   2.480  16.595 -0.4589  1.0714 -0.1123
 1197TIP3    H125006   2.939   2.542  16.639 -0.3681  1.7876 -0.9700
 1197TIP3    H225007   2.963   2.474  16.506 -0.0189  0.4561 -0.2459
 1198TIP3   OH225008   1.381   6.596  13.137 -0.6586  0.0855 -0.5111
 1198TIP3    H125009   1.419   6.672  13.181 -0.3514 -0.4821  0.2460
 1198TIP3    H225010   1.308   6.570  13.194 -0.0512 -0.8607 -0.1232
 1199TIP3   OH225011   2.266   5.769  11.955  0.1527 -0.3298  0.4208
 1199TIP3    H125012   2.247   5.847  11.902 -0.2200  0.0721  1.1251
 1199TIP3    H225013   2.290   5.804  12.041  0.9373 -0.9639  0.4727
 1200TIP3   OH225014   6.018   1.339   3.424 -0.2400  0.4514  0.3207
 1200TIP3    H125015   6.056   1.426   3.408  0.2788  0.2374  0.3846
 1200TIP3    H225016   5.968   1.350   3.505 -1.3400  1.0491 -0.3965
 1201TIP3   OH225017   1.761   1.366  12.830  0.4009  0.0589  0.4906
 1201TIP3    H125018   1.700   1.386  12.901  0.2425 -0.4376  0.4988
 1201TIP3    H225019   1.829   1.433  12.837 -0.0598  0.5133  0.5796
 1202TIP3   OH225020   4.237   4.902   1.588 -0.1766  0.0516  0.1671
 1202TIP3    H125021   4.304   4.969   1.573  1.3284 -1.0780  1.5474
 1202TIP3    H225022   4.280   4.820   1.566 -1.7701 -0.5735 -0.8110
 1203TIP3   OH225023   5.073   5.389  11.911  0.0566  0.6313 -0.2955
 1203TIP3    H125024   5.050   5.481  11.904 -0.4281  0.4767 -0.8378
 1203TIP3    H225025   5.169   5.388  11.909  0.0559  1.0725 -1.0988
 1204TIP3   OH225026   1.490   0.533   4.028  0.0142  0.0788 -0.9802
 1204TIP3    H125027   1.555   0.603   4.040  1.5645 -1.0820 -2.2447
 1204TIP3    H225028   1.424   0.571   3.970  0.3316  0.7928 -0.8877
 1205TIP3   OH225029   1.777   0.500  14.608  0.0672  0.0541  0.2576
 1205TIP3    H125030   1.728   0.466  14.534  0.9919  1.3475 -1.0075
 1205TIP3    H225031   1.864   0.462  14.598  0.4238  0.8606  0.1944
 1206TIP3   OH225032   4.100   6.547  15.344 -0.2718  0.6420 -0.4578
 1206TIP3    H125033   4.074   6.632  15.309  1.4301  1.2698 -0.2684
 1206TIP3    H225034   4.039   6.485  15.303 -1.6492  1.9538 -0.4510
 1207TIP3   OH225035   0.506   2.974  13.567  0.2453  0.4465  0.0500
 1207TIP3    H125036   0.447   2.973  13.491  0.7360 -0.9363 -0.3378
 1207TIP3    H225037   0.457   2.928  13.636  0.7577 -0.4713 -0.1924
 1208TIP3   OH225038   1.502   4.573  16.864  0.0141  0.2757 -0.7505
 1208TIP3    H125039   1.460   4.488  16.876 -2.6189  1.3517 -1.5589
 1208TIP3    H225040   1.592   4.553  16.839  0.4494 -2.1920  2.1670
 1209TIP3   OH225041   2.557   6.385  11.043 -0.5854  0.3486 -0.0076
 1209TIP3    H125042   2.578   6.310  11.098 -0.7422 -0.3251 -0.8517
 1209TIP3    H225043   2.622   6.384  10.973  0.6981  2.2102  1.0484
 1210TIP3   OH225044   0.312   2.571   5.270 -0.2774  0.5884  0.1040
 1210TIP3    H125045   0.323   2.602   5.180  0.3312  0.4649  0.1325
 1210TIP3    H225046   0.278   2.482   5.260  0.3076  0.3729 -0.0181
 1211TIP3   OH225047   4.139   2.381   1.234  0.3406 -0.5013  0.2761
 1211TIP3    H125048   4.199   2.450   1.263  0.5041 -1.0975  1.4235
 1211TIP3    H225049   4.152   2.376   1.139  0.1466  1.1977  0.1284
 1212TIP3   OH225050   2.230   4.149  14.001 -0.1453  0.2607 -0.2475
 1212TIP3    H125051   2.225   4.225  13.943 -2.2976  1.2701  1.1472
 1212TIP3    H225052   2.141   4.114  14.002  0.2017 -0.6748  1.2164
 1213TIP3   OH225053   2.091   6.094   0.117  0.2990 -0.3440  0.4513
 1213TIP3    H125054   2.005   6.055   0.099  0.6502 -0.8502 -0.1891
 1213TIP3    H225055   2.091   6.111   0.211 -1.7670  2.7151  0.0428
 1214TIP3   OH225056   0.481   3.595   5.323  0.1709  0.2752  0.1706
 1214TIP3    H125057   0.574   3.579   5.308 -0.0658 -0.7571 -0.2502
 1214TIP3    H225058   0.443   3.599   5.235 -0.0958  1.3471  0.3136
 1215TIP3   OH225059   2.812   6.589  11.384  0.1478  0.4177  0.0401
 1215TIP3    H125060   2.750   6.522  11.357  2.6878 -2.9042  1.7395
 1215TIP3    H225061   2.842   6.628  11.302 -2.4292  0.6104 -0.9241
 1216TIP3   OH225062   3.242   2.261  14.647  0.2436 -0.0338  0.4594
 1216TIP3    H125063   3.197   2.179  14.665  1.1431 -0.7415 -0.3949
 1216TIP3    H225064   3.179   2.329  14.670 -1.2956 -0.9742 -0.7337
 1217TIP3   OH225065   4.536   0.343  11.909  0.5901 -0.3190 -0.1277
 1217TIP3    H125066   4.529   0.259  11.864  1.6903 -1.8171  2.2518
 1217TIP3    H225067   4.470   0.339  11.979 -0.2167  1.3733 -0.7337
 1218TIP3   OH225068   2.011   2.119   4.933  0.0248 -0.3320 -1.0473
 1218TIP3    H125069   1.960   2.136   4.854 -1.0001  0.5405 -0.2342
 1218TIP3    H225070   2.044   2.030   4.921 -0.1575 -0.2426 -2.4198
 1219TIP3   OH225071   4.692   3.197   3.474 -0.1500 -0.8934 -0.0502
 1219TIP3    H125072   4.743   3.258   3.527  0.0565 -1.3616  0.2920
 1219TIP3    H225073   4.602   3.230   3.479 -0.0932 -0.8062  0.4004
 1220TIP3   OH225074   0.091   0.356   6.054 -0.0545 -0.2043 -0.2269
 1220TIP3    H125075   0.036   0.284   6.084 -0.4456  0.2011  0.0448
 1220TIP3    H225076   0.066   0.430   6.110  1.1512 -0.1516  0.2814
 1221TIP3   OH225077   2.287   5.579  14.137 -0.4261  0.1011  0.2091
 1221TIP3    H125078   2.291   5.535  14.052 -0.1313 -0.3422  0.4467
 1221TIP3    H225079   2.221   5.647  14.125  2.5390  2.9469 -1.7081
 1222TIP3   OH225080   3.336   1.023   4.466 -0.5877 -0.7274 -0.4008
 1222TIP3    H125081   3.287   1.093   4.422  0.0902 -0.5649 -0.9103
 1222TIP3    H225082   3.361   0.964   4.396  0.5059 -0.4705 -0.2498
 1223TIP3   OH225083   5.143   1.468   5.563 -0.3966  0.1134 -0.3391
 1223TIP3    H125084   5.072   1.521   5.526 -1.3097  0.0145  1.2203
 1223TIP3    H225085   5.112   1.378   5.556  0.0727 -0.0244 -0.6818
 1224TIP3   OH225086   1.496   5.651   2.058  0.7744 -1.2058 -0.3495
 1224TIP3    H125087   1.554   5.649   1.982 -0.9071 -1.6641 -1.6751
 1224TIP3    H225088   1.533   5.585   2.117  1.6898 -1.3781 -1.0801
 1225TIP3   OH225089   4.251   4.661   1.474  0.9594  0.8881 -0.2427
 1225TIP3    H125090   4.293   4.579   1.447 -1.1478 -0.6875  0.9677
 1225TIP3    H225091   4.158   4.642   1.470  0.4059  3.1826  0.3419
 1226TIP3   OH225092   2.745   6.368  12.720 -0.2305 -0.7070 -0.0497
 1226TIP3    H125093   2.734   6.463  12.719  2.0656 -0.3864 -0.2733
 1226TIP3    H225094   2.658   6.334  12.699 -0.4372  1.4452 -3.4712
 1227TIP3   OH225095   5.408   4.806   0.144  0.4188  0.0176 -0.3268
 1227TIP3    H125096   5.445   4.893   0.158 -0.9932  0.3815  1.6848
 1227TIP3    H225097   5.352   4.815   0.067 -1.2329  1.4883  0.9500
 1228TIP3   OH225098   2.518   4.443  14.928 -0.2996 -0.4045 -0.4132
 1228TIP3    H125099   2.503   4.536  14.946 -1.4043 -0.5133 -0.6650
 1228TIP3    H225100   2.573   4.443  14.850  1.1894  0.0306  0.5811
 1229TIP3   OH225101   0.705   3.650  15.696  0.5912  0.7116 -0.0490
 1229TIP3    H125102   0.639   3.688  15.638 -0.1584  0.0810  0.3782
 1229TIP3    H225103   0.699   3.556  15.681 -1.2253  0.2821  2.6445
 1230TIP3   OH225104   6.617   4.134  15.084  0.5730 -0.0099  0.1545
 1230TIP3    H125105   6.564   4.170  15.013 -0.0932  0.1377  0.7176
 1230TIP3    H225106   6.642   4.047  15.053 -1.1517 -0.6408  0.4323
 1231TIP3   OH225107   1.875   1.634  13.590 -0.0017 -0.1566  0.1718
 1231TIP3    H125108   1.963   1.604  13.569  0.3218  0.5561  0.4531
 1231TIP3    H225109   1.873   1.725  13.561 -2.0216 -1.2025 -3.7116
 1232TIP3   OH225110   2.036   4.410  10.325  0.8196  0.2235  0.0366
 1232TIP3    H125111   1.987   4.482  10.364  1.6944  1.7785 -1.5862
 1232TIP3    H225112   2.090   4.376  10.396 -2.2458 -1.3966  1.8354
 1233TIP3   OH225113   0.678   4.233   4.054 -0.2988 -0.0046 -0.6616
 1233TIP3    H125114   0.626   4.264   4.128 -1.3661 -1.8688 -0.5633
 1233TIP3    H225115   0.737   4.168   4.093  1.9570  1.8016 -0.8303
 1234TIP3   OH225116   2.314   5.487  16.690 -0.2180  0.1732 -0.0506
 1234TIP3    H125117   2.339   5.572  16.726  0.6906 -0.2091  0.2555
 1234TIP3    H225118   2.333   5.425  16.761 -2.5100 -0.1247  0.4034
 1235TIP3   OH225119   3.498   0.483   1.209  0.1168  0.2506 -0.1072
 1235TIP3    H125120   3.518   0.564   1.255  1.7428  0.7179 -1.5422
 1235TIP3    H225121   3.476   0.421   1.279  0.1298  1.5614  1.1090
 1236TIP3   OH225122   5.343   2.896  17.029 -0.2189  0.0060  0.5111
 1236TIP3    H125123   5.401   2.860  17.096 -2.2347 -1.0508  1.7706
 1236TIP3    H225124   5.356   2.838  16.953  1.5452  0.7834  0.1681
 1237TIP3   OH225125   1.864   4.425   0.799 -0.1924  0.3137 -0.2460
 1237TIP3    H125126   1.869   4.444   0.705 -0.1999  0.3145 -0.2462
 1237TIP3    H225127   1.832   4.335   0.804 -1.0273  0.6003 -0.2328
 1238TIP3   OH225128   6.729   6.183  16.072 -0.8107  0.0794 -0.2035
 1238TIP3    H125129   6.771   6.249  16.016 -2.0012  1.1408  0.1093
 1238TIP3    H225130   6.680   6.128  16.011 -0.7177  0.1649 -0.3569
 1239TIP3   OH225131   2.748   1.757   2.998  0.3656  0.3259  0.7634
 1239TIP3    H125132   2.718   1.811   2.925  1.7177 -0.1880 -0.2053
 1239TIP3    H225133   2.805   1.815   3.049 -1.1796  0.9241  1.9097
 1240TIP3   OH225134   6.373   2.814   2.513  0.9758  0.3682  0.1277
 1240TIP3    H125135   6.441   2.865   2.556  1.3331  0.1350 -0.1551
 1240TIP3    H225136   6.417   2.772   2.439  0.3383  0.8819 -0.5610
 1241TIP3   OH225137   3.558   5.712  16.279 -0.2196  0.1916 -0.0120
 1241TIP3    H125138   3.622   5.782  16.262 -1.3385  0.7070 -2.6514
 1241TIP3    H225139   3.473   5.755  16.267 -0.9475 -1.3984 -0.7791
 1242TIP3   OH225140   3.750   4.884   1.220 -0.2332 -0.0822  0.1412
 1242TIP3    H125141   3.717   4.965   1.259  0.3422  0.4014 -0.3414
 1242TIP3    H225142   3.845   4.896   1.216 -0.2692 -0.0217 -1.5415
 1243TIP3   OH225143   5.524   4.347   3.313 -0.1164 -0.4484  0.2887
 1243TIP3    H125144   5.517   4.252   3.304 -1.9407 -0.3104 -0.1489
 1243TIP3    H225145   5.589   4.373   3.247 -0.3104 -1.3033 -0.2493
 1244TIP3   OH225146   4.956   2.028   4.522  0.0187  0.4397  0.5414
 1244TIP3    H125147   4.884   2.032   4.459 -0.7102  1.1053  1.3838
 1244TIP3    H225148   5.017   2.096   4.493 -0.2234  0.6167  0.4429
 1245TIP3   OH225149   3.603   6.382  11.093  0.2847  0.9264  0.8962
 1245TIP3    H125150   3.603   6.306  11.152  1.5693  0.5633  0.4589
 1245TIP3    H225151   3.510   6.404  11.083 -0.1152 -0.5142  1.1279
 1246TIP3   OH225152   6.715   6.340   4.745  0.6615 -0.7492  0.3874
 1246TIP3    H125153   6.669   6.266   4.705  1.0111 -0.6987 -0.1198
 1246TIP3    H225154   6.724   6.403   4.674  1.3726 -0.6907  0.5195
 1247TIP3   OH225155   6.097   5.854   2.723 -0.3022 -0.6211  0.3449
 1247TIP3    H125156   6.009   5.820   2.708  0.6346 -2.8234 -0.6542
 1247TIP3    H225157   6.109   5.849   2.818 -1.2971 -0.1471  0.5034
 1248TIP3   OH225158   2.855   6.346  14.071  0.4250  0.0811 -0.2527
 1248TIP3    H125159   2.930   6.331  14.128  0.2762 -1.8478 -0.4903
 1248TIP3    H225160   2.805   6.264  14.075 -0.3927  0.4526 -1.9363
 1249TIP3   OH225161   4.976   3.588   2.519  0.0641 -0.2481  0.3400
 1249TIP3    H125162   5.013   3.664   2.472 -1.3592 -0.1886 -0.7664
 1249TIP3    H225163   4.980   3.612   2.611  0.2425  0.9057  0.0477
 1250TIP3   OH225164   1.261   6.323   1.449 -0.1477 -0.2008 -0.3499
 1250TIP3    H125165   1.211   6.398   1.418 -0.1826 -0.9111 -2.0675
 1250TIP3    H225166   1.238   6.252   1.390  0.7212 -1.2881  0.5814
 1251TIP3   OH225167   5.230   1.541  16.057 -0.0104  0.5479 -0.3060
 1251TIP3    H125168   5.213   1.602  15.985 -1.4661 -0.3108 -0.7429
 1251TIP3    H225169   5.324   1.522  16.051  0.2077  1.7240 -0.9586
 1252TIP3   OH225170   1.265   0.047   3.167 -0.6965 -0.2001 -0.7662
 1252TIP3    H125171   1.272  -0.029   3.110 -0.0511 -0.4625 -0.3410
 1252TIP3    H225172   1.354   0.080   3.175 -0.8054 -0.0514 -0.0724
 1253TIP3   OH225173   6.164   2.352  16.250  0.0395 -0.2136 -0.1172
 1253TIP3    H125174   6.245   2.392  16.220 -1.2104  1.2542 -1.7934
 1253TIP3    H225175   6.147   2.281  16.187  0.5039 -1.1856  0.8242
 1254TIP3   OH225176   0.298   1.003   4.439  0.2818  0.7023  0.3819
 1254TIP3    H125177   0.337   0.991   4.526 -1.1893  1.5734  1.2081
 1254TIP3    H225178   0.234   0.933   4.432  1.5644 -0.4051 -0.7486
 1255TIP3   OH225179   4.281   3.406  12.181 -0.3348  0.0297  0.2478
 1255TIP3    H125180   4.216   3.446  12.123 -0.4657 -1.9760 -1.0850
 1255TIP3    H225181   4.326   3.342  12.126  2.6380  1.1349  1.1935
 1256TIP3   OH225182   1.972   6.382  13.920 -0.4614  0.0426  0.1161
 1256TIP3    H125183   1.947   6.294  13.891  0.8505 -0.2642 -0.1655
 1256TIP3    H225184   2.061   6.393  13.886 -1.1990  2.1607 -1.3499
 1257TIP3   OH225185   3.597   5.408   0.232  0.6783 -0.0954 -0.5084
 1257TIP3    H125186   3.629   5.499   0.231 -2.2834  1.0891  0.0461
 1257TIP3    H225187   3.588   5.387   0.325 -0.1346 -0.3313 -0.6279
 1258TIP3   OH225188   4.735   2.853  12.940  0.0031 -0.1640 -0.4073
 1258TIP3    H125189   4.688   2.791  12.996  2.0290 -3.5688 -2.1846
 1258TIP3    H225190   4.684   2.854  12.858  0.2151  0.1994 -0.5362
 1259TIP3   OH225191   2.140   6.589  12.011 -0.2639 -0.0581  0.0281
 1259TIP3    H125192   2.223   6.553  12.042 -1.4918 -1.0554  2.3490
 1259TIP3    H225193   2.105   6.637  12.086 -1.3093  1.2624 -1.2465
 1260TIP3   OH225194   6.049   3.928  15.156  0.1761 -0.1817  0.1456
 1260TIP3    H125195   5.985   3.868  15.193 -0.2246  0.2227  0.1117
 1260TIP3    H225196   6.035   4.010  15.203 -0.3820  0.3628 -0.9291
 1261TIP3   OH225197   4.750   4.468   2.095 -0.1191  0.1326 -0.7490
 1261TIP3    H125198   4.720   4.516   2.017 -0.8080  0.8387 -0.0645
 1261TIP3    H225199   4.844   4.454   2.080 -0.2341  0.2955 -1.6847
 1262TIP3   OH225200   0.095   6.407  12.212  0.3293  0.5197  0.7072
 1262TIP3    H125201   0.127   6.493  12.184 -0.1008  0.5423  0.2668
 1262TIP3    H225202   0.002   6.408  12.189  0.5298 -0.4415 -0.2059
 1263TIP3   OH225203   1.495   1.576   5.369 -0.5219 -0.4400  0.3156
 1263TIP3    H125204   1.536   1.589   5.454  1.0941 -2.4971 -0.0683
 1263TIP3    H225205   1.515   1.656   5.320  0.0352  0.0439  1.3075
 1264TIP3   OH225206   1.297   6.312  10.356 -0.1344 -0.2483 -0.0286
 1264TIP3    H125207   1.306   6.407  10.355 -1.7462 -0.0312  1.3383
 1264TIP3    H225208   1.373   6.281  10.405  0.0236  0.3927  0.1356
 1265TIP3   OH225209   3.037   2.217  13.197 -0.0237 -0.4958 -0.5638
 1265TIP3    H125210   2.970   2.210  13.130 -1.6397 -2.9132  1.1375
 1265TIP3    H225211   3.053   2.127  13.226  2.5105  0.1952  0.5292
 1266TIP3   OH225212   1.470   1.702  14.537  0.3133 -0.2403 -0.3438
 1266TIP3    H125213   1.384   1.738  14.559 -0.2039 -1.1294 -0.8344
 1266TIP3    H225214   1.529   1.740  14.602 -0.5327  0.0306  0.2916
 1267TIP3   OH225215   3.181   3.030  16.494 -0.3157  0.6042 -0.4989
 1267TIP3    H125216   3.218   3.113  16.463  0.5284 -0.3410 -2.1546
 1267TIP3    H225217   3.130   2.998  16.420 -0.3251 -0.5443 -0.0048
 1268TIP3   OH225218   0.546   4.532  13.828 -0.4488  0.3339 -0.3724
 1268TIP3    H125219   0.558   4.615  13.873  0.3220  0.0284  0.0077
 1268TIP3    H225220   0.627   4.483  13.846 -1.8590 -1.4579  1.4607
 1269TIP3   OH225221   6.190   3.433  16.828  0.3952  0.1150  0.1728
 1269TIP3    H125222   6.204   3.376  16.754  0.6175  1.3109 -0.7391
 1269TIP3    H225223   6.230   3.516  16.803  2.3520 -0.0194  2.4629
 1270TIP3   OH225224   2.323   3.112   1.378  0.2310 -0.0744 -0.2598
 1270TIP3    H125225   2.326   3.051   1.304  0.5213 -0.5690  0.1501
 1270TIP3    H225226   2.376   3.069   1.446 -0.3988  0.1587  0.3921
 1271TIP3   OH225227   1.480   3.701  13.625  0.2060  0.2243  0.8460
 1271TIP3    H125228   1.456   3.792  13.644  2.7051  1.0581  0.3231
 1271TIP3    H225229   1.408   3.669  13.570  0.6220  2.8700 -1.4516
 1272TIP3   OH225230   0.563   3.269  13.902 -0.2034 -0.4061 -0.0542
 1272TIP3    H125231   0.599   3.315  13.978  0.6336 -0.2744 -0.5187
 1272TIP3    H225232   0.540   3.339  13.841  0.1283 -0.5629 -0.3563
 1273TIP3   OH225233   0.784   4.314   1.470  0.0715  0.5564  0.0633
 1273TIP3    H125234   0.865   4.307   1.419  1.1264 -2.7671  1.8833
 1273TIP3    H225235   0.800   4.386   1.530  1.5245  0.2871  0.0544
 1274TIP3   OH225236   5.049   5.188   4.503  0.2865  0.2614  0.8694
 1274TIP3    H125237   5.082   5.201   4.592 -1.9221 -0.1002  1.8076
 1274TIP3    H225238   4.985   5.117   4.512 -0.2574  0.4826 -0.9436
 1275TIP3   OH225239   0.822   5.736  12.639  0.0051  0.2932  0.0405
 1275TIP3    H125240   0.789   5.652  12.671  0.5595  0.2726  0.5721
 1275TIP3    H225241   0.906   5.715  12.599  0.2965  0.6384  0.4604
 1276TIP3   OH225242   0.796   4.143   4.904  0.5741  0.2390 -0.3595
 1276TIP3    H125243   0.778   4.143   4.998 -0.7479 -0.5310 -0.5915
 1276TIP3    H225244   0.816   4.051   4.884  0.5693  0.3477 -0.8779
 1277TIP3   OH225245   1.306   0.598   5.080  0.2755 -0.1710  0.1177
 1277TIP3    H125246   1.389   0.550   5.083 -0.8875 -2.2820  2.4317
 1277TIP3    H225247   1.245   0.537   5.040 -0.8142  0.1721  1.2160
 1278TIP3   OH225248   3.864   2.180  16.213  0.2565 -0.3338 -0.0236
 1278TIP3    H125249   3.822   2.093  16.214 -0.6104  0.0684  0.7455
 1278TIP3    H225250   3.795   2.239  16.182 -0.3849  0.6064  2.8595
 1279TIP3   OH225251   5.397   4.072  14.338 -0.0194 -0.0374 -0.1943
 1279TIP3    H125252   5.468   4.096  14.278 -1.0006 -0.5043 -1.5807
 1279TIP3    H225253   5.351   4.001  14.295  0.5880 -1.9991  2.1716
 1280TIP3   OH225254   4.066   5.542   5.506  0.0705 -0.0064 -0.2196
 1280TIP3    H125255   3.973   5.560   5.491 -0.1784 -0.0480  1.1486
 1280TIP3    H225256   4.111   5.586   5.434 -0.8880  1.5010  0.0581
 1281TIP3   OH225257   5.030   1.814   4.991  0.2240  0.3525  0.1358
 1281TIP3    H125258   5.116   1.829   5.030 -0.3591  0.4981  1.4074
 1281TIP3    H225259   4.971   1.802   5.066 -0.8326  0.0680 -0.7123
 1282TIP3   OH225260   5.672   6.215   2.523  0.5363 -0.0009 -0.3910
 1282TIP3    H125261   5.754   6.169   2.543 -0.3244 -1.4843 -0.1878
 1282TIP3    H225262   5.636   6.169   2.448  0.5181  1.4853 -1.3289
 1283TIP3   OH225263   0.731   1.951  15.187 -0.2194  0.0764 -0.1135
 1283TIP3    H125264   0.758   1.870  15.144  1.0743  0.6018 -0.3373
 1283TIP3    H225265   0.792   2.017  15.154 -0.6621  0.9506  0.7788
 1284TIP3   OH225266   0.131   5.925  15.089 -0.4064 -0.2783 -0.0556
 1284TIP3    H125267   0.083   5.947  15.009 -1.6407  0.5846  0.8739
 1284TIP3    H225268   0.206   5.875  15.059 -0.2977  0.8582 -1.8560
 1285TIP3   OH225269   2.984   1.971  16.530 -0.1260  0.2269 -0.0247
 1285TIP3    H125270   3.010   2.055  16.494  1.9656 -1.1827 -2.1024
 1285TIP3    H225271   3.064   1.919  16.531 -1.3635 -1.8188  1.0227
 1286TIP3   OH225272   5.549   3.273   3.221 -0.6721 -0.5224 -0.4248
 1286TIP3    H125273   5.614   3.212   3.256 -0.3034 -1.5283 -2.6674
 1286TIP3    H225274   5.573   3.358   3.257  1.1564 -1.0808 -0.2305
 1287TIP3   OH225275   3.920   6.729   3.739 -0.2113 -0.1750 -0.0615
 1287TIP3    H125276   3.919   6.635   3.760 -0.8711 -0.5935 -1.7712
 1287TIP3    H225277   3.936   6.732   3.645  0.8266  1.4884  0.1298
 1288TIP3   OH225278   3.086   3.402   2.193 -0.2953  0.3661  0.4969
 1288TIP3    H125279   3.096   3.312   2.222  1.5240  0.1423 -0.6945
 1288TIP3    H225280   3.099   3.399   2.098  1.6646  2.0875  0.6451
 1289TIP3   OH225281   3.161   2.211   1.275  0.2579  0.8554  0.3019
 1289TIP3    H125282   3.219   2.286   1.290 -1.8238  2.4411  1.0402
 1289TIP3    H225283   3.112   2.235   1.196  0.0905 -0.0985  0.1068
 1290TIP3   OH225284   3.760   1.874  13.106 -0.5037 -0.2329 -0.3402
 1290TIP3    H125285   3.850   1.870  13.074  0.4698 -0.3423  2.2082
 1290TIP3    H225286   3.761   1.946  13.170 -1.9538 -0.9180  0.4967
 1291TIP3   OH225287   3.310   1.274  15.424  0.4131 -0.0384  0.1643
 1291TIP3    H125288   3.353   1.359  15.429  1.1879 -0.3458 -0.9660
 1291TIP3    H225289   3.373   1.217  15.380 -0.1195 -1.1905  0.8316
 1292TIP3   OH225290   2.319   2.309   2.362  0.0163  0.1282  1.5322
 1292TIP3    H125291   2.390   2.372   2.379 -0.3116  1.1587 -0.5783
 1292TIP3    H225292   2.239   2.355   2.388 -0.2561  0.7959 -0.3239
 1293TIP3   OH225293   1.656   3.158   5.172  0.2482 -0.2360 -0.1753
 1293TIP3    H125294   1.723   3.206   5.221 -0.3305 -0.4576  0.8542
 1293TIP3    H225295   1.691   3.153   5.082  0.8386  1.0932 -0.0383
 1294TIP3   OH225296   4.818   4.972   0.358  0.6078 -0.0600 -0.3074
 1294TIP3    H125297   4.831   4.897   0.300  1.5634 -0.7743  0.8035
 1294TIP3    H225298   4.824   4.936   0.446  0.0032  1.1491  0.2493
 1295TIP3   OH225299   6.107   1.105   1.210 -0.6534 -0.4086 -0.5762
 1295TIP3    H125300   6.168   1.154   1.265 -0.4568 -0.8498 -0.3975
 1295TIP3    H225301   6.082   1.029   1.263 -1.9358  0.1499 -0.3542
 1296TIP3   OH225302   0.819   2.973   4.170  0.0535 -0.3294  0.1611
 1296TIP3    H125303   0.819   2.932   4.256 -0.2729  0.3272  0.4855
 1296TIP3    H225304   0.852   2.906   4.110 -0.7230 -1.1351  0.6275
 1297TIP3   OH225305   3.252   6.418   1.523 -0.1372  0.1624  0.4020
 1297TIP3    H125306   3.290   6.379   1.602  1.7007  0.0160 -0.5172
 1297TIP3    H225307   3.266   6.353   1.455 -0.4920  0.8600 -0.3529
 1298TIP3   OH225308   2.978   3.431   0.225 -0.3623  0.7715  0.1907
 1298TIP3    H125309   2.942   3.519   0.217 -0.4196  1.1481  3.3289
 1298TIP3    H225310   3.007   3.424   0.317 -1.0630 -2.7328  0.3147
 1299TIP3   OH225311   2.358   0.824   3.326  0.1319  0.4514 -0.0984
 1299TIP3    H125312   2.295   0.769   3.372 -1.1755  0.5986 -1.6059
 1299TIP3    H225313   2.320   0.835   3.239  1.5499  1.7634 -0.5896
 1300TIP3   OH225314   5.432   3.862   0.070 -0.2149 -0.5981  0.4954
 1300TIP3    H125315   5.378   3.828  -0.001 -0.0634 -0.4020  0.2805
 1300TIP3    H225316   5.478   3.786   0.105 -0.3169 -0.7002  0.4048
 1301TIP3   OH225317   3.617   2.685  11.636  0.0912  0.1810 -0.9618
 1301TIP3    H125318   3.632   2.734  11.717 -0.4464 -0.8171 -0.2369
 1301TIP3    H225319   3.675   2.726  11.572  1.4310  0.2336  0.2342
 1302TIP3   OH225320   1.494   0.639  11.835  0.0959  0.6420 -0.6048
 1302TIP3    H125321   1.423   0.582  11.866  0.2934  0.8498  0.2286
 1302TIP3    H225322   1.455   0.726  11.831 -0.1460  0.5007 -1.6848
 1303TIP3   OH225323   0.312   4.784   6.002  0.4782  0.0560  0.0571
 1303TIP3    H125324   0.379   4.766   5.937 -0.2059  1.9174 -1.2500
 1303TIP3    H225325   0.257   4.706   6.002  0.8297 -0.2071 -1.1671
 1304TIP3   OH225326   3.740   4.830   1.518  0.4992 -0.0669 -1.0747
 1304TIP3    H125327   3.724   4.918   1.485 -0.4028  0.4694  0.6730
 1304TIP3    H225328   3.695   4.772   1.457 -3.3141  1.0375  0.4456
 1305TIP3   OH225329   4.780   2.652   5.390  0.0155  0.0531 -0.0074
 1305TIP3    H125330   4.774   2.669   5.484  0.6429  1.3503 -0.1786
 1305TIP3    H225331   4.806   2.560   5.384  0.4462  0.0879  1.0927
 1306TIP3   OH225332   4.728   5.731   1.925 -0.0443 -0.1023  0.2104
 1306TIP3    H125333   4.665   5.790   1.969  0.1136 -0.1531  0.5096
 1306TIP3    H225334   4.809   5.781   1.923 -0.1874  0.1081 -0.5138
 1307TIP3   OH225335   0.414   3.619  14.148  0.0978  0.4772 -0.2918
 1307TIP3    H125336   0.391   3.661  14.231  1.0787  0.7617 -0.1593
 1307TIP3    H225337   0.509   3.622  14.145  0.1516 -0.9973 -0.6678
 1308TIP3   OH225338   6.677   0.976   3.867 -0.0354 -0.0774  0.0868
 1308TIP3    H125339   6.625   1.005   3.942  2.4444 -0.1227  1.9384
 1308TIP3    H225340   6.751   1.036   3.863  1.4879 -1.8684 -0.4242
 1309TIP3   OH225341   3.216   5.600   4.774  0.0795  0.1122  0.1143
 1309TIP3    H125342   3.166   5.566   4.848 -0.4677  1.6366  0.4899
 1309TIP3    H225343   3.293   5.642   4.814  2.0382 -2.6500 -0.4801
 1310TIP3   OH225344   0.069   2.612   4.422 -0.2178  0.5010 -0.5212
 1310TIP3    H125345   0.120   2.532   4.408  1.3652  1.4457 -0.4363
 1310TIP3    H225346   0.124   2.665   4.480 -2.2987  0.6864  1.4501
 1311TIP3   OH225347   0.450   1.484  14.792  0.7989  0.8277  0.4720
 1311TIP3    H125348   0.380   1.549  14.795 -0.0135 -0.0023  0.1724
 1311TIP3    H225349   0.529   1.533  14.769  0.5633  1.9673  2.0142
 1312TIP3   OH225350   5.570   6.089  13.418  0.4666 -0.1086 -0.5567
 1312TIP3    H125351   5.582   6.134  13.334 -2.7528  3.5277  0.6275
 1312TIP3    H225352   5.633   6.131  13.476  0.6185 -0.4721 -0.4552
 1313TIP3   OH225353   0.243   5.813   2.602  0.2314 -1.1837  0.8003
 1313TIP3    H125354   0.165   5.761   2.584 -0.4377  0.3038 -0.9833
 1313TIP3    H225355   0.246   5.819   2.698 -2.1924 -0.8490  0.9450
 1314TIP3   OH225356   2.923   0.970  12.758 -0.0718 -0.3865  0.0931
 1314TIP3    H125357   2.892   0.924  12.680  1.5173 -1.1499 -0.1344
 1314TIP3    H225358   2.998   1.021  12.727  0.7502 -0.9100  1.1609
 1315TIP3   OH225359   4.569   4.529  15.816  0.1998  0.1623  0.2184
 1315TIP3    H125360   4.664   4.533  15.804  0.1752 -0.9960 -0.5974
 1315TIP3    H225361   4.533   4.573  15.739  0.0691  0.9234  0.7071
 1316TIP3   OH225362   0.627   2.250  15.293  0.1697 -0.4344  0.3148
 1316TIP3    H125363   0.664   2.257  15.205  0.3756  1.1960  0.5069
 1316TIP3    H225364   0.677   2.312  15.345 -0.3867 -0.9056  1.4486
 1317TIP3   OH225365   2.456   4.461   4.471  0.3452 -1.4161 -0.4251
 1317TIP3    H125366   2.368   4.447   4.435  0.0869 -0.3599 -0.2156
 1317TIP3    H225367   2.506   4.501   4.400 -0.0863  0.4029  0.2411
 1318TIP3   OH225368   5.640   2.141   5.230  0.2393 -0.0655 -0.1082
 1318TIP3    H125369   5.619   2.093   5.150 -2.5438  1.8271 -0.6826
 1318TIP3    H225370   5.583   2.103   5.297 -0.2194  0.7887  0.0079
 1319TIP3   OH225371   6.113   6.311   6.605 -0.7571 -0.3823  0.1977
 1319TIP3    H125372   6.049   6.266   6.660 -0.1444 -0.7506  0.6242
 1319TIP3    H225373   6.197   6.296   6.649 -0.7455  3.2852  1.8753
 1320TIP3   OH225374   3.642   6.540   3.763 -0.5646  0.2512  0.2300
 1320TIP3    H125375   3.597   6.576   3.839  2.5616  0.9074  1.9285
 1320TIP3    H225376   3.669   6.616   3.712  0.6642  0.0431  0.5348
 1321TIP3   OH225377   4.268   0.955  16.023 -0.1166  0.3415  0.5670
 1321TIP3    H125378   4.253   0.885  16.086  0.0210 -1.4166 -1.2723
 1321TIP3    H225379   4.263   0.913  15.938  0.7810  2.4273 -0.6023
 1322TIP3   OH225380   0.816   6.705  17.120 -0.0163  0.1305  0.5177
 1322TIP3    H125381   0.911   6.707  17.112 -0.0080 -0.9251  0.2589
 1322TIP3    H225382   0.799   6.738  17.208  0.5181  1.3949  0.1629
 1323TIP3   OH225383   5.819   1.416  16.853 -0.6166  0.3552 -0.5260
 1323TIP3    H125384   5.831   1.448  16.764  0.9257 -0.7325 -0.7456
 1323TIP3    H225385   5.874   1.339  16.859 -0.7389  0.3532  1.3633
 1324TIP3   OH225386   0.193   3.994  15.391 -0.7461  0.3719  0.6127
 1324TIP3    H125387   0.215   4.086  15.407 -2.1272  0.9098 -0.3836
 1324TIP3    H225388   0.099   3.995  15.370 -0.5263 -1.1052 -0.6189
 1325TIP3   OH225389   2.221   2.283   5.356 -0.3044 -0.3866  0.0049
 1325TIP3    H125390   2.250   2.369   5.387 -1.7193 -0.0410  0.4174
 1325TIP3    H225391   2.275   2.221   5.406  0.4798  0.2389 -0.0408
 1326TIP3   OH225392   1.277   0.144   2.361 -0.0186 -0.0820  0.1896
 1326TIP3    H125393   1.205   0.199   2.330 -0.6140 -0.6832  0.5058
 1326TIP3    H225394   1.236   0.078   2.416  1.1124  2.0673  4.0428
 1327TIP3   OH225395   5.269   1.570   3.267 -0.7027  0.2220  0.0062
 1327TIP3    H125396   5.309   1.645   3.312 -2.3653  2.0179 -1.3120
 1327TIP3    H225397   5.341   1.530   3.219 -0.0910  2.4432 -1.0970
 1328TIP3   OH225398   3.133   6.535  15.562 -0.1520 -0.1917  0.0853
 1328TIP3    H125399   3.212   6.525  15.510 -0.9739  1.1511 -1.4947
 1328TIP3    H225400   3.141   6.623  15.601 -1.0632  0.1436 -0.4646
 1329TIP3   OH225401   2.604   3.310  12.595 -0.1642  0.4648 -0.1614
 1329TIP3    H125402   2.528   3.363  12.570 -2.1598 -1.2809  1.7634
 1329TIP3    H225403   2.609   3.320  12.690  0.6576 -1.2207  0.0016
 1330TIP3   OH225404   5.122   1.685  13.330 -0.2600  0.0613  0.1651
 1330TIP3    H125405   5.212   1.713  13.312 -0.5672  0.5089 -0.7225
 1330TIP3    H225406   5.121   1.666  13.424  1.1562 -1.4351 -0.0863
 1331TIP3   OH225407   0.803   5.939  10.680  0.5779 -0.4638  0.8475
 1331TIP3    H125408   0.798   5.892  10.597  1.4857  0.9691 -0.0621
 1331TIP3    H225409   0.835   5.875  10.743  1.5170 -1.1301 -0.2887
 1332TIP3   OH225410   5.488   1.410   1.163 -0.2688 -0.1583 -0.0338
 1332TIP3    H125411   5.526   1.482   1.214  0.1627  0.0488 -0.6377
 1332TIP3    H225412   5.551   1.339   1.170  0.5733  0.4078 -1.5795
 1333TIP3   OH225413   1.178   1.111  15.307  0.2703  0.1726  0.0602
 1333TIP3    H125414   1.170   1.159  15.389  0.6259 -0.7148  0.6216
 1333TIP3    H225415   1.164   1.020  15.331  1.5941 -0.2466 -0.6497
 1334TIP3   OH225416   5.423   3.221   2.342 -0.4938 -0.0075  0.2896
 1334TIP3    H125417   5.377   3.275   2.278 -0.7734 -0.1019  0.4076
 1334TIP3    H225418   5.375   3.234   2.423 -1.5559 -1.6708 -0.0251
 1335TIP3   OH225419   3.850   3.142   4.147  0.2025 -0.5328  0.2355
 1335TIP3    H125420   3.760   3.112   4.158 -0.1316 -1.0618 -2.8042
 1335TIP3    H225421   3.845   3.237   4.148 -0.6547 -0.5394 -1.1605
 1336TIP3   OH225422   5.314   6.429   4.524 -0.6767 -0.2675  0.3715
 1336TIP3    H125423   5.332   6.366   4.594  0.4374 -0.1174  0.2487
 1336TIP3    H225424   5.256   6.381   4.464 -1.1220 -0.6183  1.0662
 1337TIP3   OH225425   5.319   2.246  13.269 -0.0601 -0.0252 -0.6381
 1337TIP3    H125426   5.414   2.257  13.274  0.2527 -2.8197  2.2978
 1337TIP3    H225427   5.306   2.199  13.187  1.2171 -0.5001 -0.5986
 1338TIP3   OH225428   0.162   3.344  16.273 -0.1346 -0.3443  0.1307
 1338TIP3    H125429   0.208   3.326  16.191 -0.8987 -2.4483  0.1137
 1338TIP3    H225430   0.072   3.316  16.257 -0.1660 -1.3431  1.8448
 1339TIP3   OH225431   3.728   0.731   3.091  0.1443  0.0027  0.3926
 1339TIP3    H125432   3.807   0.785   3.088  0.2578 -0.1940 -0.8604
 1339TIP3    H225433   3.694   0.742   3.180  0.6643  1.3932  0.4379
 1340TIP3   OH225434   0.116   5.178  16.051  0.3633  0.5467 -0.5339
 1340TIP3    H125435   0.082   5.115  16.114  0.2542  0.3441 -0.7909
 1340TIP3    H225436   0.048   5.244  16.043  0.6397  0.9036  0.0243
 1341TIP3   OH225437   3.030   6.263  14.267 -0.0276  0.1377  0.0395
 1341TIP3    H125438   3.125   6.263  14.282  0.2049 -0.6801 -1.2833
 1341TIP3    H225439   2.992   6.270  14.355  1.2443 -0.2880  0.6541
 1342TIP3   OH225440   5.244   4.773   4.874  0.0534  0.0873 -0.9767
 1342TIP3    H125441   5.330   4.798   4.839  1.0134 -0.9360  0.5483
 1342TIP3    H225442   5.232   4.682   4.847 -0.2548  0.0276 -0.6500
 1343TIP3   OH225443   2.143   1.204   4.967  0.7497 -0.8730  0.5227
 1343TIP3    H125444   2.200   1.277   4.942 -0.1660 -0.3080  0.0370
 1343TIP3    H225445   2.180   1.128   4.922  1.3058 -0.5759  0.4724
 1344TIP3   OH225446   5.337   2.705  14.520  0.0546 -0.3320  0.3595
 1344TIP3    H125447   5.242   2.705  14.516  0.0553 -1.2896 -0.1248
 1344TIP3    H225448   5.365   2.693  14.429  0.6310 -0.1117  0.5029
 1345TIP3   OH225449   3.136   4.932  10.598 -0.6579 -1.0403  0.1861
 1345TIP3    H125450   3.170   4.859  10.547 -0.4857 -0.3960 -0.6378
 1345TIP3    H225451   3.064   4.968  10.546 -0.0625  0.0241  0.0641
 1346TIP3   OH225452   6.544   2.084  16.896 -0.1490 -0.0108  0.4277
 1346TIP3    H125453   6.513   2.035  16.973 -0.9296  1.1728  0.9000
 1346TIP3    H225454   6.535   2.023  16.823 -2.4501 -0.1487  0.7619
 1347TIP3   OH225455   6.114   3.125   2.581  0.1713 -0.2806  0.2090
 1347TIP3    H125456   6.086   3.070   2.655 -0.4172  1.0515  1.0229
 1347TIP3    H225457   6.205   3.147   2.601  0.0909 -0.1241  0.3982
 1348TIP3   OH225458   1.043   0.675   1.731 -0.4881 -0.0178 -0.2342
 1348TIP3    H125459   1.013   0.741   1.794 -3.0833 -0.2534 -1.0943
 1348TIP3    H225460   1.107   0.721   1.678  1.7119  0.2212  2.3938
 1349TIP3   OH225461   3.927   3.836  11.053  0.2483  0.0248 -0.1752
 1349TIP3    H125462   3.850   3.805  11.004 -1.3275  1.4408  1.2717
 1349TIP3    H225463   3.983   3.876  10.986 -1.5760  1.4020 -0.9728
 1350TIP3   OH225464   2.221   1.286   3.901 -0.1005 -0.1693  0.1149
 1350TIP3    H125465   2.274   1.206   3.903 -1.1493 -0.8822  0.3341
 1350TIP3    H225466   2.269   1.348   3.956 -0.4254 -1.4052  1.8807
 1351TIP3   OH225467   2.328   2.644  12.769 -0.1097 -0.0033  0.5137
 1351TIP3    H125468   2.412   2.671  12.807 -0.2877  2.0359 -0.4168
 1351TIP3    H225469   2.280   2.725  12.757 -2.3171 -1.1304  1.1245
 1352TIP3   OH225470   1.446   2.785  12.892 -1.2821  0.0258 -0.8602
 1352TIP3    H125471   1.370   2.836  12.922 -0.2182  1.8542 -1.0772
 1352TIP3    H225472   1.521   2.841  12.911 -0.0338 -1.4421 -1.2699
 1353TIP3   OH225473   3.935   5.203  12.259 -1.1103  0.4415  0.2454
 1353TIP3    H125474   3.840   5.194  12.265 -1.0892 -0.0860 -0.1238
 1353TIP3    H225475   3.966   5.114  12.240 -0.3433  0.1648  2.5740
 1354TIP3   OH225476   4.991   4.396  11.557  0.3892 -0.2585  0.0665
 1354TIP3    H125477   5.059   4.413  11.623 -0.2023 -0.5418  0.7635
 1354TIP3    H225478   4.960   4.307  11.577 -0.8494  0.2188  0.3825
 1355TIP3   OH225479   1.462   4.036  12.321 -0.0718  0.4018  0.4103
 1355TIP3    H125480   1.452   3.942  12.309  0.3703  0.2482  1.2235
 1355TIP3    H225481   1.512   4.046  12.402  0.5796  1.3153 -0.0742
 1356TIP3   OH225482   4.864   0.073  16.162 -0.0292 -0.3256 -0.1304
 1356TIP3    H125483   4.940   0.029  16.124 -0.4475 -0.4621 -0.8224
 1356TIP3    H225484   4.793   0.010  16.153  0.2745 -1.2478  2.8032
 1357TIP3   OH225485   5.231   5.067   5.462  0.1023 -0.0342 -0.1784
 1357TIP3    H125486   5.140   5.080   5.487 -0.1113  0.6877 -1.2621
 1357TIP3    H225487   5.281   5.117   5.528 -0.3725  0.7829 -0.4177
 1358TIP3   OH225488   4.960   0.233   0.090  0.3420  0.6485  0.3764
 1358TIP3    H125489   4.966   0.139   0.108  1.4696  0.0820 -2.3948
 1358TIP3    H225490   4.884   0.263   0.140 -0.5857 -1.9291  0.6375
 1359TIP3   OH225491   2.964   2.651   0.313 -0.3824  0.5955 -0.3129
 1359TIP3    H125492   3.051   2.668   0.276  0.0993  1.3970  1.1310
 1359TIP3    H225493   2.976   2.573   0.366 -0.8045  0.1137 -0.9097
 1360TIP3   OH225494   5.084   5.379  13.988 -0.4934 -0.4141 -0.3101
 1360TIP3    H125495   5.007   5.407  13.939  0.5782  0.7444 -1.4061
 1360TIP3    H225496   5.051   5.314  14.050 -2.0023 -1.5663 -2.2171
 1361TIP3   OH225497   0.973   2.462   2.071  0.0495 -0.4995 -0.5101
 1361TIP3    H125498   1.013   2.379   2.042  3.4050  1.0208 -0.7174
 1361TIP3    H225499   0.880   2.450   2.054  0.5608 -3.6594 -1.9728
 1362TIP3   OH225500   5.403   5.010  16.859  0.4257 -0.6390 -0.0468
 1362TIP3    H125501   5.310   5.028  16.869  0.3111  0.5387 -2.5128
 1362TIP3    H225502   5.447   5.087  16.895  0.5525 -1.6416  2.0761
 1363TIP3   OH225503   6.531   2.288  12.623  0.0225  0.4429 -1.1279
 1363TIP3    H125504   6.551   2.374  12.586 -2.1006  1.7452  0.4888
 1363TIP3    H225505   6.464   2.252  12.565  0.4003  0.1840 -1.4071
 1364TIP3   OH225506   0.089   5.493  15.085  0.0834  0.4117  0.2860
 1364TIP3    H125507   0.158   5.559  15.086  0.6375 -0.1630  0.5148
 1364TIP3    H225508   0.106   5.440  15.162  0.6070 -0.9765 -0.7525
 1365TIP3   OH225509   2.586   5.037   4.326  0.1667  0.0003  0.3542
 1365TIP3    H125510   2.507   5.039   4.380  1.1042  0.1121  1.7782
 1365TIP3    H225511   2.584   5.120   4.278 -0.5621  0.0118  0.3871
 1366TIP3   OH225512   4.875   2.302   6.574 -0.1059  0.0940 -0.2767
 1366TIP3    H125513   4.787   2.310   6.536 -0.5900 -3.8333 -0.3774
 1366TIP3    H225514   4.934   2.329   6.504 -1.1730 -0.8753 -1.6014
 1367TIP3   OH225515   1.363   2.208  11.270  0.0344  0.4683 -0.2989
 1367TIP3    H125516   1.454   2.219  11.245 -0.3100 -0.4945 -2.1212
 1367TIP3    H225517   1.359   2.121  11.310 -0.2355  0.1594 -0.9935
 1368TIP3   OH225518   6.359   2.413   1.819  0.1418 -0.3687 -0.1383
 1368TIP3    H125519   6.394   2.396   1.907 -0.4980  0.4522  0.2899
 1368TIP3    H225520   6.327   2.327   1.789 -1.1006 -0.3733  1.1028
 1369TIP3   OH225521   1.765   3.484  14.125 -0.4466  0.1988  0.2045
 1369TIP3    H125522   1.839   3.427  14.144 -2.2063 -1.3650  3.2343
 1369TIP3    H225523   1.802   3.558  14.078  2.2585 -2.5840 -2.4942
 1370TIP3   OH225524   1.271   1.282   1.203 -1.1883  0.0196  0.1509
 1370TIP3    H125525   1.183   1.286   1.167 -1.5633 -0.4212  1.0189
 1370TIP3    H225526   1.263   1.234   1.285 -0.5984  2.2322  1.5970
 1371TIP3   OH225527   1.125   0.136  11.037 -0.5860  0.2988  0.2658
 1371TIP3    H125528   1.170   0.092  10.964 -0.2255 -1.0362  1.2463
 1371TIP3    H225529   1.138   0.229  11.021 -2.3739  0.1821 -2.5477
 1372TIP3   OH225530   2.014   0.242   4.340 -0.0926 -0.3472 -0.3658
 1372TIP3    H125531   2.019   0.256   4.434  2.4400  0.3793 -0.5212
 1372TIP3    H225532   1.934   0.192   4.327 -0.3312 -0.7642  2.2031
 1373TIP3   OH225533   6.701   6.435  12.950  0.1177 -0.3216  0.4512
 1373TIP3    H125534   6.607   6.435  12.934  0.4504 -1.2724 -1.7876
 1373TIP3    H225535   6.732   6.353  12.912  2.2680  1.3342 -1.6631
 1374TIP3   OH225536   3.182   6.250   5.235 -0.4453 -0.1815 -0.2031
 1374TIP3    H125537   3.096   6.218   5.209 -0.9115  0.8366  0.0187
 1374TIP3    H225538   3.185   6.238   5.330 -0.2138 -0.5105 -0.2511
 1375TIP3   OH225539   6.110   3.758   1.994  0.4448 -0.5275 -0.1053
 1375TIP3    H125540   6.166   3.779   2.068 -0.6515  0.3551  0.5070
 1375TIP3    H225541   6.040   3.705   2.032 -0.6361  0.7051 -0.2936
 1376TIP3   OH225542   4.524   4.529  14.569  0.1436 -0.2321  0.1024
 1376TIP3    H125543   4.467   4.452  14.576  1.3181 -1.2016 -0.5633
 1376TIP3    H225544   4.603   4.496  14.527  1.1455  1.1051  0.8657
 1377TIP3   OH225545   2.142   2.961   0.592  0.1991 -0.1578  0.4198
 1377TIP3    H125546   2.127   2.994   0.681  1.0289  1.0208  0.1431
 1377TIP3    H225547   2.123   2.868   0.597  0.5475 -0.1587  1.9039
 1378TIP3   OH225548   4.916   3.546  10.373 -0.1979 -0.2250 -0.1718
 1378TIP3    H125549   4.923   3.465  10.321  0.2242 -0.7334  0.6644
 1378TIP3    H225550   4.823   3.553  10.393 -0.1559 -0.8391  0.2681
 1379TIP3   OH225551   2.806   3.667  11.567 -0.7232  0.5213 -0.2001
 1379TIP3    H125552   2.835   3.669  11.475 -0.1419 -0.7530 -0.0612
 1379TIP3    H225553   2.715   3.697  11.563 -0.5727  0.9073 -1.1393
 1380TIP3   OH225554   3.904   4.757   1.955  0.1897  0.5167 -0.6479
 1380TIP3    H125555   3.826   4.702   1.960  0.6585 -0.0785  3.2396
 1380TIP3    H225556   3.874   4.839   1.917 -1.6998 -0.5889 -1.6769
 1381TIP3   OH225557   2.280   3.769  11.946  0.5922  0.4822 -0.0285
 1381TIP3    H125558   2.267   3.856  11.910  1.8173  0.9266  0.5433
 1381TIP3    H225559   2.370   3.746  11.921 -0.2591 -1.3361 -1.6293
 1382TIP3   OH225560   4.580   3.332   1.420 -0.3458 -0.9372 -0.4118
 1382TIP3    H125561   4.655   3.378   1.458 -1.0766 -0.5786  0.6286
 1382TIP3    H225562   4.619   3.272   1.356  0.9817 -1.8579  1.1760
 1383TIP3   OH225563   3.772   3.082  15.534  0.7596  0.1691 -0.1824
 1383TIP3    H125564   3.811   3.004  15.573 -0.4482  0.1251  1.0093
 1383TIP3    H225565   3.692   3.096  15.584  0.5504  1.7198 -0.9021
 1384TIP3   OH225566   0.674   4.863   4.099 -0.7084 -0.0017  0.3095
 1384TIP3    H125567   0.721   4.934   4.055  2.0737 -1.0506  1.3760
 1384TIP3    H225568   0.598   4.846   4.043 -1.5996  3.8464  0.1020
 1385TIP3   OH225569   6.224   1.076   0.713  0.1091 -0.4054  0.1366
 1385TIP3    H125570   6.242   1.159   0.757 -0.7004  0.1918 -0.6401
 1385TIP3    H225571   6.284   1.075   0.638 -1.4823  0.6029 -1.2211
 1386TIP3   OH225572   0.849   4.630   3.350  0.0827  0.0450  0.1789
 1386TIP3    H125573   0.926   4.621   3.293  0.3588 -0.7506  0.6655
 1386TIP3    H225574   0.860   4.562   3.416 -1.2553 -0.3518  0.0202
 1387TIP3   OH225575   3.246   2.665   4.940 -0.4785  0.0725 -0.1075
 1387TIP3    H125576   3.316   2.720   4.904  1.3783 -1.3920  1.0809
 1387TIP3    H225577   3.228   2.602   4.870  0.6857 -0.6281  0.1849
 1388TIP3   OH225578   2.143   0.977   1.723  0.1628  0.3458 -0.3656
 1388TIP3    H125579   2.222   0.951   1.772 -0.3489  0.3582  0.4790
 1388TIP3    H225580   2.124   1.066   1.753 -0.7687 -0.0369  0.2141
 1389TIP3   OH225581   6.595   6.515  14.521 -0.5097  0.5147  0.2731
 1389TIP3    H125582   6.567   6.428  14.491  1.0383 -0.0817  0.4880
 1389TIP3    H225583   6.678   6.530  14.476 -0.8208  1.9542  0.1411
 1390TIP3   OH225584   2.850   6.441   0.806  0.3213  0.9131 -0.5941
 1390TIP3    H125585   2.761   6.464   0.834 -1.3568 -3.5470 -1.4019
 1390TIP3    H225586   2.848   6.446   0.711  1.5122  2.2844 -0.5809
 1391TIP3   OH225587   0.713   5.057  12.416  0.2333 -0.2433  0.2600
 1391TIP3    H125588   0.704   4.984  12.355  3.2014  0.2366 -0.8812
 1391TIP3    H225589   0.659   5.126  12.378  0.0037 -0.7729 -0.4095
 1392TIP3   OH225590   1.282   6.228  14.371 -0.2167  0.1676 -0.0730
 1392TIP3    H125591   1.299   6.216  14.278  1.8139  0.4995  0.2041
 1392TIP3    H225592   1.350   6.290  14.400  1.8065 -2.8775  2.3828
 1393TIP3   OH225593   5.158   0.432   6.171  0.3156 -0.2732 -0.0075
 1393TIP3    H125594   5.149   0.340   6.195 -2.1773  0.4120  2.2731
 1393TIP3    H225595   5.213   0.470   6.239 -0.5022  0.2803  0.3721
 1394TIP3   OH225596   6.773   4.195   3.334  0.3288 -0.5154 -0.2518
 1394TIP3    H125597   6.748   4.221   3.246  0.4311 -1.0545 -0.4422
 1394TIP3    H225598   6.823   4.114   3.322  1.3861  0.0464  0.1936
 1395TIP3   OH225599   4.292   5.208  16.826  0.0288  0.2290  0.5283
 1395TIP3    H125600   4.333   5.191  16.910 -0.2497 -0.2567  0.5724
 1395TIP3    H225601   4.201   5.230  16.847  0.2414  1.2471  0.4296
 1396TIP3   OH225602   6.502   2.080   4.149 -0.4296 -0.3104  0.1088
 1396TIP3    H125603   6.465   2.139   4.082  0.3265  0.7574  0.5990
 1396TIP3    H225604   6.583   2.048   4.110  0.2059  0.6115  0.6391
 1397TIP3   OH225605   6.293   0.110  17.016 -0.1997  0.1217 -0.3118
 1397TIP3    H125606   6.238   0.125  17.093  0.0858 -1.6785  0.3006
 1397TIP3    H225607   6.238   0.060  16.957 -0.3305  1.2824 -1.1991
 1398TIP3   OH225608   5.197   3.765   4.373  0.0783  0.3730  0.5392
 1398TIP3    H125609   5.206   3.776   4.467 -0.5919  2.7515  0.3747
 1398TIP3    H225610   5.286   3.752   4.341  0.8159  3.4751  1.1063
 1399TIP3   OH225611   1.941   3.384   5.507 -0.0066 -0.0212  0.1517
 1399TIP3    H125612   1.925   3.332   5.585 -1.1499  1.1480  0.7299
 1399TIP3    H225613   1.979   3.466   5.539 -0.2238  0.3562 -0.5221
 1400TIP3   OH225614   2.744   2.099   5.565  0.1405 -0.1746 -0.6113
 1400TIP3    H125615   2.814   2.050   5.607  1.7072  0.6785 -2.0861
 1400TIP3    H225616   2.759   2.190   5.590 -0.9444 -0.0663 -0.2929
 1401TIP3   OH225617   4.622   4.676  16.869 -0.1095 -1.0544 -0.5188
 1401TIP3    H125618   4.679   4.750  16.853 -1.4929  0.9290  2.6869
 1401TIP3    H225619   4.579   4.659  16.785  2.3171 -0.1605 -2.0357
 1402TIP3   OH225620   5.641   4.043  16.253 -0.1575  0.6079  0.2892
 1402TIP3    H125621   5.736   4.050  16.240 -0.3057 -1.1975 -2.5757
 1402TIP3    H225622   5.612   4.134  16.260  1.5003  1.4049 -1.8344
 1403TIP3   OH225623   6.495   4.559   4.422 -0.2403 -0.3119 -0.2850
 1403TIP3    H125624   6.511   4.599   4.507  2.0539  0.6889 -1.1023
 1403TIP3    H225625   6.449   4.478   4.442 -0.1204  0.0950  1.8688
 1404TIP3   OH225626   6.449   5.296   2.370  0.0139  0.2554 -0.1200
 1404TIP3    H125627   6.469   5.327   2.281  0.8129 -0.9551 -0.3946
 1404TIP3    H225628   6.460   5.201   2.365 -1.2026  0.0341  0.9688
 1405TIP3   OH225629   0.914   5.059   5.841  0.6350  0.5306 -0.1896
 1405TIP3    H125630   0.898   5.008   5.920  0.7594  0.4779 -0.1997
 1405TIP3    H225631   0.957   5.139   5.872 -1.7676  1.7977  0.1459
 1406TIP3   OH225632   3.063   0.961  15.932 -0.3885 -0.7214  0.5219
 1406TIP3    H125633   3.083   1.053  15.949 -1.3275 -0.3492 -0.3209
 1406TIP3    H225634   3.114   0.939  15.854  1.9680 -1.7303  2.2076
 1407TIP3   OH225635   2.344   0.199   5.011  0.4159  0.4913  0.3570
 1407TIP3    H125636   2.278   0.227   5.074  0.5427  3.9806 -0.8162
 1407TIP3    H225637   2.415   0.164   5.064 -1.3137 -1.0694  1.7826
 1408TIP3   OH225638   3.146   5.526   3.207  0.4067 -0.4691  0.3708
 1408TIP3    H125639   3.185   5.569   3.283  1.3013 -0.4409 -0.0973
 1408TIP3    H225640   3.214   5.527   3.140 -0.2372 -0.8385 -0.3126
 1409TIP3   OH225641   0.940   3.517  14.713  0.0879 -0.0992  0.7979
 1409TIP3    H125642   0.850   3.493  14.691  0.8120 -1.7855 -0.5462
 1409TIP3    H225643   0.990   3.500  14.634  1.6492  0.6231  1.5712
 1410TIP3   OH225644   2.720   0.367  13.106 -0.1710 -0.1085 -0.4679
 1410TIP3    H125645   2.756   0.452  13.079 -0.5339 -0.0894 -0.8986
 1410TIP3    H225646   2.797   0.312  13.119  0.1918  0.8026  1.6741
 1411TIP3   OH225647   2.503   0.844   5.424  0.0260 -0.4700 -0.1258
 1411TIP3    H125648   2.556   0.798   5.489  0.7009 -0.1945 -0.4755
 1411TIP3    H225649   2.517   0.937   5.443 -0.3181 -0.3913 -0.2395
 1412TIP3   OH225650   1.193   6.186   6.645  0.3836 -0.0182  0.2119
 1412TIP3    H125651   1.254   6.254   6.619 -1.0439  2.2970  2.4023
 1412TIP3    H225652   1.108   6.216   6.613 -0.0997 -1.4731  0.0564
 1413TIP3   OH225653   4.024   0.312   2.477  0.0376 -0.1036  0.0435
 1413TIP3    H125654   3.974   0.363   2.413 -1.6334 -1.4863  0.1883
 1413TIP3    H225655   3.995   0.344   2.562  0.5988  0.1787  0.1356
 1414TIP3   OH225656   0.747   0.329  15.478 -0.0495 -0.3773  0.2099
 1414TIP3    H125657   0.717   0.420  15.475 -0.2537 -0.3705  1.8598
 1414TIP3    H225658   0.843   0.335  15.484 -0.1542 -0.1445  2.7774
 1415TIP3   OH225659   2.080   1.601   1.523 -0.5093 -0.2997 -0.7134
 1415TIP3    H125660   2.003   1.636   1.569 -1.3816 -0.7675 -1.7891
 1415TIP3    H225661   2.090   1.657   1.447  1.4263  0.9768  0.3862
 1416TIP3   OH225662   5.057   3.166  12.782 -0.3225  0.6269  0.0461
 1416TIP3    H125663   5.081   3.258  12.778 -0.3860  0.6068 -1.4044
 1416TIP3    H225664   5.136   3.119  12.757 -0.8257  0.3991 -1.1912
 1417TIP3   OH225665   1.039   1.155  11.522 -0.1094  0.1436  0.3635
 1417TIP3    H125666   1.111   1.127  11.464 -1.1286 -1.1921 -0.3143
 1417TIP3    H225667   1.027   1.248  11.502  2.4252  0.8385  1.6172
 1418TIP3   OH225668   6.597   5.217   1.390  0.3628  0.0334  0.4920
 1418TIP3    H125669   6.650   5.185   1.316  1.8712  0.1303  1.4891
 1418TIP3    H225670   6.536   5.146   1.409 -0.4687  0.2389 -1.2016
 1419TIP3   OH225671   6.580   3.783   0.983  0.4268 -0.2686  0.6554
 1419TIP3    H125672   6.642   3.756   0.916 -0.2265 -0.3812  0.0918
 1419TIP3    H225673   6.522   3.708   0.994 -0.2600  0.2228  0.4190
 1420TIP3   OH225674   3.320   3.266   1.937 -0.0567  0.3548 -0.7049
 1420TIP3    H125675   3.250   3.330   1.925 -0.6716  0.4329  2.3547
 1420TIP3    H225676   3.358   3.288   2.023  0.1754 -2.8949  0.1675
 1421TIP3   OH225677   0.859   3.825  13.022  0.3447 -0.1843  0.2234
 1421TIP3    H125678   0.816   3.744  13.048 -1.6590  1.2133  1.6247
 1421TIP3    H225679   0.893   3.861  13.103  0.0818  0.9601 -0.1516
 1422TIP3   OH225680   0.020   5.092  15.193 -0.5363  0.4349  0.6820
 1422TIP3    H125681   0.064   5.022  15.146 -0.2522 -0.4733  2.2227
 1422TIP3    H225682   0.084   5.163  15.198 -1.1440  1.2760 -1.7216
 1423TIP3   OH225683   3.019   0.580   1.980 -0.6481  0.0509 -0.3250
 1423TIP3    H125684   3.102   0.539   2.004 -0.9105  0.3931  1.2391
 1423TIP3    H225685   3.040   0.631   1.902  0.0769 -1.6239 -1.2790
 1424TIP3   OH225686   1.892   1.487   1.771  0.3823 -0.4910  0.0126
 1424TIP3    H125687   1.949   1.552   1.812 -2.1789  0.2892  2.6560
 1424TIP3    H225688   1.862   1.528   1.690 -1.9112  2.2181  2.0490
 1425TIP3   OH225689   5.350   5.078  15.979 -0.2096 -0.0748 -0.5717
 1425TIP3    H125690   5.430   5.043  15.940  0.4120  2.1829 -1.4706
 1425TIP3    H225691   5.363   5.066  16.073  0.7206 -0.6480 -0.7526
 1426TIP3   OH225692   5.983   1.538  14.083  0.5426 -0.4019 -0.1880
 1426TIP3    H125693   5.986   1.599  14.157 -0.2881  1.1909 -1.4034
 1426TIP3    H225694   5.890   1.520  14.070  0.7421 -1.4348 -0.2633
 1427TIP3   OH225695   1.866   5.056   3.500  0.4428  0.4564  0.5567
 1427TIP3    H125696   1.881   5.058   3.594  2.2244 -1.5400  0.4090
 1427TIP3    H225697   1.912   5.132   3.466  1.1824  0.2838  1.1611
 1428TIP3   OH225698   2.279   6.430  14.268  0.3069 -0.2281  0.1656
 1428TIP3    H125699   2.273   6.459  14.359 -0.3749  0.0818  0.0315
 1428TIP3    H225700   2.345   6.361  14.269  1.9388  1.2577  0.5184
 1429TIP3   OH225701   1.734   2.256   5.399  0.1357  0.3810  0.2230
 1429TIP3    H125702   1.668   2.325   5.391 -0.8006 -0.3074  1.5134
 1429TIP3    H225703   1.765   2.262   5.490  0.1797 -0.7463  0.3011
 1430TIP3   OH225704   0.666   3.397   1.561  0.1922  0.1423  0.4763
 1430TIP3    H125705   0.678   3.475   1.506 -1.1723  0.8520  1.1450
 1430TIP3    H225706   0.658   3.325   1.499  1.0179  0.5825 -0.1679
 1431TIP3   OH225707   3.508   6.208  14.838 -0.0673 -0.4576  0.3325
 1431TIP3    H125708   3.523   6.159  14.758  0.3505 -0.0120  0.1291
 1431TIP3    H225709   3.582   6.186  14.894  0.0769 -0.1342  0.2733
 1432TIP3   OH225710   5.214   3.281  16.412  0.3625  0.2086 -0.0652
 1432TIP3    H125711   5.220   3.321  16.498  0.9591 -0.9945  0.4644
 1432TIP3    H225712   5.170   3.347  16.358  0.2487  1.0853  1.0747
 1433TIP3   OH225713   3.558   0.440  10.569 -0.3961  0.5973 -0.0939
 1433TIP3    H125714   3.504   0.472  10.641 -1.1767 -0.5071 -0.1675
 1433TIP3    H225715   3.496   0.424  10.498 -0.0544 -1.0443 -0.0594
 1434TIP3   OH225716   0.209   5.731  13.788 -0.3995  0.3524 -0.5786
 1434TIP3    H125717   0.141   5.692  13.732  0.7541 -1.3120 -0.8842
 1434TIP3    H225718   0.290   5.690  13.758  0.9031  2.9255 -0.8019
 1435TIP3   OH225719   2.350   3.652   1.151  0.1904 -0.2202  0.5526
 1435TIP3    H125720   2.400   3.711   1.208 -0.8599  0.3143  0.9617
 1435TIP3    H225721   2.386   3.565   1.169 -0.4215 -0.1284  2.4206
 1436TIP3   OH225722   0.204   3.511  17.029 -0.1468 -0.0090 -0.1649
 1436TIP3    H125723   0.232   3.420  17.021 -0.9484 -0.1441 -2.0566
 1436TIP3    H225724   0.238   3.554  16.950 -0.5088  1.1213  0.2680
 1437TIP3   OH225725   6.073   3.445   1.346  0.3557 -0.2355  0.1598
 1437TIP3    H125726   6.118   3.365   1.318 -1.0038 -1.5624  1.5529
 1437TIP3    H225727   5.980   3.423   1.340 -0.0988  1.7230 -0.6656
 1438TIP3   OH225728   0.220   6.538   2.799 -0.0116  0.4646 -0.3554
 1438TIP3    H125729   0.267   6.476   2.856 -1.2174  0.1310  0.3023
 1438TIP3    H225730   0.284   6.607   2.781 -0.0425  1.4968  2.8419
 1439TIP3   OH225731   4.405   0.750  12.646  0.0122  0.1616 -0.1599
 1439TIP3    H125732   4.411   0.736  12.552  2.1283 -0.0320 -0.0354
 1439TIP3    H225733   4.389   0.663  12.683  0.3955  0.0435 -0.2667
 1440TIP3   OH225734   1.661   1.080  15.665 -0.0412 -0.4660  0.1321
 1440TIP3    H125735   1.688   1.006  15.611  1.6921 -1.0814  1.7230
 1440TIP3    H225736   1.690   1.157  15.616 -2.5547 -0.7044 -1.9113
 1441TIP3   OH225737   0.502   5.803  12.104 -0.1295  0.2280 -0.1972
 1441TIP3    H125738   0.453   5.776  12.182 -0.2971 -0.6564 -0.5925
 1441TIP3    H225739   0.594   5.795  12.129 -0.1823 -0.1023 -0.1064
 1442TIP3   OH225740   2.088   2.947  15.732 -0.4930 -0.7711 -0.1698
 1442TIP3    H125741   2.001   2.942  15.694 -0.2433  1.0037 -1.0527
 1442TIP3    H225742   2.092   3.033  15.774  0.4785 -1.2477  0.7868
 1443TIP3   OH225743   0.567   1.660  14.600  0.5795 -0.1410 -0.6781
 1443TIP3    H125744   0.573   1.590  14.536  1.0497 -0.3466 -0.4147
 1443TIP3    H225745   0.546   1.738  14.549 -2.4433 -0.8790 -0.7242
 1444TIP3   OH225746   3.896   4.405   2.000 -0.4264 -0.2590 -0.4238
 1444TIP3    H125747   3.816   4.448   2.031  0.4257  0.8977  0.2099
 1444TIP3    H225748   3.964   4.433   2.060  0.9676  0.7918 -2.3551
 1445TIP3   OH225749   5.215   0.821  13.834  0.1671 -0.0905 -0.1242
 1445TIP3    H125750   5.192   0.824  13.742 -0.8436  3.3421  0.1036
 1445TIP3    H225751   5.132   0.811  13.880  0.4341  0.2232  0.4483
 1446TIP3   OH225752   6.621   3.716   2.640 -0.3566 -0.1363 -0.0811
 1446TIP3    H125753   6.671   3.772   2.581 -2.0684  1.9783  0.3664
 1446TIP3    H225754   6.530   3.726   2.612 -0.8931 -1.4684  1.0509
 1447TIP3   OH225755   2.584   3.386   0.811 -0.0624  0.1139 -0.0576
 1447TIP3    H125756   2.511   3.353   0.863 -0.7444  0.2532 -0.9110
 1447TIP3    H225757   2.552   3.468   0.774  0.5870  0.2553 -0.3169
 1448TIP3   OH225758   1.440   2.631  15.034  0.1789  0.0010 -0.3767
 1448TIP3    H125759   1.475   2.674  15.112 -1.0053 -1.4212  0.9899
 1448TIP3    H225760   1.505   2.562  15.014  1.5109  1.6052 -1.9120
 1449TIP3   OH225761   6.054   2.013  12.581  0.1683 -0.6119 -0.8866
 1449TIP3    H125762   6.126   1.950  12.579  0.3934 -0.3309 -2.0114
 1449TIP3    H225763   6.070   2.064  12.661  2.0268  0.3639 -1.8210
 1450TIP3   OH225764   3.302   0.964   3.171 -0.0551 -0.4661 -0.3996
 1450TIP3    H125765   3.313   0.873   3.146  0.8720 -0.0162 -1.7542
 1450TIP3    H225766   3.390   0.992   3.197 -0.6940 -0.4897  2.0701
 1451TIP3   OH225767   0.165   2.561  11.074  0.5110  0.4099  0.2907
 1451TIP3    H125768   0.151   2.653  11.095  1.4091  0.6927 -0.3146
 1451TIP3    H225769   0.182   2.559  10.980 -2.1164 -0.6864 -0.2719
 1452TIP3   OH225770   3.978   1.110   1.428 -0.0805  0.5078 -0.1334
 1452TIP3    H125771   4.025   1.037   1.467  0.8876  0.4385 -1.3663
 1452TIP3    H225772   3.984   1.095   1.334 -0.6635  1.6834 -0.3844
 1453TIP3   OH225773   5.884   1.827  13.938  0.4273 -0.2049  0.6781
 1453TIP3    H125774   5.974   1.801  13.954  0.7942  1.3897  1.3394
 1453TIP3    H225775   5.843   1.827  14.024 -0.8471 -2.9549  0.1899
 1454TIP3   OH225776   5.943   4.356  13.096  0.3737 -0.3377  0.5076
 1454TIP3    H125777   5.924   4.419  13.166  0.5117 -0.8474  1.0066
 1454TIP3    H225778   5.998   4.405  13.035 -0.8933  0.5461  0.0369
 1455TIP3   OH225779   3.791   5.047  14.588 -0.2491  0.6447  0.0262
 1455TIP3    H125780   3.743   5.079  14.665 -0.4174 -0.5917  0.4556
 1455TIP3    H225781   3.784   4.952  14.593  0.1554  0.5274 -1.2668
 1456TIP3   OH225782   6.674   0.501  15.631 -1.0298  0.9834 -0.0941
 1456TIP3    H125783   6.675   0.584  15.678  2.5617 -0.2423  2.5009
 1456TIP3    H225784   6.719   0.520  15.549 -1.9703  1.9714 -0.3959
 1457TIP3   OH225785   5.304   4.071   0.253  0.6780  0.4957 -0.2232
 1457TIP3    H125786   5.362   4.129   0.302 -0.0535  0.6560  0.4699
 1457TIP3    H225787   5.363   4.011   0.207  1.3866  0.6782  0.4296
 1458TIP3   OH225788   5.281   2.608  11.966  0.1208 -0.2287 -0.0832
 1458TIP3    H125789   5.264   2.675  11.900  0.5267  0.4649  0.5035
 1458TIP3    H225790   5.298   2.529  11.915 -1.2385 -0.1120 -0.7658
 1459TIP3   OH225791   0.193   1.317   3.295  0.4937  0.0213 -0.3496
 1459TIP3    H125792   0.161   1.236   3.257  0.8858 -0.0925 -0.4424
 1459TIP3    H225793   0.239   1.361   3.223 -1.4546  1.2950 -0.8867
 1460TIP3   OH225794   1.373   6.761   5.632  0.6933  0.0940 -0.3694
 1460TIP3    H125795   1.446   6.801   5.586  2.2994 -0.6197  1.4092
 1460TIP3    H225796   1.343   6.691   5.574  1.2763  0.5287 -1.2155
 1461TIP3   OH225797   4.805   4.055  12.167  0.5723 -0.3734  0.3142
 1461TIP3    H125798   4.761   3.987  12.219 -0.2712 -0.2061 -0.1585
 1461TIP3    H225799   4.803   4.021  12.078 -1.1722  0.8733 -0.1820
 1462TIP3   OH225800   0.029   0.611   6.185 -0.0110  0.0281  0.3293
 1462TIP3    H125801   0.090   0.684   6.185 -0.4022  0.3792 -0.6866
 1462TIP3    H225802  -0.057   0.651   6.199 -0.3211 -0.1264 -1.0035
 1463TIP3   OH225803   0.798   2.639   0.743  0.1878  0.7780  0.4892
 1463TIP3    H125804   0.844   2.686   0.673  0.7102 -0.0152  0.2912
 1463TIP3    H225805   0.868   2.605   0.799 -0.2128  0.9178  1.0862
 1464TIP3   OH225806   1.569   0.789   3.828  0.2572  0.2175 -0.1359
 1464TIP3    H125807   1.516   0.766   3.751  1.9277  1.8864 -1.9037
 1464TIP3    H225808   1.659   0.788   3.796  1.1903 -0.7221  2.2920
 1465TIP3   OH225809   0.622   3.087   2.303 -0.0146  0.1775  0.4082
 1465TIP3    H125810   0.619   3.173   2.262  1.9601 -0.1625 -0.5644
 1465TIP3    H225811   0.562   3.093   2.377 -0.5170  2.1221 -0.1203
 1466TIP3   OH225812   0.345   1.124  12.946 -0.3076 -0.1503 -0.3073
 1466TIP3    H125813   0.353   1.212  12.910 -0.3045 -0.0796 -0.1379
 1466TIP3    H225814   0.410   1.122  13.017 -0.4131 -0.2386 -0.2139
 1467TIP3   OH225815   6.488   1.434  11.172  0.2026 -0.3197 -0.6945
 1467TIP3    H125816   6.502   1.524  11.203  1.3381 -0.9880  0.8437
 1467TIP3    H225817   6.423   1.443  11.102 -1.0395  1.5242  0.5844
 1468TIP3   OH225818   4.480   2.029  16.315 -0.2582 -0.1163 -0.5279
 1468TIP3    H125819   4.496   1.975  16.393  1.0448  1.8959  0.7023
 1468TIP3    H225820   4.396   1.999  16.282 -0.2338 -1.9340  0.8746
 1469TIP3   OH225821   5.626   1.289   2.333  0.7679 -0.6985 -0.4681
 1469TIP3    H125822   5.677   1.280   2.414 -1.5448  0.3663  1.2414
 1469TIP3    H225823   5.640   1.207   2.287  3.5806 -0.6454  0.0923
 1470TIP3   OH225824   0.204   6.268  16.882  0.0852  0.8327 -0.8937
 1470TIP3    H125825   0.155   6.335  16.834 -0.2937  0.7270 -0.6576
 1470TIP3    H225826   0.252   6.220  16.814 -0.6135  0.5505 -1.1957
 1471TIP3   OH225827   2.584   6.302  15.721 -0.6200  0.7630 -0.1887
 1471TIP3    H125828   2.595   6.381  15.668 -0.3164  0.9993  0.2163
 1471TIP3    H225829   2.653   6.243  15.692 -0.9810  0.5571 -0.6439
 1472TIP3   OH225830   2.876   3.924   4.954  0.1165 -0.6681  0.4865
 1472TIP3    H125831   2.934   3.872   5.009  2.2859  0.6786 -0.3948
 1472TIP3    H225832   2.892   4.015   4.980 -0.8797 -0.1963 -0.4568
 1473TIP3   OH225833   6.635   2.654  15.693 -0.2230  0.1421 -0.3866
 1473TIP3    H125834   6.680   2.738  15.680  1.1558 -0.8100 -2.2582
 1473TIP3    H225835   6.692   2.605  15.752  1.2988 -1.0405 -2.7061
 1474TIP3   OH225836   5.371   5.008   6.151 -0.1562  0.1153 -0.6181
 1474TIP3    H125837   5.331   4.983   6.234 -0.6160  2.4616 -0.0487
 1474TIP3    H225838   5.462   4.978   6.158 -0.4465 -0.5928  0.3033
 1475TIP3   OH225839   0.983   4.189  14.498  0.2417  0.5831 -0.0703
 1475TIP3    H125840   1.067   4.144  14.491  0.0191 -0.0032  0.8218
 1475TIP3    H225841   0.999   4.261  14.558 -0.3815 -0.8439  1.9036
 1476TIP3   OH225842   0.523   4.390  16.306 -0.1932  0.3722 -0.1288
 1476TIP3    H125843   0.528   4.300  16.274  1.6886  0.1300  0.7395
 1476TIP3    H225844   0.477   4.438  16.236 -0.8939 -1.1687 -0.7614
 1477TIP3   OH225845   6.705   0.786  17.131  0.2820 -0.1051  0.0060
 1477TIP3    H125846   6.712   0.846  17.205  1.3270  0.4098 -0.4780
 1477TIP3    H225847   6.712   0.699  17.170 -1.9079  0.0159  0.7905
 1478TIP3   OH225848   5.677   1.171   3.133 -0.2209  0.4296  0.5563
 1478TIP3    H125849   5.653   1.239   3.070  0.7215 -1.0473 -1.4794
 1478TIP3    H225850   5.622   1.096   3.110 -0.0513 -0.0645  1.6846
 1479TIP3   OH225851   5.833   5.600  12.014 -0.8604 -0.0936 -0.0189
 1479TIP3    H125852   5.823   5.527  11.953  0.3319  0.4288 -0.8738
 1479TIP3    H225853   5.914   5.644  11.987 -2.3473  2.5328 -0.6326
 1480TIP3   OH225854   0.172   3.327  16.742  0.0172 -0.0241  0.2890
 1480TIP3    H125855   0.218   3.353  16.662 -1.0733  2.4244  0.3795
 1480TIP3    H225856   0.229   3.260  16.781  1.2278 -0.3339 -1.8224
 1481TIP3   OH225857   3.696   4.797  16.470 -0.5382 -0.3817 -0.1574
 1481TIP3    H125858   3.699   4.774  16.562  1.5339 -0.1296 -0.1220
 1481TIP3    H225859   3.725   4.717  16.424 -1.5440 -0.5052 -0.6023
 1482TIP3   OH225860   6.775   1.084   4.988  0.0689  0.0908  0.8331
 1482TIP3    H125861   6.732   1.069   4.904  0.4593  0.7561  0.5120
 1482TIP3    H225862   6.782   0.997   5.027  0.8732 -0.3649 -0.3034
 1483TIP3   OH225863   5.208   5.670   3.871 -0.1805  0.0419 -0.1685
 1483TIP3    H125864   5.283   5.671   3.930 -0.0092 -0.2292 -0.3831
 1483TIP3    H225865   5.229   5.733   3.803 -0.4816  0.5327  0.1818
 1484TIP3   OH225866   2.915   2.677   1.071  0.4593 -0.0524  0.3942
 1484TIP3    H125867   2.944   2.738   1.002  1.8398 -1.8675 -0.7293
 1484TIP3    H225868   2.826   2.653   1.045  0.6891 -0.1326 -0.3528
 1485TIP3   OH225869   4.206   2.474  13.694  0.2401 -0.4952  0.1103
 1485TIP3    H125870   4.113   2.498  13.690  1.0038  2.9066 -0.9574
 1485TIP3    H225871   4.222   2.428  13.611 -0.1585  0.5621 -0.5842
 1486TIP3   OH225872   4.379   0.390   1.044 -0.4129 -0.0705 -0.5521
 1486TIP3    H125873   4.315   0.331   1.082 -0.3028 -0.1997 -0.5656
 1486TIP3    H225874   4.458   0.377   1.096 -0.2569 -0.2623 -0.8323
 1487TIP3   OH225875   0.657   3.996  12.918 -0.1255  0.0141 -0.2120
 1487TIP3    H125876   0.721   3.936  12.956  0.2854  0.5085 -0.1146
 1487TIP3    H225877   0.573   3.962  12.946  0.1214 -0.3295  0.1237
 1488TIP3   OH225878   1.676   3.140   0.177  0.1301 -0.9333  0.1431
 1488TIP3    H125879   1.620   3.066   0.200  0.2906 -1.6826 -1.7010
 1488TIP3    H225880   1.763   3.101   0.165  0.4524 -0.2550  0.2295
 1489TIP3   OH225881   0.668   0.887   1.209 -0.3579  0.0402  0.4406
 1489TIP3    H125882   0.704   0.894   1.121  0.2210 -0.7661  0.6023
 1489TIP3    H225883   0.576   0.863   1.195  0.3429 -2.8466  0.0221
 1490TIP3   OH225884   5.616   6.286  14.769 -0.8860 -0.3800  1.0065
 1490TIP3    H125885   5.576   6.302  14.854 -0.3937  0.4797  1.0866
 1490TIP3    H225886   5.547   6.308  14.706 -0.6225  0.8861  1.1465
 1491TIP3   OH225887   6.429   5.837  14.658 -0.0316 -0.3977  0.3372
 1491TIP3    H125888   6.485   5.884  14.596 -1.9861  0.0955 -1.1531
 1491TIP3    H225889   6.451   5.745  14.644  1.1178 -0.1678  0.5234
 1492TIP3   OH225890   1.448   3.314   2.522 -0.0582 -0.3292 -0.2936
 1492TIP3    H125891   1.404   3.273   2.597 -1.4150  1.7851  0.1657
 1492TIP3    H225892   1.498   3.386   2.560  0.9760 -0.5403 -1.2145
 1493TIP3   OH225893   1.272   5.848   6.470  0.0336 -0.4328  0.4255
 1493TIP3    H125894   1.357   5.867   6.431 -0.6826  0.2642 -0.8878
 1493TIP3    H225895   1.282   5.869   6.563  1.1282  0.1843  0.1795
 1494TIP3   OH225896   3.402   5.391   1.687  0.0725  0.4294 -0.1553
 1494TIP3    H125897   3.341   5.457   1.720 -0.5285 -0.2099  0.0635
 1494TIP3    H225898   3.426   5.340   1.765  0.6659  0.4988 -0.2913
 1495TIP3   OH225899   5.364   3.538  16.469 -0.1510  0.6445 -0.3837
 1495TIP3    H125900   5.317   3.603  16.521 -1.4634 -0.6873  0.1918
 1495TIP3    H225901   5.326   3.544  16.382 -1.0136 -0.0064 -0.0726
 1496TIP3   OH225902   3.421   6.370   0.270 -0.3689  0.0173 -0.5103
 1496TIP3    H125903   3.411   6.300   0.206  0.7541 -0.7213  0.0856
 1496TIP3    H225904   3.503   6.350   0.315 -0.7606  0.9115  0.6675
 1497TIP3   OH225905   4.447   5.566  13.252  0.2019 -0.2429 -0.3742
 1497TIP3    H125906   4.477   5.479  13.276 -0.6011 -0.5488 -0.4652
 1497TIP3    H225907   4.389   5.592  13.324 -2.9609 -1.5310 -2.2486
 1498TIP3   OH225908   5.622   5.047   3.635  0.1754 -0.1289 -0.7000
 1498TIP3    H125909   5.651   4.991   3.708 -2.2811  0.4589  0.8218
 1498TIP3    H225910   5.530   5.024   3.622  0.0973  1.0081 -2.5314
 1499TIP3   OH225911   6.627   0.246   4.298  0.2081  0.0916 -0.7051
 1499TIP3    H125912   6.661   0.234   4.209  1.8909 -0.2503 -0.0437
 1499TIP3    H225913   6.701   0.277   4.349 -0.5037 -0.5182  0.7712
 1500TIP3   OH225914   6.216   2.690  13.598 -0.2308 -0.1273  0.4328
 1500TIP3    H125915   6.251   2.616  13.648 -0.2754 -1.6713 -1.6742
 1500TIP3    H225916   6.132   2.710  13.639  0.3438 -0.4402  1.7853
 1501TIP3   OH225917   1.347   0.210  13.381  0.2685 -0.0693 -0.1073
 1501TIP3    H125918   1.395   0.292  13.399  0.8346  0.1726 -2.3889
 1501TIP3    H225919   1.255   0.236  13.381  0.3047  0.1170  1.2169
 1502TIP3   OH225920   5.207   3.711   3.552 -0.4392  0.2364  0.1044
 1502TIP3    H125921   5.212   3.696   3.646 -2.1325 -1.1211  0.0208
 1502TIP3    H225922   5.159   3.793   3.543  0.7893  1.0180  0.4072
 1503TIP3   OH225923   0.158   5.916  14.297  0.0335  0.0468  0.0249
 1503TIP3    H125924   0.223   5.847  14.310 -2.0420 -2.2512 -0.8807
 1503TIP3    H225925   0.149   5.923  14.202  0.0515  1.4683  0.1088
 1504TIP3   OH225926   3.788   2.154   0.604  0.2607 -0.2823  0.2653
 1504TIP3    H125927   3.880   2.133   0.618  0.4566  0.2146 -0.2863
 1504TIP3    H225928   3.745   2.125   0.685  0.8875 -0.5517  0.5086
 1505TIP3   OH225929   6.742   6.608   6.483  0.2238  0.0615 -0.2752
 1505TIP3    H125930   6.823   6.636   6.526 -0.1642  1.4977 -0.4347
 1505TIP3    H225931   6.732   6.670   6.410 -1.9143  1.0141  0.7543
 1506TIP3   OH225932   4.226   5.136  11.566 -0.2050  0.2907  0.0262
 1506TIP3    H125933   4.237   5.157  11.659 -0.6267  3.8809 -0.5918
 1506TIP3    H225934   4.136   5.162  11.546  0.2225  0.6552 -1.5775
 1507TIP3   OH225935   0.883   5.118   1.554 -0.0737 -0.5528 -0.0929
 1507TIP3    H125936   0.817   5.056   1.587  1.4472 -2.7180 -0.8707
 1507TIP3    H225937   0.860   5.130   1.462 -0.1672 -0.2490 -0.0281
 1508TIP3   OH225938   5.006   1.401  11.806  0.3586  0.2290 -0.5422
 1508TIP3    H125939   5.004   1.347  11.727 -1.2304  0.7427 -0.8896
 1508TIP3    H225940   5.071   1.359  11.862 -1.8679 -3.0196 -0.1284
 1509TIP3   OH225941   3.243   6.654   6.202  0.1611  0.0392  0.0899
 1509TIP3    H125942   3.313   6.636   6.264  0.0995 -0.5780 -0.0146
 1509TIP3    H225943   3.184   6.713   6.249  0.3503 -0.0590  0.4506
 1510TIP3   OH225944   0.615   2.882  12.018  0.4096 -0.1458  0.3453
 1510TIP3    H125945   0.656   2.802  11.984 -1.0573 -0.8794  0.2507
 1510TIP3    H225946   0.528   2.883  11.981  0.0082  0.9401  1.2335
 1511TIP3   OH225947   0.254   2.748  16.903  0.1820  0.2551 -0.4495
 1511TIP3    H125948   0.308   2.785  16.833 -0.7715 -0.5753 -1.6844
 1511TIP3    H225949   0.312   2.686  16.947  0.9455  1.1429 -0.1604
 1512TIP3   OH225950   5.633   1.056   0.245 -0.6121  0.0867  0.2039
 1512TIP3    H125951   5.678   0.975   0.266 -3.5607 -1.4568  1.0811
 1512TIP3    H225952   5.653   1.114   0.318  0.2694 -0.3621  0.3335
 1513TIP3   OH225953   5.340   4.297  12.566 -0.0758  0.5891 -0.4123
 1513TIP3    H125954   5.268   4.235  12.578  0.7617 -0.7943 -2.0433
 1513TIP3    H225955   5.306   4.380  12.601 -1.9522 -0.3177  0.0738
 1514TIP3   OH225956   2.308   0.086  12.185  0.0516  0.0296  0.1764
 1514TIP3    H125957   2.379   0.132  12.231 -0.6331 -1.0517  2.4844
 1514TIP3    H225958   2.259   0.042  12.255 -1.5206 -1.1568 -1.5722
 1515TIP3   OH225959   5.716   2.063  15.479  0.4188  0.4361  0.7551
 1515TIP3    H125960   5.713   2.074  15.384 -1.6324 -0.4089  0.6736
 1515TIP3    H225961   5.760   2.142  15.511 -0.5181  1.6382 -0.7877
 1516TIP3   OH225962   0.104   0.908   5.663 -0.0836  0.0688 -0.5380
 1516TIP3    H125963   0.160   0.870   5.596  0.5262  1.1154 -0.6229
 1516TIP3    H225964   0.147   0.885   5.746 -0.3160 -0.3688 -0.5306
 1517TIP3   OH225965   0.126   5.036  13.899 -0.2556  0.6657  0.0838
 1517TIP3    H125966   0.166   4.961  13.854  1.0901  0.2319  1.8889
 1517TIP3    H225967   0.189   5.107  13.886  0.2619  0.4767  1.3862
 1518TIP3   OH225968   5.512   5.774   3.666  0.7551 -0.2185 -0.0189
 1518TIP3    H125969   5.573   5.712   3.705  0.8367  0.1870  0.5221
 1518TIP3    H225970   5.516   5.851   3.724  0.4983  0.2036 -0.5499
 1519TIP3   OH225971   3.058   0.238  13.379  0.0189  0.0719  0.1412
 1519TIP3    H125972   3.153   0.231  13.390 -0.0686  0.8803  1.6664
 1519TIP3    H225973   3.046   0.250  13.285  1.4530  0.2229 -0.0461
 1520TIP3   OH225974   0.756   6.342   1.846  0.0939  0.4230  0.3639
 1520TIP3    H125975   0.845   6.308   1.857  0.8918  2.3014  0.1042
 1520TIP3    H225976   0.706   6.300   1.916  0.8822 -1.5411 -0.1785
 1521TIP3   OH225977   3.971   6.499  14.203  0.2034 -0.4809 -0.2249
 1521TIP3    H125978   4.024   6.575  14.226  0.4491 -0.2430 -1.5074
 1521TIP3    H225979   3.907   6.533  14.140  0.7253 -1.4439 -1.3093
 1522TIP3   OH225980   2.257   1.435  14.108 -0.0691  0.1301 -0.4367
 1522TIP3    H125981   2.183   1.477  14.064 -1.8254 -3.3531 -1.1460
 1522TIP3    H225982   2.286   1.368  14.047  2.5142  0.1623  0.6331
 1523TIP3   OH225983   2.020   2.728  10.653  0.2404 -0.4484  0.3764
 1523TIP3    H125984   2.012   2.674  10.574  0.9610  0.9692 -0.7030
 1523TIP3    H225985   1.931   2.760  10.669  0.6257  2.1863 -2.0610
 1524TIP3   OH225986   3.392   3.201   3.697 -0.4792  0.3432  0.1941
 1524TIP3    H125987   3.482   3.232   3.707 -0.0854 -0.9090  0.7721
 1524TIP3    H225988   3.372   3.159   3.781 -1.6672  0.7597  0.1275
 1525TIP3   OH225989   0.030   2.191  16.894 -0.3984 -0.0060 -0.2897
 1525TIP3    H125990  -0.007   2.274  16.866 -0.3552 -0.0918 -0.6134
 1525TIP3    H225991  -0.030   2.125  16.858 -1.0506 -0.0825  0.9097
 1526TIP3   OH225992   5.364   5.145   0.449  0.1774 -0.2229  0.4605
 1526TIP3    H125993   5.310   5.066   0.445  0.3887 -0.3990  0.9022
 1526TIP3    H225994   5.384   5.154   0.543  0.4203  0.1708  0.3699
 1527TIP3   OH225995   6.074   6.352   0.327  0.4851 -0.5865 -0.3650
 1527TIP3    H125996   6.135   6.408   0.375 -0.0299 -0.7715  0.5390
 1527TIP3    H225997   6.100   6.263   0.350 -1.5606 -0.6877  2.0290
 1528TIP3   OH225998   5.900   2.254  15.425  0.2085 -0.2308  0.3261
 1528TIP3    H125999   5.956   2.231  15.350  1.6756  1.5608  0.7760
 1528TIP3    H226000   5.961   2.263  15.498 -0.2018  3.7296  0.4256
 1529TIP3   OH226001   1.650   0.481  17.096  0.1924 -0.1315 -0.4812
 1529TIP3    H126002   1.731   0.531  17.106  0.2471 -0.4880  1.2327
 1529TIP3    H226003   1.611   0.514  17.015  2.1058 -0.0579 -1.4357
 1530TIP3   OH226004   6.622   3.779   4.503 -0.5103  0.6056  0.1315
 1530TIP3    H126005   6.662   3.803   4.419  0.1875  2.3074  0.9021
 1530TIP3    H226006   6.621   3.683   4.502  1.4486  0.5408 -0.9337
 1531TIP3   OH226007   0.591   0.270   2.417  0.7767 -0.1783  0.0580
 1531TIP3    H126008   0.650   0.260   2.493 -0.1715 -2.2368  0.5956
 1531TIP3    H226009   0.511   0.308   2.454  0.6449 -0.3137 -0.0889
 1532TIP3   OH226010   6.564   0.129   3.703  0.8541 -0.0889  0.4452
 1532TIP3    H126011   6.569   0.034   3.712  1.3272 -0.1709 -0.5200
 1532TIP3    H226012   6.644   0.153   3.655  1.3234  0.9394  1.6601
 1533TIP3   OH226013   0.192   5.349  12.563 -0.3199 -0.2940  0.3337
 1533TIP3    H126014   0.262   5.338  12.498 -0.8654 -0.5801 -0.2096
 1533TIP3    H226015   0.145   5.266  12.561 -0.7135 -0.0771  0.6551
 1534TIP3   OH226016   6.221   2.080  14.798 -0.3708  0.0423 -0.3989
 1534TIP3    H126017   6.249   2.038  14.879 -0.4633 -3.4651 -2.0122
 1534TIP3    H226018   6.266   2.165  14.798  0.5243 -0.3104  2.7082
 1535TIP3   OH226019   5.024   1.219   3.341 -0.2533 -0.1136 -0.4688
 1535TIP3    H126020   4.975   1.187   3.416 -1.8383 -1.2191 -1.9075
 1535TIP3    H226021   5.047   1.309   3.364 -2.4544  0.2616  0.5443
 1536TIP3   OH226022   2.284   3.771   0.897  0.4785 -0.6362 -0.3265
 1536TIP3    H126023   2.208   3.714   0.884 -0.2108  0.2164 -0.1273
 1536TIP3    H226024   2.316   3.748   0.984  1.4646 -2.1433 -1.0419
 1537TIP3   OH226025   3.474   4.035  16.409 -0.1550  0.0897 -0.1718
 1537TIP3    H126026   3.393   4.078  16.381 -1.1020 -2.1637 -1.1119
 1537TIP3    H226027   3.535   4.052  16.337 -0.3132  0.4148 -0.2330
 1538TIP3   OH226028   5.825   6.676  16.387 -0.1506  0.2980  0.0258
 1538TIP3    H126029   5.770   6.664  16.465 -1.5228  0.7569 -0.8397
 1538TIP3    H226030   5.832   6.589  16.348 -3.0402  0.6981 -1.6289
 1539TIP3   OH226031   6.714   3.297   4.940  0.4466 -0.4887 -0.1166
 1539TIP3    H126032   6.761   3.215   4.925  0.3015 -0.2793 -1.9535
 1539TIP3    H226033   6.782   3.361   4.958  0.6245 -0.8018  0.3476
 1540TIP3   OH226034   4.697   1.812   4.209  0.1307  0.2264  0.4242
 1540TIP3    H126035   4.624   1.751   4.222 -0.2313  0.3918 -0.7585
 1540TIP3    H226036   4.771   1.755   4.188  0.3950  0.0485  1.7595
 1541TIP3   OH226037   4.858   0.528   1.647  0.5774  0.2919  0.1142
 1541TIP3    H126038   4.938   0.531   1.595 -0.1757 -0.8257 -1.1682
 1541TIP3    H226039   4.812   0.451   1.615 -0.4171  0.1718  1.7333
 1542TIP3   OH226040   0.217   3.706  11.465 -0.8765  0.4141  0.0653
 1542TIP3    H126041   0.158   3.635  11.440 -3.1895  2.4696 -0.7047
 1542TIP3    H226042   0.265   3.672  11.541 -1.0485 -2.3192 -0.9335
 1543TIP3   OH226043   2.665   1.986  12.934 -0.2040 -0.5628 -0.3104
 1543TIP3    H126044   2.578   1.952  12.956 -0.0716 -1.0241 -0.4895
 1543TIP3    H226045   2.719   1.908  12.921 -0.3679 -0.3524 -2.6692
 1544TIP3   OH226046   1.135   3.543  13.175  0.5700 -0.2300  0.1580
 1544TIP3    H126047   1.207   3.604  13.163 -1.0352  1.9307  1.0342
 1544TIP3    H226048   1.098   3.564  13.261 -2.2567  0.0673 -1.0012
 1545TIP3   OH226049   6.491   4.811  11.610  0.1117  0.1568 -0.0331
 1545TIP3    H126050   6.533   4.804  11.696 -0.7255 -0.4513  0.3393
 1545TIP3    H226051   6.407   4.852  11.628 -0.5844 -1.0715 -0.3790
 1546TIP3   OH226052   2.953   3.547  15.200 -0.6058  0.0420  0.3747
 1546TIP3    H126053   2.940   3.635  15.165  1.9216 -0.2628 -1.6542
 1546TIP3    H226054   3.003   3.560  15.281 -1.6157  0.5184  0.9346
 1547TIP3   OH226055   0.575   2.462   3.708  0.8569  0.5597 -0.0666
 1547TIP3    H126056   0.601   2.548   3.741 -0.2736  0.7892  0.2848
 1547TIP3    H226057   0.574   2.406   3.785  1.5154  0.2356 -0.2835
 1548TIP3   OH226058   0.971   4.629  12.418  0.4634  0.2353 -0.3237
 1548TIP3    H126059   0.885   4.654  12.383  1.0779  1.3208 -1.1330
 1548TIP3    H226060   1.032   4.693  12.380  1.8878 -1.5238 -1.1377
 1549TIP3   OH226061   5.776   0.355  12.558  0.5747 -0.6197  0.7769
 1549TIP3    H126062   5.813   0.277  12.599  0.6528 -0.8827  0.2233
 1549TIP3    H226063   5.844   0.386  12.499  0.5616 -0.0967  1.0326
 1550TIP3   OH226064   0.840   1.876   1.777 -0.3002 -0.7365  0.3207
 1550TIP3    H126065   0.752   1.839   1.788 -0.3713 -0.5011  0.5401
 1550TIP3    H226066   0.860   1.916   1.861 -1.0286  1.4552 -0.4853
 1551TIP3   OH226067   4.159   5.872  13.372 -0.0463  0.7952 -0.2609
 1551TIP3    H126068   4.091   5.905  13.314 -0.3705  1.7529  0.6284
 1551TIP3    H226069   4.241   5.904  13.334 -0.2027  0.8753 -0.5307
 1552TIP3   OH226070   5.216   6.274   2.598  0.3088  0.1159  0.0808
 1552TIP3    H126071   5.181   6.219   2.668  1.1061 -0.4568  0.0466
 1552TIP3    H226072   5.265   6.343   2.644  0.3026  0.1096  0.0970
 1553TIP3   OH226073   6.369   6.570  11.786 -0.1134  0.0574  0.6538
 1553TIP3    H126074   6.359   6.664  11.766  0.2564  0.1360  0.8319
 1553TIP3    H226075   6.307   6.554  11.857 -0.6311  0.0235  0.2099
 1554TIP3   OH226076   0.257   4.697   0.712  0.0030 -0.2635 -0.0482
 1554TIP3    H126077   0.309   4.617   0.697  0.3809 -0.1861  0.8447
 1554TIP3    H226078   0.315   4.754   0.762 -0.5947  0.2172  0.0948
 1555TIP3   OH226079   0.223   5.164  11.402 -0.2651  0.3849  0.7107
 1555TIP3    H126080   0.237   5.155  11.307 -1.6490  0.3047  0.4828
 1555TIP3    H226081   0.146   5.110  11.419  1.3519 -1.5749  2.3335
 1556TIP3   OH226082   2.780   0.701  11.772 -0.1680  0.0542 -0.6773
 1556TIP3    H126083   2.809   0.746  11.693  0.1826 -0.1706 -0.6824
 1556TIP3    H226084   2.769   0.610  11.745 -1.1254  0.1818 -0.7301
 1557TIP3   OH226085   3.814   2.585   2.752 -0.3998  0.0175 -0.1757
 1557TIP3    H126086   3.745   2.533   2.710 -0.8860 -0.4283  1.1245
 1557TIP3    H226087   3.893   2.532   2.742 -0.9294 -1.1468  1.3275
 1558TIP3   OH226088   3.649   2.013   5.870  0.0430  0.3734 -0.2863
 1558TIP3    H126089   3.585   2.033   5.938 -0.1683 -0.2588 -0.2881
 1558TIP3    H226090   3.638   1.919   5.854 -0.4307  0.6327 -1.7006
 1559TIP3   OH226091   3.435   4.440  12.906  0.1987 -0.2578 -0.4107
 1559TIP3    H126092   3.488   4.389  12.967  0.5197  0.9061  0.3191
 1559TIP3    H226093   3.450   4.531  12.931 -1.4523  0.1553 -0.7661
 1560TIP3   OH226094   1.131   6.506  12.393  0.5938 -0.5963  0.2618
 1560TIP3    H126095   1.092   6.589  12.366  0.3617 -0.6422  0.4570
 1560TIP3    H226096   1.170   6.524  12.478  1.8470 -0.2937 -0.3490
 1561TIP3   OH226097   2.691   2.637   1.896  0.5732  1.1174 -0.2896
 1561TIP3    H126098   2.639   2.707   1.857 -1.8837  0.9262  2.3457
 1561TIP3    H226099   2.642   2.557   1.877  2.7541  0.1297 -2.2623
 1562TIP3   OH226100   4.512   2.420  12.411 -0.4818  0.2807 -0.4999
 1562TIP3    H126101   4.469   2.338  12.435  0.6679 -0.0961  0.3152
 1562TIP3    H226102   4.591   2.393  12.364  0.1043  0.8982  0.1053
 1563TIP3   OH226103   2.708   3.576   5.133  0.3126 -0.0023  0.3585
 1563TIP3    H126104   2.776   3.571   5.200  1.4756 -0.3076 -0.8069
 1563TIP3    H226105   2.755   3.598   5.053 -1.1638  1.3651 -0.1906
 1564TIP3   OH226106   4.063   4.753  14.529  0.1676 -0.0335 -0.1809
 1564TIP3    H126107   4.003   4.762  14.455 -1.7154  0.1319  1.2759
 1564TIP3    H226108   4.110   4.672  14.512  1.4847  1.1359 -2.6621
 1565TIP3   OH226109   4.186   2.245  16.812 -0.2570  0.0668  0.1866
 1565TIP3    H126110   4.168   2.198  16.894  0.6352 -0.4774  0.0984
 1565TIP3    H226111   4.216   2.331  16.840  3.2450 -1.1312  0.6962
 1566TIP3   OH226112   6.714   3.989  15.315  0.0635 -0.2908 -0.1947
 1566TIP3    H126113   6.704   4.047  15.238  0.1561  0.8392  0.6178
 1566TIP3    H226114   6.655   3.916  15.298  0.1786 -0.1236 -1.4045
 1567TIP3   OH226115   2.540   3.137  15.605 -0.1684 -0.0899  0.0739
 1567TIP3    H126116   2.587   3.220  15.612 -1.3927  0.5049  3.6955
 1567TIP3    H226117   2.597   3.074  15.651 -0.9475 -0.3135  0.7639
 1568TIP3   OH226118   5.924   5.013  15.107  0.2674  0.1838 -0.1057
 1568TIP3    H126119   5.885   4.979  15.187  0.7676 -1.1998 -0.4211
 1568TIP3    H226120   5.929   4.938  15.048  0.0541  1.1342 -1.3906
 1569TIP3   OH226121   4.866   0.573   6.349  0.5155 -0.7179  0.0558
 1569TIP3    H126122   4.863   0.477   6.346  0.8253 -0.7144 -0.5344
 1569TIP3    H226123   4.956   0.593   6.376  0.1393 -0.5993  1.3020
 1570TIP3   OH226124   4.418   1.065   2.297  0.1089 -0.0344  0.1053
 1570TIP3    H126125   4.449   0.978   2.273  0.4718 -0.0247  0.5288
 1570TIP3    H226126   4.327   1.053   2.322 -0.2526 -0.0692 -1.1466
 1571TIP3   OH226127   2.082   3.742   0.092  0.1234  0.4016 -0.1903
 1571TIP3    H126128   2.065   3.714   0.182  0.7293  0.4339 -0.0619
 1571TIP3    H226129   2.169   3.782   0.096  0.1239  0.4592 -0.7797
 1572TIP3   OH226130   5.797   6.446   0.977 -0.0535  0.1479 -0.3515
 1572TIP3    H126131   5.730   6.409   0.919 -1.0734  0.5913  0.5097
 1572TIP3    H226132   5.824   6.372   1.032 -0.9015  0.2938  0.2725
 1573TIP3   OH226133   6.574   2.863  11.907 -0.1399  0.5275 -0.1001
 1573TIP3    H126134   6.553   2.771  11.895 -2.2453  1.2747 -3.2625
 1573TIP3    H226135   6.492   2.909  11.893  1.4303  3.0701 -1.8563
 1574TIP3   OH226136   2.312   4.170   5.285 -0.8364 -0.0858 -0.1414
 1574TIP3    H126137   2.343   4.234   5.349  1.1098 -0.3796 -0.7197
 1574TIP3    H226138   2.295   4.091   5.337 -1.6917  0.3969  0.3402
 1575TIP3   OH226139   4.477   6.080   0.827  0.1656  0.0107 -0.1430
 1575TIP3    H126140   4.510   6.114   0.744  0.1155  0.6741  0.1048
 1575TIP3    H226141   4.430   6.000   0.803 -1.5562  1.2223 -1.0106
 1576TIP3   OH226142   5.338   5.103  12.488 -0.4036  0.0836  0.3878
 1576TIP3    H126143   5.264   5.110  12.428 -0.9204 -1.2734  0.8272
 1576TIP3    H226144   5.414   5.129  12.435 -0.7314 -1.7504 -1.1139
 1577TIP3   OH226145   6.372   0.887   5.068  0.2988  0.2091  0.0102
 1577TIP3    H126146   6.446   0.832   5.094 -0.8417 -0.1267  3.0655
 1577TIP3    H226147   6.339   0.847   4.988  2.0275 -0.9766 -0.1636
 1578TIP3   OH226148   1.317   1.654   1.387  0.1712 -0.0070 -0.1855
 1578TIP3    H126149   1.365   1.734   1.365 -1.2610  0.1683 -3.1818
 1578TIP3    H226150   1.369   1.583   1.348 -0.1965 -0.1853 -0.3567
 1579TIP3   OH226151   0.957   6.360   5.468 -0.2288 -0.5942  0.4324
 1579TIP3    H126152   1.052   6.367   5.482  0.5800 -3.6654 -2.2175
 1579TIP3    H226153   0.943   6.398   5.381 -1.7535  0.9672  1.2837
 1580TIP3   OH226154   0.321   6.545  15.337  0.4108  0.3631 -0.9345
 1580TIP3    H126155   0.255   6.497  15.387 -1.0668  3.4376  0.3114
 1580TIP3    H226156   0.404   6.521  15.379 -0.3397 -0.4490  0.1594
 1581TIP3   OH226157   3.195   2.490  13.011  0.0624  0.4924  0.3757
 1581TIP3    H126158   3.268   2.436  12.978  1.5275  0.9666  2.6145
 1581TIP3    H226159   3.189   2.562  12.948  1.3743  0.3075 -0.0069
 1582TIP3   OH226160   1.514   2.087   6.533 -0.0715  0.3051 -0.2026
 1582TIP3    H126161   1.539   2.178   6.550  0.9289  0.2286 -1.2024
 1582TIP3    H226162   1.583   2.053   6.477 -1.5904 -0.3867 -1.7483
 1583TIP3   OH226163   2.782   0.260  15.574  0.1578  0.4608 -0.2802
 1583TIP3    H126164   2.774   0.285  15.482  1.3762 -1.9229 -1.0916
 1583TIP3    H226165   2.867   0.217  15.581 -0.8151 -1.3721  1.4374
 1584TIP3   OH226166   2.453   0.146  16.589  0.4411 -0.4229 -0.3926
 1584TIP3    H126167   2.425   0.054  16.585 -0.3892 -0.1431 -1.4556
 1584TIP3    H226168   2.374   0.196  16.569  1.0002  0.5115 -0.3056
 1585TIP3   OH226169   0.665   0.458   3.148 -0.0727  0.6218  0.5436
 1585TIP3    H126170   0.576   0.465   3.184  0.1415  1.2070  0.9570
 1585TIP3    H226171   0.716   0.417   3.218  0.0127  0.3801  0.3439
 1586TIP3   OH226172   3.960   1.291  16.888 -0.4903 -0.5241 -0.2688
 1586TIP3    H126173   4.024   1.334  16.945 -0.0567 -1.0532 -0.3501
 1586TIP3    H226174   3.893   1.257  16.947 -1.0938  0.6711 -0.2374
 1587TIP3   OH226175   5.823   0.059  12.002  0.1718 -0.7014  0.3631
 1587TIP3    H126176   5.776   0.142  11.989  1.1605 -0.3468 -1.2737
 1587TIP3    H226177   5.854   0.063  12.093 -0.1978  0.5155  0.4556
 1588TIP3   OH226178   2.188   1.501   0.249  0.5470  0.4058  0.3129
 1588TIP3    H126179   2.245   1.504   0.326  0.8082  2.5884  0.0801
 1588TIP3    H226180   2.178   1.592   0.222 -0.7570 -0.1756 -1.3693
 1589TIP3   OH226181   1.497   5.970  11.570 -0.3789 -0.1634 -0.0692
 1589TIP3    H126182   1.477   6.056  11.607  0.5510  0.6138 -1.2612
 1589TIP3    H226183   1.412   5.932  11.549 -0.8499  2.1478 -3.1261
 1590TIP3   OH226184   4.662   2.055   5.884 -0.3454  0.0980  0.5891
 1590TIP3    H126185   4.647   2.024   5.973  2.1994 -1.4217  0.5838
 1590TIP3    H226186   4.640   1.979   5.829  1.9224 -0.4075  0.2754
 1591TIP3   OH226187   0.750   3.666  15.345 -0.1841 -0.2249 -0.3271
 1591TIP3    H126188   0.707   3.735  15.395  0.2939  0.4793 -0.8713
 1591TIP3    H226189   0.801   3.712  15.279  0.9944 -1.0602 -0.0298
 1592TIP3   OH226190   0.467   6.590   2.673 -0.0243 -0.4282  0.3379
 1592TIP3    H126191   0.523   6.656   2.714 -1.5468 -1.3271  4.2698
 1592TIP3    H226192   0.527   6.522   2.643  1.2234  0.6592  0.2881
 1593TIP3   OH226193   0.009   5.412  15.992 -0.2057 -0.2033  0.2738
 1593TIP3    H126194   0.074   5.425  15.922  0.5941  0.5905  1.1354
 1593TIP3    H226195  -0.051   5.486  15.981 -0.8361 -0.7864 -0.3496
 1594TIP3   OH226196   4.561   5.169   4.411  0.3470  0.5177  0.2224
 1594TIP3    H126197   4.609   5.098   4.369 -0.0725  1.1563 -1.4201
 1594TIP3    H226198   4.601   5.249   4.377 -1.4612  1.0586 -0.7676
 1595TIP3   OH226199   5.228   6.596   3.239 -0.4741  0.2916  0.1490
 1595TIP3    H126200   5.192   6.680   3.211  0.2036  0.9732  1.2389
 1595TIP3    H226201   5.269   6.561   3.161 -1.9249  0.3306 -0.6601
 1596TIP3   OH226202   1.018   0.141  14.444 -0.8662 -0.1898  0.1221
 1596TIP3    H126203   1.036   0.118  14.535 -0.7047 -2.2235 -0.3906
 1596TIP3    H226204   0.923   0.149  14.439 -0.8936 -0.3479  0.3997
 1597TIP3   OH226205   3.884   5.344   3.284 -0.1171 -0.0246  0.3698
 1597TIP3    H126206   3.976   5.370   3.295  0.0095 -0.6364  0.8138
 1597TIP3    H226207   3.881   5.254   3.318 -1.8048  1.4063  4.6698
 1598TIP3   OH226208   1.399   0.912   0.078  0.2710  0.2444  0.0585
 1598TIP3    H126209   1.438   0.901   0.165  2.5737  0.7024 -0.8559
 1598TIP3    H226210   1.406   1.006   0.061 -1.4654  0.3800 -0.0985
 1599TIP3   OH226211   3.442   4.754  16.339  0.2385  0.4233  0.2258
 1599TIP3    H126212   3.508   4.744  16.407  0.3943  0.0224  0.0221
 1599TIP3    H226213   3.435   4.848  16.325 -1.7546  0.7696  2.7294
 1600TIP3   OH226214   0.198   5.201  15.798 -0.1261 -0.0913  0.4212
 1600TIP3    H126215   0.175   5.203  15.891  2.2157  0.6922  1.0731
 1600TIP3    H226216   0.293   5.188  15.798 -0.2436 -1.4407 -1.9168
 1601TIP3   OH226217   1.025   2.061  11.065  0.0629  0.5941 -0.4787
 1601TIP3    H126218   0.986   1.992  11.119  1.4334  0.5689  0.5460
 1601TIP3    H226219   1.007   2.034  10.975 -0.7102 -0.3237 -0.0715
 1602TIP3   OH226220   3.354   1.234  12.266 -0.2014 -0.7885  0.0102
 1602TIP3    H126221   3.448   1.227  12.251 -0.0200  0.2997  0.4822
 1602TIP3    H226222   3.315   1.235  12.179  0.6097  2.9648 -0.4789
 1603TIP3   OH226223   0.804   1.077  11.799  0.0799  0.5804  0.2080
 1603TIP3    H126224   0.834   1.144  11.860 -0.3735  0.0929  0.9854
 1603TIP3    H226225   0.835   0.995  11.836 -1.7408  0.1055  0.7796
 1604TIP3   OH226226   0.686   3.458   0.964 -0.0055  0.1241  0.0825
 1604TIP3    H126227   0.722   3.491   1.046  1.1983  2.7600 -1.3787
 1604TIP3    H226228   0.696   3.531   0.902 -0.9630 -1.7035 -2.3923
 1605TIP3   OH226229   4.581   4.377   0.932  1.2549 -0.2030 -0.6342
 1605TIP3    H126230   4.503   4.321   0.935  0.1432  1.3276  1.9273
 1605TIP3    H226231   4.574   4.423   0.848 -0.6799 -0.0158 -0.4178
 1606TIP3   OH226232   1.722   6.472  14.170  0.5006 -0.0758  0.1049
 1606TIP3    H126233   1.644   6.512  14.132 -0.6908  0.7345  3.1160
 1606TIP3    H226234   1.794   6.528  14.141 -0.2411  0.2011 -1.2893
 1607TIP3   OH226235   0.830   3.338  11.487  0.0198  0.2023 -0.2874
 1607TIP3    H126236   0.852   3.245  11.482  0.6425  0.3654 -0.5776
 1607TIP3    H226237   0.792   3.349  11.575 -0.0124 -0.3126 -0.2337
 1608TIP3   OH226238   5.282   0.955  12.642 -0.2386  0.0980 -0.2060
 1608TIP3    H126239   5.354   0.892  12.640  1.5624  1.9873  1.0946
 1608TIP3    H226240   5.223   0.921  12.710  0.7480 -0.1805  0.5464
 1609TIP3   OH226241   2.878   1.336  13.529 -0.6882  0.1579 -0.1108
 1609TIP3    H126242   2.835   1.261  13.487 -0.4912  0.9552 -1.8407
 1609TIP3    H226243   2.838   1.342  13.615 -2.3655 -0.5182 -0.8041
 1610TIP3   OH226244   5.235   4.247   5.116  0.3394  0.0213 -0.4816
 1610TIP3    H126245   5.322   4.237   5.079  0.1192  0.1095 -1.0298
 1610TIP3    H226246   5.184   4.174   5.081 -0.1799  0.7455 -1.2935
 1611TIP3   OH226247   2.251   6.501  16.544 -0.8447  0.2791  0.2238
 1611TIP3    H126248   2.160   6.531  16.539 -0.8668  0.8051  2.7741
 1611TIP3    H226249   2.248   6.423  16.599  0.3757  1.0278  1.3942
 1612TIP3   OH226250   2.822   0.820   0.705  0.5231  0.0117 -0.4622
 1612TIP3    H126251   2.784   0.732   0.699  2.6272 -0.9710 -0.2932
 1612TIP3    H226252   2.870   0.831   0.623  0.9216  0.6883 -0.1484
 1613TIP3   OH226253   6.651   4.437  15.404  0.0194  1.0342  0.0423
 1613TIP3    H126254   6.668   4.346  15.383 -2.4075  0.5719 -0.1864
 1613TIP3    H226255   6.670   4.485  15.324 -2.5064  0.1626 -1.1766
 1614TIP3   OH226256   3.189   1.126   5.323 -0.4582  0.0196 -0.0412
 1614TIP3    H126257   3.113   1.182   5.339 -0.1101  0.4427  0.1468
 1614TIP3    H226258   3.264   1.178   5.352  0.0609  0.2446 -1.6790
 1615TIP3   OH226259   3.776   1.548   1.723  0.2360  0.7566 -0.1984
 1615TIP3    H126260   3.808   1.505   1.643 -0.1488 -0.6665  0.3781
 1615TIP3    H226261   3.802   1.639   1.713  1.7321  0.2633 -1.1647
 1616TIP3   OH226262   0.028   3.005   0.031 -0.0791  0.0355  0.5316
 1616TIP3    H126263   0.005   2.912   0.031  1.0193 -0.2733 -0.6517
 1616TIP3    H226264   0.116   3.008  -0.008  0.7413  1.3953  2.3253
 1617TIP3   OH226265   5.728   6.647  12.878  0.6774 -0.3458  0.1003
 1617TIP3    H126266   5.745   6.622  12.969 -0.4324 -0.6460  0.2452
 1617TIP3    H226267   5.710   6.564  12.834  1.8990 -0.2839 -0.5770
 1618TIP3   OH226268   4.362   3.302  16.580  0.6603 -0.9147  0.6265
 1618TIP3    H126269   4.434   3.248  16.547  0.5386 -0.7267  0.0383
 1618TIP3    H226270   4.284   3.248  16.569  0.3792 -0.2498 -0.9845
 1619TIP3   OH226271   5.672   0.886   3.298  0.0879  0.5845  0.2327
 1619TIP3    H126272   5.708   0.972   3.318  1.7603 -0.1775  0.7481
 1619TIP3    H226273   5.637   0.894   3.209 -0.6521  2.0264  0.6351
 1620TIP3   OH226274   1.717   3.510   3.676 -0.4989  0.8291 -0.0318
 1620TIP3    H126275   1.720   3.595   3.633 -1.1688 -0.1629 -2.1526
 1620TIP3    H226276   1.690   3.449   3.608 -1.3058 -0.9034  1.7325
 1621TIP3   OH226277   6.439   5.041   2.269 -0.0874 -0.2999  0.4987
 1621TIP3    H126278   6.469   4.962   2.224 -0.7201 -0.3213  0.1162
 1621TIP3    H226279   6.377   5.081   2.209  1.5740  1.4889 -0.1507
 1622TIP3   OH226280   6.415   4.364   5.565 -0.2048  0.3157 -0.2175
 1622TIP3    H126281   6.371   4.430   5.618 -2.7371 -0.8722 -0.7263
 1622TIP3    H226282   6.351   4.294   5.554  1.7060 -1.3666 -1.3374
 1623TIP3   OH226283   2.684   1.624  15.432 -0.0866  0.5016  0.7283
 1623TIP3    H126284   2.752   1.593  15.491  0.0551  0.1329  0.3787
 1623TIP3    H226285   2.701   1.718  15.422  1.0628  0.2090 -0.2450
 1624TIP3   OH226286   3.412   0.319  14.725 -0.5868  0.3966  0.3578
 1624TIP3    H126287   3.351   0.385  14.760 -0.4549  0.7857 -0.1422
 1624TIP3    H226288   3.495   0.366  14.716 -0.4465  0.1108  0.1692
 1625TIP3   OH226289   3.227   3.235  10.632 -0.1685  0.2698 -0.3661
 1625TIP3    H126290   3.185   3.166  10.581 -2.1559 -0.1003  1.5866
 1625TIP3    H226291   3.271   3.290  10.567 -0.4058 -1.5639 -2.1781
 1626TIP3   OH226292   0.956   4.718   2.685  0.2317  0.1096  0.0353
 1626TIP3    H126293   0.957   4.675   2.770 -0.0132 -0.4992 -0.2643
 1626TIP3    H226294   0.939   4.810   2.705  3.4295  0.6283  0.9241
 1627TIP3   OH226295   6.573   1.770   5.787 -0.6001 -0.3488  0.0609
 1627TIP3    H126296   6.537   1.767   5.876  1.7518  0.8396  1.1232
 1627TIP3    H226297   6.529   1.844   5.745 -3.5744 -2.3677 -0.7523
 1628TIP3   OH226298   4.960   0.247  13.877 -0.0192  0.4265  0.6052
 1628TIP3    H126299   4.967   0.152  13.880  1.0366  0.5067  1.7055
 1628TIP3    H226300   5.047   0.278  13.902 -0.7336  1.6727  1.6809
 1629TIP3   OH226301   6.333   3.508  11.577  0.5224 -0.0475 -0.2348
 1629TIP3    H126302   6.344   3.471  11.664 -0.1678  1.1702  0.4071
 1629TIP3    H226303   6.249   3.474  11.546 -0.1498  0.9798  0.3865
 1630TIP3   OH226304   3.486   6.439  13.056 -0.6239  0.3685  0.0573
 1630TIP3    H126305   3.543   6.370  13.089 -1.3402 -0.1378  0.2671
 1630TIP3    H226306   3.438   6.398  12.984 -0.3154  0.9554 -0.4937
 1631TIP3   OH226307   2.604   1.201  11.891  0.2394 -0.1235  0.1365
 1631TIP3    H126308   2.585   1.289  11.924  0.7738  0.1366 -0.2391
 1631TIP3    H226309   2.649   1.157  11.964  0.6690  0.1773  0.0600
 1632TIP3   OH226310   1.469   5.221  16.167 -0.0438  0.6155  0.0157
 1632TIP3    H126311   1.550   5.211  16.217 -0.7223 -0.6836  0.9129
 1632TIP3    H226312   1.401   5.230  16.234 -1.0284 -1.6100 -0.5884
 1633TIP3   OH226313   5.412   2.348   3.478 -0.5084  0.0177 -0.2292
 1633TIP3    H126314   5.470   2.374   3.407  1.0891 -1.5243  0.4278
 1633TIP3    H226315   5.463   2.362   3.558 -1.6724  0.2060  0.5175
 1634TIP3   OH226316   5.615   3.216  16.755 -0.1886  0.3083  0.4304
 1634TIP3    H126317   5.710   3.213  16.753 -0.0779  2.6217 -1.8126
 1634TIP3    H226318   5.589   3.239  16.666 -2.8721 -0.3590  0.9491
 1635TIP3   OH226319   4.564   0.016   2.881 -0.3181 -0.7866  0.3770
 1635TIP3    H126320   4.584  -0.067   2.925  1.3003 -0.0993  1.0215
 1635TIP3    H226321   4.580  -0.003   2.788  1.2100 -0.9292  0.6313
 1636TIP3   OH226322   6.031   0.465   0.343 -0.2113  0.0843 -0.6934
 1636TIP3    H126323   6.109   0.505   0.382 -1.0672  1.1143  0.0138
 1636TIP3    H226324   5.997   0.533   0.284 -0.1888 -0.6272 -1.5524
 1637TIP3   OH226325   5.629   4.818   5.501  0.1961 -0.1027 -1.0685
 1637TIP3    H126326   5.558   4.853   5.554  0.6691  0.7109 -0.9522
 1637TIP3    H226327   5.591   4.809   5.413 -0.5368 -1.2958 -0.6498
 1638TIP3   OH226328   5.649   3.585   6.080 -0.2591 -0.6312 -0.9350
 1638TIP3    H126329   5.668   3.605   6.172  0.4060 -3.0998 -0.4517
 1638TIP3    H226330   5.697   3.650   6.030  0.1568  0.1686  0.4547
 1639TIP3   OH226331   0.319   4.011  16.971 -0.0715  0.1062  0.4523
 1639TIP3    H126332   0.267   4.091  16.963  0.8499  0.5445 -2.8876
 1639TIP3    H226333   0.396   4.027  16.916  1.4089 -2.1790  1.6895
 1640TIP3   OH226334   2.921   0.700  12.339 -0.5178 -0.1057  0.1046
 1640TIP3    H126335   2.964   0.768  12.287 -0.2781  0.1390  0.6168
 1640TIP3    H226336   2.979   0.624  12.333  1.0068  0.7647  2.2907
 1641TIP3   OH226337   6.258   0.375   0.109  0.8202 -0.8678 -0.0753
 1641TIP3    H126338   6.163   0.381   0.119  1.0304  0.8437  1.5696
 1641TIP3    H226339   6.282   0.292   0.150 -0.0021 -1.6039 -1.0482
 1642TIP3   OH226340   3.423   2.453  16.093 -0.3249  0.4218  0.1575
 1642TIP3    H126341   3.385   2.536  16.123 -2.7169 -0.5571  0.0566
 1642TIP3    H226342   3.396   2.445  16.002 -1.0436 -0.9472  0.4683
 1643TIP3   OH226343   1.002   3.105   3.598  0.1515 -0.7398 -0.2899
 1643TIP3    H126344   0.990   3.187   3.551 -1.4006 -0.4949  0.4612
 1643TIP3    H226345   1.029   3.131   3.686  2.0987 -1.1562 -0.7246
 1644TIP3   OH226346   3.529   2.465   3.252  0.0719  0.1378 -0.2303
 1644TIP3    H126347   3.567   2.409   3.185 -2.1741  0.5671 -1.9729
 1644TIP3    H226348   3.494   2.541   3.204 -2.6022 -0.0501  1.1931
 1645TIP3   OH226349   3.695   6.731   0.278 -0.2690  0.6672 -0.2478
 1645TIP3    H126350   3.761   6.665   0.255  0.3178  0.8076  0.9134
 1645TIP3    H226351   3.709   6.801   0.215 -0.4128  0.0023 -1.0434
 1646TIP3   OH226352   0.244   3.741  15.421  0.3801 -0.2482 -0.0245
 1646TIP3    H126353   0.226   3.835  15.432 -0.1743 -0.5750  2.4191
 1646TIP3    H226354   0.158   3.700  15.427  0.7835 -1.0308  0.5158
 1647TIP3   OH226355   1.022   2.011  13.262 -0.1160  0.2586  0.5626
 1647TIP3    H126356   1.059   1.979  13.180 -2.1202 -0.4793 -0.1241
 1647TIP3    H226357   1.028   1.937  13.322 -1.3728 -0.2296  0.1196
 1648TIP3   OH226358   1.792   0.310   4.611  0.0667 -0.5318  0.4531
 1648TIP3    H126359   1.879   0.341   4.637 -0.4539 -0.9770  2.9564
 1648TIP3    H226360   1.736   0.386   4.622  0.0486 -0.3448 -0.8130
 1649TIP3   OH226361   2.995   5.489   4.413 -0.3084 -0.0425 -0.1158
 1649TIP3    H126362   3.083   5.478   4.449  0.2451 -0.0110 -1.4121
 1649TIP3    H226363   2.979   5.409   4.363  0.0130  0.9716 -1.9273
 1650TIP3   OH226364   5.545   2.945  12.306 -0.4315  0.3617  0.0027
 1650TIP3    H126365   5.589   3.023  12.272  0.9868  0.0642  1.0640
 1650TIP3    H226366   5.616   2.890  12.339 -1.4377 -1.2279 -0.3843
 1651TIP3   OH226367   6.276   1.981   6.659 -0.0853 -0.0328  0.1477
 1651TIP3    H126368   6.255   1.922   6.731  1.0548  0.1588  0.6623
 1651TIP3    H226369   6.268   2.069   6.698 -1.4241  0.1471 -0.5117
 1652TIP3   OH226370   4.310   1.215  17.064  0.6547 -0.0618  0.1085
 1652TIP3    H126371   4.226   1.257  17.087 -1.4079 -4.5070  1.8624
 1652TIP3    H226372   4.376   1.277  17.093 -1.9511  3.2070 -0.3016
 1653TIP3   OH226373   2.779   6.321  15.912  0.1467  0.3084 -0.5208
 1653TIP3    H126374   2.692   6.310  15.874 -0.1503 -0.6440  0.3858
 1653TIP3    H226375   2.837   6.330  15.836 -0.4812 -1.0937 -1.2180
 1654TIP3   OH226376   3.953   3.289  12.172  0.0951  0.2569  0.1071
 1654TIP3    H126377   3.982   3.291  12.081 -1.0402 -2.2032 -0.3985
 1654TIP3    H226378   4.025   3.328  12.221  0.6885  1.7519 -1.8379
 1655TIP3   OH226379   1.762   5.418  12.275 -0.4312 -0.5443  0.3714
 1655TIP3    H126380   1.832   5.412  12.210 -0.6856  1.8917 -0.2538
 1655TIP3    H226381   1.798   5.476  12.342 -1.5948  0.2129  0.3699
 1656TIP3   OH226382   5.200   4.917   0.404  0.4991  0.0923  0.2416
 1656TIP3    H126383   5.255   4.852   0.447  0.1245 -1.4810 -1.5163
 1656TIP3    H226384   5.169   4.873   0.325 -1.7778  1.5854  0.2333
 1657TIP3   OH226385   0.918   6.243   6.532 -0.3072  0.4336 -0.2351
 1657TIP3    H126386   0.907   6.321   6.478 -0.4645  0.6586  0.1146
 1657TIP3    H226387   0.877   6.173   6.482  1.6350  0.1393 -1.4956
 1658TIP3   OH226388   2.197   2.254   4.527  0.1664 -0.5862 -0.1372
 1658TIP3    H126389   2.243   2.186   4.577  0.3787 -1.7325 -1.8077
 1658TIP3    H226390   2.153   2.206   4.457 -0.0436  0.9657 -1.1140
 1659TIP3   OH226391   0.493   6.200   4.965  0.4636 -0.2156 -0.0040
 1659TIP3    H126392   0.429   6.238   4.905 -1.4772  0.1366  2.1139
 1659TIP3    H226393   0.541   6.275   5.000 -0.6168 -0.0349  1.1873
 1660TIP3   OH226394   3.432   0.570   5.241 -0.5064 -0.5601  0.0573
 1660TIP3    H126395   3.443   0.480   5.211 -0.8884 -0.3415 -0.7633
 1660TIP3    H226396   3.517   0.611   5.225 -0.3733 -0.7346  0.3054
 1661TIP3   OH226397   4.980   0.478  15.700 -0.9488 -0.8501 -0.2243
 1661TIP3    H126398   4.958   0.546  15.636  1.3640 -0.1386 -0.3503
 1661TIP3    H226399   4.953   0.396  15.658 -2.1756 -0.1738 -0.8175
 1662TIP3   OH226400   4.770   5.330  13.084 -0.2428 -0.2956 -0.6562
 1662TIP3    H126401   4.680   5.297  13.090 -0.3980  0.4405  2.6828
 1662TIP3    H226402   4.768   5.414  13.131  2.0848  0.0509 -1.0603
 1663TIP3   OH226403   6.242   4.754   5.778 -0.3397  0.2776 -0.0939
 1663TIP3    H126404   6.275   4.760   5.688 -0.5479  0.5117 -0.1561
 1663TIP3    H226405   6.241   4.844   5.809 -3.2594  0.6588 -0.9459
 1664TIP3   OH226406   3.057   2.909   2.595  0.2258  0.4215  0.0319
 1664TIP3    H126407   3.074   3.003   2.596  1.6373  0.1853  0.1564
 1664TIP3    H226408   3.136   2.871   2.556  0.4528 -0.8503  1.6165
 1665TIP3   OH226409   5.089   4.066  15.225 -0.0029 -0.4112  0.0041
 1665TIP3    H126410   5.086   4.143  15.169 -0.5094 -0.0729  0.4779
 1665TIP3    H226411   5.161   4.082  15.286  0.6535 -0.8532 -0.6499
 1666TIP3   OH226412   0.461   0.129   2.215 -0.0658 -0.3334  0.4176
 1666TIP3    H126413   0.494   0.167   2.297  1.1933  0.7928 -0.5577
 1666TIP3    H226414   0.380   0.177   2.197 -0.2620 -0.4738  0.9119
 1667TIP3   OH226415   6.538   1.893  14.844  0.0563 -0.8396  0.1658
 1667TIP3    H126416   6.493   1.841  14.777  0.9233 -5.0056  2.4592
 1667TIP3    H226417   6.469   1.915  14.907 -0.4547  1.6950 -1.1563
 1668TIP3   OH226418   4.058   3.507   1.231 -0.0910  0.1247 -0.0089
 1668TIP3    H126419   4.138   3.504   1.178  0.0077 -0.6105  0.1707
 1668TIP3    H226420   4.088   3.531   1.318 -0.3691  2.3828 -0.4706
 1669TIP3   OH226421   0.554   2.904   5.113  0.1274 -0.4278 -0.4063
 1669TIP3    H126422   0.599   2.989   5.113 -1.3234  0.3759  0.8447
 1669TIP3    H226423   0.589   2.859   5.189 -1.5064  0.4313  0.9173
 1670TIP3   OH226424   5.749   6.228  14.087 -0.5155  0.0294 -0.7588
 1670TIP3    H126425   5.738   6.294  14.019 -0.5782 -0.6417 -1.4168
 1670TIP3    H226426   5.838   6.240  14.119 -0.7345  0.8298 -0.4387
 1671TIP3   OH226427   2.265   4.729   3.556 -0.2721 -0.2670 -0.4523
 1671TIP3    H126428   2.348   4.734   3.603  0.1653  1.5177 -1.3291
 1671TIP3    H226429   2.198   4.733   3.625  0.3381 -1.2365  0.2249
 1672TIP3   OH226430   2.009   6.551   4.200  0.0166 -0.1143 -0.1205
 1672TIP3    H126431   1.932   6.579   4.150 -0.3556  0.7558  0.8885
 1672TIP3    H226432   1.986   6.464   4.232 -0.5681  0.1320  0.1614
 1673TIP3   OH226433   5.734   0.094  14.201  0.2774 -0.1017  0.2797
 1673TIP3    H126434   5.744   0.188  14.186 -0.5899  0.3738  2.3331
 1673TIP3    H226435   5.786   0.076  14.279 -0.2414 -1.1692  0.3978
 1674TIP3   OH226436   2.146   6.784  13.891 -0.0216  0.7419  0.3260
 1674TIP3    H126437   2.122   6.876  13.889  0.4487  0.8667  0.5591
 1674TIP3    H226438   2.067   6.739  13.859  0.2256  1.3128 -1.1548
 1675TIP3   OH226439   4.717   6.766   2.636  0.3889  0.3797  0.4898
 1675TIP3    H126440   4.729   6.813   2.553 -0.2945 -1.6269 -0.8091
 1675TIP3    H226441   4.802   6.725   2.652 -0.1013 -1.0708 -0.4528
 1676TIP3   OH226442   1.654   5.139   4.175 -0.0453  0.4115 -0.3370
 1676TIP3    H126443   1.683   5.205   4.238  0.0774  1.0571 -1.0529
 1676TIP3    H226444   1.567   5.114   4.206 -0.0644  0.8598 -0.0134
 1677TIP3   OH226445   5.109   2.052  13.449 -0.2368  0.2138  0.4056
 1677TIP3    H126446   5.198   2.023  13.466  0.5647  3.5161  2.8072
 1677TIP3    H226447   5.060   2.023  13.526 -0.9167 -0.2319 -0.1812
 1678TIP3   OH226448   5.059   2.463  12.918  0.2387 -0.2005 -0.3272
 1678TIP3    H126449   5.079   2.546  12.876  2.3699  0.6722  2.1669
 1678TIP3    H226450   5.033   2.405  12.846 -1.4109  2.5608 -2.1396
 1679TIP3   OH226451   3.019   6.415  16.026  0.2794 -0.0570 -0.4129
 1679TIP3    H126452   3.039   6.321  16.030  0.2265 -0.0275  0.9442
 1679TIP3    H226453   2.933   6.420  15.985 -0.7135 -0.7832  1.4474
 1680TIP3   OH226454   2.183   4.845   1.221 -0.3436 -0.3829 -0.5768
 1680TIP3    H126455   2.162   4.796   1.301  1.0197  0.5419  0.3977
 1680TIP3    H226456   2.208   4.932   1.253 -1.1728  0.4613 -2.1410
 1681TIP3   OH226457   5.981   5.148  12.040  0.0493 -0.7790 -0.1130
 1681TIP3    H126458   6.035   5.137  11.962  1.0777  0.2681  0.4174
 1681TIP3    H226459   6.042   5.181  12.107 -1.3818  1.2047  0.2875
 1682TIP3   OH226460   5.711   1.182  10.433  0.8261 -0.4305 -0.7919
 1682TIP3    H126461   5.676   1.271  10.431 -0.2300 -0.8377 -1.0603
 1682TIP3    H226462   5.634   1.125  10.425  1.2855 -1.4160  1.1521
 1683TIP3   OH226463   6.399   3.780  14.825 -0.0064 -0.0789  0.1251
 1683TIP3    H126464   6.433   3.704  14.776 -1.3284 -0.3960 -0.3354
 1683TIP3    H226465   6.365   3.742  14.906  0.5926  0.2231  0.5269
 1684TIP3   OH226466   2.834   1.460  13.288 -0.9225 -0.2702 -0.1200
 1684TIP3    H126467   2.811   1.437  13.378  0.7535  0.0196  0.4053
 1684TIP3    H226468   2.778   1.536  13.268 -1.4303 -0.4411  0.6095
 1685TIP3   OH226469   1.575   0.875  15.462  0.3068  0.0974 -1.0637
 1685TIP3    H126470   1.661   0.855  15.425  0.1854 -0.4504 -1.0440
 1685TIP3    H226471   1.514   0.863  15.390  0.3067  1.1336 -1.2632
 1686TIP3   OH226472   4.883   0.210  14.772 -0.0813 -0.0924 -0.1820
 1686TIP3    H126473   4.808   0.170  14.817 -0.5679  2.6791  1.6945
 1686TIP3    H226474   4.959   0.159  14.803 -0.9461 -1.7771 -0.6966
 1687TIP3   OH226475   5.376   3.561   1.704  0.1565  0.0917 -1.0815
 1687TIP3    H126476   5.325   3.481   1.715 -3.1020  2.0088 -0.8082
 1687TIP3    H226477   5.363   3.587   1.613  1.0302  0.4136 -1.1276
 1688TIP3   OH226478   6.401   2.832   4.485 -0.2429 -0.1183 -0.0775
 1688TIP3    H126479   6.425   2.919   4.518 -1.5817  0.1462  0.2405
 1688TIP3    H226480   6.485   2.788   4.471  0.4470  1.1200  0.0343
 1689TIP3   OH226481   1.720   5.976   5.025 -0.2923  0.3522 -0.0815
 1689TIP3    H126482   1.624   5.974   5.022 -0.3306  1.4566 -2.9217
 1689TIP3    H226483   1.746   5.987   4.934  2.6034 -0.6106  0.5400
 1690TIP3   OH226484   1.481   4.708  16.566 -0.4879  0.5463 -0.0080
 1690TIP3    H126485   1.492   4.764  16.643  0.3394 -0.8293  0.9078
 1690TIP3    H226486   1.565   4.714  16.520 -1.0237  1.4732 -0.9171
 1691TIP3   OH226487   1.218   1.647  15.057  0.4375 -0.5425 -0.4923
 1691TIP3    H126488   1.204   1.652  14.963  0.7725 -2.9202 -0.7287
 1691TIP3    H226489   1.138   1.608  15.092 -0.3083  1.6867  0.4619
 1692TIP3   OH226490   5.254   4.897  16.336 -0.2952 -0.4280 -0.4802
 1692TIP3    H126491   5.160   4.904  16.352 -0.3761 -0.2905 -0.9678
 1692TIP3    H226492   5.286   4.987  16.342 -0.0724 -0.5552  0.3552
 1693TIP3   OH226493   1.640   1.917   0.715  0.5229  0.2535 -0.1508
 1693TIP3    H126494   1.575   1.870   0.768  1.0172 -0.2161  0.0545
 1693TIP3    H226495   1.719   1.916   0.769  0.2080  2.4808  0.4241
 1694TIP3   OH226496   4.489   6.489  14.686 -0.0801 -0.3585  0.1927
 1694TIP3    H126497   4.434   6.438  14.625 -2.4633  0.6799  1.3178
 1694TIP3    H226498   4.505   6.571  14.640  2.0983 -1.2811 -0.8257
 1695TIP3   OH226499   0.388   4.508   0.381 -0.0880 -0.1899 -0.6827
 1695TIP3    H126500   0.363   4.600   0.394 -2.8155 -0.9365 -0.0072
 1695TIP3    H226501   0.447   4.490   0.454  0.8646  1.1219 -1.0824
 1696TIP3   OH226502   3.342   3.647  15.609 -0.3041  0.1252 -0.1135
 1696TIP3    H126503   3.367   3.717  15.548  0.3688  0.8214  0.9242
 1696TIP3    H226504   3.393   3.571  15.582 -0.6048  0.1970 -0.8971
 1697TIP3   OH226505   2.356   6.013   3.206 -0.5587  0.3821  0.0807
 1697TIP3    H126506   2.409   6.049   3.135 -0.0235 -0.4378  0.0529
 1697TIP3    H226507   2.268   6.049   3.190 -0.3131  0.6860 -0.6492
 1698TIP3   OH226508   2.046   0.207  12.169  0.0872  0.6985  0.0204
 1698TIP3    H126509   1.968   0.154  12.188  0.8059  0.3891  2.4727
 1698TIP3    H226510   2.034   0.287  12.220  0.8055  1.1897 -0.5693
 1699TIP3   OH226511   0.393   0.644  12.464  0.9827  0.0181 -0.1722
 1699TIP3    H126512   0.334   0.618  12.535  3.7125  0.8972  2.6475
 1699TIP3    H226513   0.334   0.664  12.390 -1.9182 -2.6296  1.1739
 1700TIP3   OH226514   4.860   6.780  17.001  0.1434 -0.1385 -0.4954
 1700TIP3    H126515   4.833   6.701  16.955  0.1385 -0.6974  0.4497
 1700TIP3    H226516   4.955   6.777  17.001  0.1604 -1.2303  1.3063
 1701TIP3   OH226517   3.470   4.218  14.290 -0.6098  0.1614 -0.2306
 1701TIP3    H126518   3.468   4.128  14.323 -1.1711  0.2601  0.0109
 1701TIP3    H226519   3.562   4.233  14.268 -0.7028 -0.9216 -1.5237
 1702TIP3   OH226520   6.114   5.103  14.545  0.2475  0.3490 -0.4892
 1702TIP3    H126521   6.181   5.134  14.607  0.5220  1.3000 -1.2350
 1702TIP3    H226522   6.054   5.178  14.536  1.2173  0.9204 -2.7391
 1703TIP3   OH226523   1.973   2.493  15.580  0.2490 -0.8458 -0.2397
 1703TIP3    H126524   2.041   2.503  15.647  0.6316  3.2227 -0.9836
 1703TIP3    H226525   1.903   2.445  15.624  0.4056  1.7155  3.2383
 1704TIP3   OH226526   6.216   1.772   0.951  0.1790 -0.0978 -0.2871
 1704TIP3    H126527   6.297   1.824   0.948 -1.0476  1.9113 -2.2395
 1704TIP3    H226528   6.152   1.830   0.991 -0.2056 -1.9262  1.8969
 1705TIP3   OH226529   5.841   2.058   5.864 -0.1123  0.5245  0.0098
 1705TIP3    H126530   5.838   2.062   5.769  1.1673  3.4282 -0.0000
 1705TIP3    H226531   5.931   2.032   5.884 -0.1921  0.5755  0.4551
 1706TIP3   OH226532   0.103   6.559   5.662 -0.1879  0.5795  0.3573
 1706TIP3    H126533   0.144   6.472   5.666  0.3189  0.8089  0.2553
 1706TIP3    H226534   0.044   6.561   5.738 -0.2924  0.1027  0.2917
 1707TIP3   OH226535   2.607   4.110   3.558 -0.0137  0.5349  0.1741
 1707TIP3    H126536   2.608   4.120   3.653  1.8804 -2.3027  0.5706
 1707TIP3    H226537   2.531   4.056   3.540  0.0199  0.4942  0.1539
 1708TIP3   OH226538   3.470   2.951   0.286  0.1771 -0.2696 -0.1104
 1708TIP3    H126539   3.489   2.886   0.219 -0.0868 -0.6215  0.1562
 1708TIP3    H226540   3.545   3.010   0.284 -0.3941  0.4814 -1.6131
 1709TIP3   OH226541   5.790   2.728   4.833  0.9204 -0.0137 -0.4608
 1709TIP3    H126542   5.720   2.667   4.812  0.9498  0.1419 -1.0395
 1709TIP3    H226543   5.791   2.732   4.928 -0.1217  0.2928 -0.4496
 1710TIP3   OH226544   4.132   4.780  14.991 -0.1651 -0.5954 -0.5764
 1710TIP3    H126545   4.152   4.873  14.977  2.8106 -0.9806  0.3565
 1710TIP3    H226546   4.175   4.734  14.919 -1.6979 -1.2991 -1.0883
 1711TIP3   OH226547   2.981   2.872   0.550 -0.1513  0.0079  0.0385
 1711TIP3    H126548   3.041   2.880   0.475 -1.9620  1.2096 -1.3769
 1711TIP3    H226549   2.953   2.781   0.549 -0.2025  0.0186 -0.8300
 1712TIP3   OH226550   2.631   4.027   2.610  0.1826  0.1915  0.3261
 1712TIP3    H126551   2.614   3.962   2.677 -1.9715  1.2508  0.8737
 1712TIP3    H226552   2.727   4.029   2.602  0.3575 -1.9142  1.3509
 1713TIP3   OH226553   5.256   6.218  15.837  0.2176 -0.3697  0.0258
 1713TIP3    H126554   5.170   6.240  15.801  0.0417 -0.0672  0.6217
 1713TIP3    H226555   5.294   6.158  15.772  0.1621  0.6396 -0.9776
 1714TIP3   OH226556   4.439   2.178  11.256 -0.3226  0.0919  0.6640
 1714TIP3    H126557   4.350   2.202  11.230 -0.8902 -2.1327  0.2730
 1714TIP3    H226558   4.431   2.145  11.345 -0.3359 -2.0677 -0.0778
 1715TIP3   OH226559   3.686   0.939   0.488  0.7757  0.1576  0.2374
 1715TIP3    H126560   3.601   0.899   0.507  0.1752  0.9229 -0.7088
 1715TIP3    H226561   3.732   0.939   0.571  0.0238 -0.7022  0.6668
 1716TIP3   OH226562   2.913   6.502   0.546  0.1606 -0.0053  0.1958
 1716TIP3    H126563   2.930   6.594   0.528 -0.5867 -0.1332 -1.3828
 1716TIP3    H226564   2.993   6.457   0.518  0.7508  0.1845  1.5040
 1717TIP3   OH226565   0.426   1.430   3.122  0.3776  0.4576 -0.1286
 1717TIP3    H126566   0.471   1.461   3.201  1.8088 -0.8409 -0.3764
 1717TIP3    H226567   0.494   1.431   3.055 -0.3223 -0.3079 -0.8572
 1718TIP3   OH226568   5.970   4.630  10.819  0.1027  0.3789 -0.1010
 1718TIP3    H126569   5.950   4.601  10.908  0.5211  0.3540 -0.0126
 1718TIP3    H226570   6.033   4.701  10.830  0.5006  0.0775 -0.3917
 1719TIP3   OH226571   0.317   2.201   0.442  0.2431  0.0605 -0.6158
 1719TIP3    H126572   0.303   2.160   0.527 -1.6909  0.4731 -0.6821
 1719TIP3    H226573   0.269   2.146   0.380  1.6946 -0.2822 -1.4816
 1720TIP3   OH226574   4.699   6.638  16.819  0.1974 -0.1919  0.3813
 1720TIP3    H126575   4.607   6.614  16.815 -0.5284  2.4679 -0.9935
 1720TIP3    H226576   4.731   6.626  16.730  1.4663 -1.8708  1.0082
 1721TIP3   OH226577   1.466   2.765   3.266 -0.1147 -0.3019  0.7121
 1721TIP3    H126578   1.383   2.719   3.262  0.0268 -0.4654 -0.8946
 1721TIP3    H226579   1.531   2.696   3.281 -0.3726  0.0084  3.9137
 1722TIP3   OH226580   0.069   0.455   0.698  0.3733  0.5195 -0.5012
 1722TIP3    H126581   0.091   0.370   0.736 -0.4899  1.0400  1.2951
 1722TIP3    H226582   0.083   0.444   0.604  0.3011 -1.5913 -0.3122
 1723TIP3   OH226583   2.977   3.990  11.656 -0.0176 -0.1119  0.2725
 1723TIP3    H126584   3.000   4.079  11.683  0.6414 -0.2359  0.1561
 1723TIP3    H226585   2.968   3.942  11.738  0.0386 -0.0332  0.3248
 1724TIP3   OH226586   1.345   1.124  11.795  0.5581 -0.6851 -0.1752
 1724TIP3    H126587   1.341   1.106  11.701 -1.5622 -1.3553 -0.0176
 1724TIP3    H226588   1.266   1.175  11.813  1.8631  1.0406  0.9798
 1725TIP3   OH226589   2.768   6.680   5.012 -0.3455  0.2475 -0.3568
 1725TIP3    H126590   2.827   6.737   4.962 -1.1259  0.0755 -1.5050
 1725TIP3    H226591   2.682   6.693   4.972 -0.6511 -1.2913 -0.2488
 1726TIP3   OH226592   3.126   2.945   2.025 -0.4629 -0.3627  0.3225
 1726TIP3    H126593   3.071   2.873   1.995 -0.8198 -0.7393  1.8114
 1726TIP3    H226594   3.114   3.013   1.959 -1.7363 -0.9092 -0.0416
 1727TIP3   OH226595   3.984   1.025  14.788  0.0457 -0.2909 -0.0743
 1727TIP3    H126596   3.985   1.105  14.839  1.0028  0.0669 -0.6294
 1727TIP3    H226597   3.958   1.053  14.700  0.2661 -0.6029 -0.2410
 1728TIP3   OH226598   4.863   4.359  12.196 -0.0730 -0.5487 -0.0008
 1728TIP3    H126599   4.911   4.394  12.122 -1.9267  0.6856 -0.6828
 1728TIP3    H226600   4.845   4.268  12.172  0.2192 -0.4543 -0.5975
 1729TIP3   OH226601   6.694   1.022   1.078 -0.6515  0.7020 -0.1885
 1729TIP3    H126602   6.610   0.979   1.091 -1.6187  2.3043 -0.8128
 1729TIP3    H226603   6.759   0.958   1.107 -2.0649 -0.6495  0.1100
 1730TIP3   OH226604   1.807   3.004  16.474  0.2870 -0.3060  0.6280
 1730TIP3    H126605   1.763   2.943  16.415 -1.2021 -0.6346  2.0038
 1730TIP3    H226606   1.770   3.090  16.452  0.5826 -0.2527  0.3290
 1731TIP3   OH226607   1.764   3.611  11.516 -0.5257  0.4927 -0.5575
 1731TIP3    H126608   1.802   3.611  11.428  1.3315 -0.5483  0.1812
 1731TIP3    H226609   1.798   3.690  11.557  0.1483  0.0112 -0.1765
 1732TIP3   OH226610   2.122   3.147   1.118  0.0945  0.3347  0.9038
 1732TIP3    H126611   2.171   3.179   1.193  1.5713 -0.4920  0.3321
 1732TIP3    H226612   2.085   3.226   1.078 -0.8315  0.7708  2.5393
 1733TIP3   OH226613   0.790   4.898   5.255  0.2032 -0.0944  0.1690
 1733TIP3    H126614   0.812   4.985   5.289 -0.6746 -0.2593  1.2087
 1733TIP3    H226615   0.855   4.840   5.293 -0.1914 -0.1274  0.8138
 1734TIP3   OH226616   1.842   5.393   3.561  0.2303  0.4776 -0.1588
 1734TIP3    H126617   1.829   5.455   3.489 -2.1966  1.9994  1.4223
 1734TIP3    H226618   1.763   5.340   3.561  0.7156 -0.2687  0.7081
 1735TIP3   OH226619   2.044   1.952   5.519  0.2176  0.5366 -0.0987
 1735TIP3    H126620   2.010   2.016   5.457  1.0344 -0.5054 -1.6978
 1735TIP3    H226621   2.117   1.996   5.562 -0.6817  1.4461  0.5414
 1736TIP3   OH226622   2.745   0.292   4.466 -0.2792 -0.1158  0.9958
 1736TIP3    H126623   2.840   0.301   4.464 -0.3886  1.4532  1.1819
 1736TIP3    H226624   2.728   0.202   4.438  1.0860  0.7742 -3.5236
 1737TIP3   OH226625   2.927   0.624   2.710  0.1865 -0.4652  0.1657
 1737TIP3    H126626   2.924   0.532   2.735 -1.6407 -0.7206 -0.7712
 1737TIP3    H226627   2.849   0.636   2.656  0.8567  1.4304 -0.4562
 1738TIP3   OH226628   5.420   0.841  15.552 -0.2118  0.1721 -0.4693
 1738TIP3    H126629   5.414   0.793  15.469  0.3318  0.6339 -0.7747
 1738TIP3    H226630   5.357   0.796  15.609  0.4985 -1.0959 -0.6531
 1739TIP3   OH226631   2.465   2.553  11.297 -0.7836  0.0004  0.2586
 1739TIP3    H126632   2.552   2.526  11.325 -1.3470 -0.5254  1.6502
 1739TIP3    H226633   2.461   2.530  11.204  0.5654  0.0901  0.1605
 1740TIP3   OH226634   4.397   5.494  11.468 -0.2953 -0.0551  0.3591
 1740TIP3    H126635   4.376   5.587  11.462  0.2820  0.0962  0.6094
 1740TIP3    H226636   4.357   5.455  11.390 -1.9967  0.1198  1.1148
 1741TIP3   OH226637   4.762   3.951  16.140 -0.7562  0.1400  0.1981
 1741TIP3    H126638   4.705   4.020  16.174 -0.8400  0.2362 -0.1369
 1741TIP3    H226639   4.818   3.996  16.076 -1.2581 -0.2317 -0.5110
 1742TIP3   OH226640   2.979   1.256  10.952  0.2971 -0.3004  0.8528
 1742TIP3    H126641   2.896   1.214  10.930  0.5804 -0.9333  0.9650
 1742TIP3    H226642   3.038   1.183  10.973  0.6590  0.1741  1.5419
 1743TIP3   OH226643   6.204   2.315   1.311  0.2571 -0.2245  0.5186
 1743TIP3    H126644   6.201   2.234   1.362  1.3760 -0.6449 -0.0345
 1743TIP3    H226645   6.121   2.317   1.264  0.7499 -1.7764 -0.4976
 1744TIP3   OH226646   1.789   0.040  15.646  0.5656 -0.4744 -0.3773
 1744TIP3    H126647   1.757   0.098  15.576  0.9918 -0.6025 -0.6807
 1744TIP3    H226648   1.881   0.063  15.656  0.9007 -1.5171 -0.9302
 1745TIP3   OH226649   1.543   2.020   5.381  0.2728 -0.8115 -0.3319
 1745TIP3    H126650   1.613   2.070   5.423  0.1461 -0.7771 -0.1608
 1745TIP3    H226651   1.509   2.080   5.313 -1.9431  0.6154  1.8443
 1746TIP3   OH226652   2.434   5.811  13.740  0.5190  0.1467 -0.2835
 1746TIP3    H126653   2.427   5.829  13.834  2.2058 -2.6964  0.5162
 1746TIP3    H226654   2.343   5.806  13.711 -0.0378  1.7751  1.0148
 1747TIP3   OH226655   5.309   0.827  12.382  0.3808  0.1923 -0.6757
 1747TIP3    H126656   5.256   0.890  12.431  0.7026  0.9207 -1.2523
 1747TIP3    H226657   5.384   0.877  12.350  0.3206 -0.3208 -1.6823
 1748TIP3   OH226658   3.422   6.568  12.578  0.6588  0.3609 -0.1508
 1748TIP3    H126659   3.339   6.614  12.592  0.9420  1.2389 -1.1623
 1748TIP3    H226660   3.397   6.477  12.566 -0.3899  0.8306 -2.0902
 1749TIP3   OH226661   3.457   6.525  16.750  0.5437 -0.6589 -0.0398
 1749TIP3    H126662   3.438   6.597  16.690  2.2737  0.0656  0.2031
 1749TIP3    H226663   3.372   6.500  16.787 -0.3526 -0.1543 -1.6981
 1750TIP3   OH226664   3.594   0.205  12.492  0.1050 -0.6428 -0.3061
 1750TIP3    H126665   3.569   0.116  12.466  1.2709 -0.8968 -0.6470
 1750TIP3    H226666   3.633   0.243  12.413  0.9752 -0.3636  0.2439
 1751TIP3   OH226667   5.645   3.872   5.823  0.6433  0.4422  0.2790
 1751TIP3    H126668   5.695   3.882   5.904 -1.7825  0.7877  1.8082
 1751TIP3    H226669   5.621   3.961   5.798 -1.4546  0.1661  1.1121
 1752TIP3   OH226670   5.476   2.589   5.336  0.3253 -0.3463 -0.1248
 1752TIP3    H126671   5.485   2.562   5.427 -2.2446 -0.4625  0.1418
 1752TIP3    H226672   5.499   2.511   5.285 -0.7998 -1.1032  0.4980
 1753TIP3   OH226673   3.054   0.736  16.121  0.2881  0.3881  0.2875
 1753TIP3    H126674   2.963   0.713  16.136  0.0900 -1.0690 -2.4726
 1753TIP3    H226675   3.052   0.804  16.054  1.2352 -0.0824 -0.2402
 1754TIP3   OH226676   1.836   6.784  12.956 -0.0153  0.0873  0.7262
 1754TIP3    H126677   1.755   6.831  12.931 -2.2159 -2.6029  2.2324
 1754TIP3    H226678   1.894   6.853  12.987 -1.0424  2.3420 -1.8991
 1755TIP3   OH226679   0.354   3.492  13.077  0.2637  0.5471  0.1640
 1755TIP3    H126680   0.360   3.409  13.030  1.1413  0.4087  0.4943
 1755TIP3    H226681   0.398   3.475  13.161 -1.4810  0.7174  1.1460
 1756TIP3   OH226682   5.238   6.594  15.183 -0.4144 -0.0361 -0.3739
 1756TIP3    H126683   5.165   6.545  15.221 -1.0574  1.2457  0.1192
 1756TIP3    H226684   5.218   6.685  15.204  2.1971  0.2526  1.3402
 1757TIP3   OH226685   6.534   5.931   1.700  0.2778 -0.0887  0.3363
 1757TIP3    H126686   6.577   5.981   1.630  1.2662 -0.4499  0.6622
 1757TIP3    H226687   6.468   5.990   1.735 -0.2456  0.0858 -0.9176
 1758TIP3   OH226688   1.550   5.560  10.798 -0.6606  0.4914 -0.2072
 1758TIP3    H126689   1.473   5.511  10.827  1.0661 -0.8062  2.5792
 1758TIP3    H226690   1.597   5.498  10.742 -1.0525  0.8881 -0.9904
 1759TIP3   OH226691   5.357   4.587  14.843  0.0931  0.0400  0.1475
 1759TIP3    H126692   5.289   4.592  14.909 -0.1784  0.7204 -0.1703
 1759TIP3    H226693   5.399   4.673  14.846  1.2930 -0.5454  0.7061
 1760TIP3   OH226694   2.627   1.228  14.990  0.1838  0.7016 -0.5316
 1760TIP3    H126695   2.535   1.204  14.993  0.4420 -0.2655  1.1370
 1760TIP3    H226696   2.630   1.308  14.937 -1.7625  1.4582  0.4097
 1761TIP3   OH226697   0.973   4.103  12.511  0.4785 -0.1775 -0.0434
 1761TIP3    H126698   0.899   4.164  12.511  1.3130  0.9025  1.5966
 1761TIP3    H226699   1.033   4.140  12.447 -0.8935 -1.7920 -2.3995
 1762TIP3   OH226700   2.136   4.657   1.698  0.0744  0.1573  0.6676
 1762TIP3    H126701   2.097   4.596   1.759  0.2942 -0.3679  0.2900
 1762TIP3    H226702   2.210   4.609   1.659 -0.5923  0.1511 -0.6607
 1763TIP3   OH226703   3.136   2.378   1.597  0.6208  0.2020  0.0195
 1763TIP3    H126704   3.157   2.292   1.633 -0.4069  0.4656  1.3044
 1763TIP3    H226705   3.216   2.429   1.609  0.1701  0.4167  2.3764
 1764TIP3   OH226706   3.348   1.503   4.629 -0.1230  0.3742  0.2162
 1764TIP3    H126707   3.307   1.505   4.716 -1.1316  0.5745 -0.2518
 1764TIP3    H226708   3.419   1.567   4.634 -0.9290  1.2592  0.5315
 1765TIP3   OH226709   6.774   3.531   5.262  0.2237 -0.5969  0.7006
 1765TIP3    H126710   6.692   3.565   5.298  0.0182 -2.6643  2.3617
 1765TIP3    H226711   6.771   3.437   5.279  1.8904 -1.1208 -1.3825
 1766TIP3   OH226712   4.513   5.776   3.843 -0.2938 -0.3446 -0.0516
 1766TIP3    H126713   4.538   5.715   3.912 -0.6628 -2.4892 -1.7196
 1766TIP3    H226714   4.573   5.756   3.771 -0.8514  0.8278 -0.8749
 1767TIP3   OH226715   2.567   6.073   1.996 -0.3966 -0.2705  0.2996
 1767TIP3    H126716   2.554   6.135   1.924  1.0129  0.7741  0.8934
 1767TIP3    H226717   2.502   6.004   1.981 -1.2378  0.7684 -1.0260
 1768TIP3   OH226718   1.786   0.607  16.701 -0.1149  0.3649  0.0747
 1768TIP3    H126719   1.773   0.671  16.631 -0.1811 -0.1373 -0.3777
 1768TIP3    H226720   1.866   0.561  16.676 -0.5632 -0.3401 -0.0731
 1769TIP3   OH226721   6.185   6.295  14.921  0.2158 -0.0785 -0.0512
 1769TIP3    H126722   6.176   6.388  14.900 -1.7439 -0.0138  0.8673
 1769TIP3    H226723   6.147   6.250  14.845 -0.1608 -0.0792  0.1365
 1770TIP3   OH226724   4.878   0.024   6.100  0.4168 -0.7553 -0.6510
 1770TIP3    H126725   4.807   0.042   6.162  1.0822 -0.5579  0.0648
 1770TIP3    H226726   4.834   0.022   6.014 -0.0678  2.3856 -0.6151
 1771TIP3   OH226727   0.909   0.917   0.646  0.1542  0.8487  0.3517
 1771TIP3    H126728   0.982   0.855   0.654  0.4106  1.2355  1.1660
 1771TIP3    H226729   0.902   0.933   0.552  0.5062  0.0860  0.1815
 1772TIP3   OH226730   5.287   2.647   0.796 -0.3176  0.1465  0.0896
 1772TIP3    H126731   5.320   2.673   0.710  0.7486 -1.1554  0.0728
 1772TIP3    H226732   5.284   2.728   0.846  1.1376  0.6070 -0.5197
 1773TIP3   OH226733   2.045   0.325   2.098  0.6366 -0.1138 -0.0036
 1773TIP3    H126734   2.132   0.365   2.095  0.5672  0.0914  0.7106
 1773TIP3    H226735   2.009   0.352   2.182  0.2581 -0.9905  0.1268
 1774TIP3   OH226736   2.176   0.002  13.040  0.3491  0.3734 -0.1618
 1774TIP3    H126737   2.096   0.055  13.038 -0.9145 -1.4333 -1.0506
 1774TIP3    H226738   2.228   0.039  13.111 -0.6123  2.5199 -0.4935
 1775TIP3   OH226739   3.441   0.710  13.807 -0.3957 -0.3829 -0.5352
 1775TIP3    H126740   3.391   0.631  13.827 -0.3894 -0.7374 -1.8769
 1775TIP3    H226741   3.411   0.737  13.721 -0.9324  1.5198  0.1989
 1776TIP3   OH226742   5.747   2.936   2.627  0.1177  0.3021 -0.7018
 1776TIP3    H126743   5.786   3.016   2.662  0.3512  0.3094 -0.9750
 1776TIP3    H226744   5.711   2.891   2.703 -0.4444  0.8979 -0.6010
 1777TIP3   OH226745   4.163   5.406  17.112 -0.1651 -0.1832 -0.1229
 1777TIP3    H126746   4.167   5.482  17.171 -0.9175 -0.0286 -0.2587
 1777TIP3    H226747   4.104   5.434  17.042  0.4146 -0.5107 -0.7441
 1778TIP3   OH226748   1.517   1.059  12.723  0.0284  0.4333 -0.2428
 1778TIP3    H126749   1.605   1.024  12.713  0.0504 -0.1846  1.7184
 1778TIP3    H226750   1.528   1.154  12.716  0.9327  0.3905  0.3887
 1779TIP3   OH226751   0.842   6.589   2.696  0.7404 -0.2905 -0.1980
 1779TIP3    H126752   0.857   6.642   2.775  0.4628 -1.6018  0.7658
 1779TIP3    H226753   0.927   6.585   2.653  0.3299  2.8880 -1.6203
 1780TIP3   OH226754   3.524   0.400  15.492 -0.8625  0.4939 -0.1933
 1780TIP3    H126755   3.499   0.467  15.555  0.9586  0.2739  0.8489
 1780TIP3    H226756   3.493   0.318  15.530  2.6458 -0.0199  2.0434
 1781TIP3   OH226757   4.138   5.421   3.318  0.2651 -0.2398 -0.1765
 1781TIP3    H126758   4.212   5.379   3.360  0.1581 -0.8140 -0.5486
 1781TIP3    H226759   4.147   5.514   3.339  0.7477 -0.3916  0.2844
 1782TIP3   OH226760   0.600   1.626  14.242 -0.2999 -0.4329 -0.2195
 1782TIP3    H126761   0.617   1.562  14.312 -1.1138 -0.9492 -0.4822
 1782TIP3    H226762   0.584   1.573  14.164  1.1599  0.1509 -0.9496
 1783TIP3   OH226763   5.311   4.437   1.448 -0.0111  0.2617  0.6007
 1783TIP3    H126764   5.381   4.403   1.394 -0.4870  0.3103 -0.0530
 1783TIP3    H226765   5.328   4.532   1.452 -0.3540  0.3488 -0.0151
 1784TIP3   OH226766   3.031   0.512   3.273  0.1098  0.4674 -0.2219
 1784TIP3    H126767   2.982   0.442   3.316 -0.8662  1.6420  0.6713
 1784TIP3    H226768   3.111   0.521   3.325  0.0369  0.2861 -0.0784
 1785TIP3   OH226769   6.123   1.778  14.867  0.1599  0.0495 -0.1711
 1785TIP3    H126770   6.122   1.714  14.796 -1.0020 -0.5706  0.3669
 1785TIP3    H226771   6.168   1.854  14.831  0.7194 -0.7231 -1.1387
 1786TIP3   OH226772   5.127   2.329   6.092  0.2106 -0.0255 -0.1899
 1786TIP3    H126773   5.172   2.251   6.125  0.6696  0.3464  0.0769
 1786TIP3    H226774   5.083   2.365   6.168 -1.9800 -1.3166 -0.7664
 1787TIP3   OH226775   0.196   0.865  15.482  0.0147 -0.5026  0.2083
 1787TIP3    H126776   0.198   0.919  15.562 -0.4553  0.0464 -0.1381
 1787TIP3    H226777   0.130   0.798  15.501 -0.9448  0.3076 -0.1190
 1788TIP3   OH226778   3.644   4.308   4.774  0.0287 -0.0065  0.3885
 1788TIP3    H126779   3.595   4.245   4.721  1.2404  0.0176 -0.8169
 1788TIP3    H226780   3.577   4.352   4.827 -1.6002  1.4501 -2.6423
 1789TIP3   OH226781   2.051   5.841  13.319 -0.2817  0.3164  0.1732
 1789TIP3    H126782   2.014   5.792  13.246 -1.2184  3.3320 -1.5578
 1789TIP3    H226783   1.978   5.856  13.379 -0.0491 -0.1173  0.5814
 1790TIP3   OH226784   5.815   4.673   3.126  0.2391 -0.1671  0.3597
 1790TIP3    H126785   5.736   4.642   3.170 -0.3871 -0.8452 -1.1866
 1790TIP3    H226786   5.887   4.640   3.180 -0.4927 -1.5534  0.5213
 1791TIP3   OH226787   3.140   6.652   1.497  0.3261 -0.0822  0.0085
 1791TIP3    H126788   3.185   6.689   1.421  0.1369  0.4525  0.1584
 1791TIP3    H226789   3.198   6.582   1.527  0.7332  0.1603 -0.2051
 1792TIP3   OH226790   3.491   3.010  16.897 -0.4294  0.3353  0.0824
 1792TIP3    H126791   3.487   2.917  16.920 -0.6158  0.0795 -0.9043
 1792TIP3    H226792   3.583   3.026  16.874 -0.2121  0.6270  1.1229
 1793TIP3   OH226793   5.327   0.530  14.727 -0.3032  0.1660 -0.3054
 1793TIP3    H126794   5.400   0.580  14.764  0.9242  0.0128 -2.4026
 1793TIP3    H226795   5.296   0.584  14.654 -1.3868 -0.4374 -0.3143
 1794TIP3   OH226796   0.793   4.665  15.374 -0.0839 -0.4347 -0.5035
 1794TIP3    H126797   0.889   4.668  15.366 -0.1840  0.2105 -1.7071
 1794TIP3    H226798   0.762   4.650  15.285 -1.1752  2.3452 -0.7119
 1795TIP3   OH226799   5.707   4.993  12.228  0.1936  0.1817  0.2905
 1795TIP3    H126800   5.653   5.035  12.295  1.9356  0.1437  1.7986
 1795TIP3    H226801   5.757   5.065  12.190 -0.2651  0.0953 -0.5113
 1796TIP3   OH226802   1.236   0.456   2.589 -0.2025 -0.5280  0.2548
 1796TIP3    H126803   1.264   0.548   2.591  0.1021 -0.5770 -0.9188
 1796TIP3    H226804   1.157   0.454   2.643 -0.4764  0.5169 -0.0713
 1797TIP3   OH226805   3.077   3.913  13.975  0.5738 -0.4029 -0.6135
 1797TIP3    H126806   3.131   3.958  13.910  2.7557 -0.2960  1.1611
 1797TIP3    H226807   3.038   3.983  14.026 -0.3671 -0.4989 -1.1844
 1798TIP3   OH226808   5.695   1.218  14.116 -0.3882  0.8632 -0.0262
 1798TIP3    H126809   5.675   1.171  14.035 -1.9661  0.4385  0.5714
 1798TIP3    H226810   5.776   1.178  14.147 -2.3386 -2.5442  1.1735
 1799TIP3   OH226811   2.830   2.180  13.019 -0.1831  0.0701  0.4757
 1799TIP3    H126812   2.795   2.259  12.978  1.1999 -0.2199 -1.4034
 1799TIP3    H226813   2.777   2.109  12.982  0.6345 -0.1370 -0.3233
 1800TIP3   OH226814   4.471   4.677  12.267 -0.3359 -0.0482  0.2151
 1800TIP3    H126815   4.547   4.689  12.211  0.3955 -2.3791  0.6157
 1800TIP3    H226816   4.507   4.668  12.356 -1.1120 -0.6065  0.4885
 1801TIP3   OH226817   4.594   0.722  16.500  0.0324  0.0713 -0.2990
 1801TIP3    H126818   4.624   0.812  16.508 -1.3400  0.7340 -2.0057
 1801TIP3    H226819   4.513   0.719  16.552  0.2734 -0.2767  0.0582
 1802TIP3   OH226820   4.214   5.954  14.805  0.2786 -0.2789  0.2939
 1802TIP3    H126821   4.218   5.973  14.899 -0.8708 -0.8933  0.4758
 1802TIP3    H226822   4.135   5.998  14.775 -1.2394 -2.8033  0.2978
 1803TIP3   OH226823   3.065   6.188  17.069  0.9944  0.1784 -0.3630
 1803TIP3    H126824   3.074   6.092  17.067  2.2653  0.2917 -0.7426
 1803TIP3    H226825   3.107   6.213  17.152  0.9551  0.4298 -0.4210
 1804TIP3   OH226826   2.700   3.719  15.139  0.4199  0.1419 -0.6774
 1804TIP3    H126827   2.722   3.736  15.231  0.6424 -1.5099 -0.3989
 1804TIP3    H226828   2.667   3.803  15.107  1.7065  1.1463  0.4916
 1805TIP3   OH226829   0.342   1.800   4.455  0.0383 -0.2744  0.0929
 1805TIP3    H126830   0.393   1.774   4.532  0.2446 -0.7408 -0.1950
 1805TIP3    H226831   0.388   1.759   4.381 -1.4718 -1.8245 -0.0622
 1806TIP3   OH226832   4.434   3.100  13.155  0.1806 -0.5273  0.5574
 1806TIP3    H126833   4.393   3.183  13.180 -0.1335 -1.2532  2.5674
 1806TIP3    H226834   4.375   3.033  13.188  0.5429 -1.5872 -0.8584
 1807TIP3   OH226835   1.887   3.557   3.199 -0.4647 -0.4660  0.6894
 1807TIP3    H126836   1.903   3.553   3.105  3.4561 -1.1712  1.2326
 1807TIP3    H226837   1.891   3.465   3.227  1.8646 -0.0506  1.9078
 1808TIP3   OH226838   6.214   6.720  15.459 -0.1007  0.6240 -0.3736
 1808TIP3    H126839   6.210   6.645  15.520 -1.1479  1.2732  0.4010
 1808TIP3    H226840   6.300   6.713  15.418 -0.2217 -1.0979 -0.4444
 1809TIP3   OH226841   2.095   2.518  11.790 -0.3108 -0.7340  0.1798
 1809TIP3    H126842   2.002   2.505  11.812 -0.9564 -1.0886 -2.4548
 1809TIP3    H226843   2.095   2.588  11.726  1.2534 -0.8743 -0.0025
 1810TIP3   OH226844   1.592   5.375  14.811  0.1962 -0.4359  0.0420
 1810TIP3    H126845   1.603   5.361  14.905  0.3840  2.5714  0.5537
 1810TIP3    H226846   1.500   5.397  14.800 -0.0351 -1.6420 -0.6582
 1811TIP3   OH226847   1.290   4.880  14.179 -0.2044 -0.2137 -0.0410
 1811TIP3    H126848   1.375   4.861  14.138 -0.3874 -0.6260 -0.2300
 1811TIP3    H226849   1.263   4.796  14.217 -1.1033 -0.3831 -1.0216
 1812TIP3   OH226850   6.033   6.209   2.412  0.0966 -0.7234 -0.1307
 1812TIP3    H126851   6.034   6.175   2.322 -0.5646 -0.5442 -0.2100
 1812TIP3    H226852   5.978   6.147   2.460 -0.1633 -0.4074 -0.0170
 1813TIP3   OH226853   6.390   2.126   2.695  0.0101  0.2539 -0.1228
 1813TIP3    H126854   6.321   2.075   2.736 -0.7495  0.7189 -0.7924
 1813TIP3    H226855   6.427   2.069   2.629 -0.6333  0.4567 -0.6643
 1814TIP3   OH226856   4.479   3.545  13.180 -0.1613 -0.7355 -0.5819
 1814TIP3    H126857   4.421   3.527  13.255  2.3207 -1.4015  1.2907
 1814TIP3    H226858   4.463   3.472  13.120 -0.5204 -1.4766  0.3843
 1815TIP3   OH226859   5.276   3.170   5.193  0.0602 -0.5851  0.2070
 1815TIP3    H126860   5.215   3.148   5.264  0.0678  1.9874  1.1575
 1815TIP3    H226861   5.361   3.178   5.236  0.1538  0.5258 -0.1389
 1816TIP3   OH226862   0.334   2.045   4.783  0.0598  0.4126 -0.1533
 1816TIP3    H126863   0.353   1.959   4.748  0.8763  0.0137  1.2067
 1816TIP3    H226864   0.238   2.048   4.788  0.0460 -0.9570  1.0316
 1817TIP3   OH226865   2.805   0.300  12.715  0.6831  0.0896 -0.0386
 1817TIP3    H126866   2.835   0.391  12.716  1.7719 -0.2335 -0.7634
 1817TIP3    H226867   2.738   0.297  12.647  1.5962  0.0937 -0.9637
 1818TIP3   OH226868   5.518   5.431   1.445 -0.4578  0.0475 -0.2724
 1818TIP3    H126869   5.600   5.440   1.492 -0.3644 -1.1993 -0.1778
 1818TIP3    H226870   5.540   5.382   1.366 -1.1301 -0.4173 -0.1791
 1819TIP3   OH226871   5.109   4.008  14.345 -0.2935  0.0900  0.1087
 1819TIP3    H126872   5.086   3.925  14.386 -1.6054  0.7414  0.7105
 1819TIP3    H226873   5.171   3.983  14.276  1.0304 -1.1485  1.6492
 1820TIP3   OH226874   1.852   6.770   3.409 -0.0956 -0.0768 -0.4296
 1820TIP3    H126875   1.917   6.769   3.338 -1.3318  1.3878 -1.6665
 1820TIP3    H226876   1.850   6.680   3.441  0.4702 -0.8174 -2.3371
 1821TIP3   OH226877   6.227   0.513  14.251 -0.5705 -0.2897 -0.3969
 1821TIP3    H126878   6.218   0.526  14.156 -0.2985 -1.1101 -0.5422
 1821TIP3    H226879   6.142   0.539  14.286 -0.2383  1.3411 -0.6975
 1822TIP3   OH226880   3.267   6.709  13.530  0.3168 -0.5285 -0.2265
 1822TIP3    H126881   3.286   6.621  13.495 -0.3150 -0.4322 -0.8391
 1822TIP3    H226882   3.285   6.702  13.623 -2.1182 -2.0619  0.2303
 1823TIP3   OH226883   2.293   3.515   4.631 -0.3017  0.3353  0.0892
 1823TIP3    H126884   2.302   3.610   4.636 -4.9137  1.0518 -0.4081
 1823TIP3    H226885   2.228   3.501   4.562 -0.8036 -3.0995  1.0731
 1824TIP3   OH226886   3.779   4.339  11.378  0.1376  0.2172  0.2648
 1824TIP3    H126887   3.779   4.408  11.312 -2.3200 -0.2767 -0.3862
 1824TIP3    H226888   3.738   4.379  11.455 -1.3569 -0.4317 -0.1365
 1825TIP3   OH226889   1.443   5.106  13.761 -0.0742 -0.4028 -0.4865
 1825TIP3    H126890   1.433   5.027  13.708 -2.9715 -0.9473  0.6843
 1825TIP3    H226891   1.400   5.175  13.710 -1.0430 -0.4819  0.1970
 1826TIP3   OH226892   0.302   4.179  12.695 -0.0192 -0.0316 -0.1605
 1826TIP3    H126893   0.286   4.216  12.782  0.1811  0.7518 -0.4502
 1826TIP3    H226894   0.221   4.132  12.674 -0.2201  0.1110  0.2798
 1827TIP3   OH226895   5.065   1.043   5.284  0.7543  0.4343 -0.4395
 1827TIP3    H126896   4.981   1.047   5.329  0.0873 -0.9153 -1.4939
 1827TIP3    H226897   5.110   1.124   5.309 -0.5037  0.7732  0.8115
 1828TIP3   OH226898   2.592   4.814   5.274 -0.8350 -0.6296  0.2175
 1828TIP3    H126899   2.573   4.884   5.211 -3.0606  0.2239  1.7166
 1828TIP3    H226900   2.640   4.749   5.224 -1.4958  0.5396 -2.0604
 1829TIP3   OH226901   2.686   0.765  16.445 -0.2086  0.2384  0.7755
 1829TIP3    H126902   2.735   0.770  16.527 -2.6364 -0.7746  2.4160
 1829TIP3    H226903   2.735   0.704  16.391  2.3710  2.2326  0.6989
 1830TIP3   OH226904   5.837   5.905  12.043 -0.2566  0.4379  0.2140
 1830TIP3    H126905   5.812   5.830  12.097 -1.3862  2.1427  2.2312
 1830TIP3    H226906   5.901   5.870  11.981  1.5631 -1.6140  3.0044
 1831TIP3   OH226907   0.678   4.054   4.479 -0.7163 -0.8397  0.0041
 1831TIP3    H126908   0.614   4.115   4.443 -0.1291  0.7106  1.4896
 1831TIP3    H226909   0.759   4.105   4.487  0.3518 -2.3672 -0.5425
 1832TIP3   OH226910   6.639   4.046  11.877  0.1271  0.1374 -0.1107
 1832TIP3    H126911   6.568   4.109  11.889 -0.1181 -0.3758  1.2722
 1832TIP3    H226912   6.640   3.995  11.957  1.3387 -0.6118 -0.5719
 1833TIP3   OH226913   6.518   6.072   4.183 -0.2699  0.8853 -0.1483
 1833TIP3    H126914   6.452   6.017   4.141 -0.0914  1.3600 -1.0758
 1833TIP3    H226915   6.476   6.102   4.264 -0.1220 -1.1543  0.7646
 1834TIP3   OH226916   1.172   1.300  14.340  0.2660 -0.5145 -0.0969
 1834TIP3    H126917   1.224   1.343  14.409  0.7215 -1.6057  0.2533
 1834TIP3    H226918   1.237   1.265  14.279 -0.1217 -0.0763 -0.7802
 1835TIP3   OH226919   5.749   3.552   3.700 -0.6447  0.2943  0.4207
 1835TIP3    H126920   5.775   3.524   3.612 -0.9370  1.2661  0.0192
 1835TIP3    H226921   5.654   3.549   3.700 -0.7166  1.8334  0.1694
 1836TIP3   OH226922   5.706   0.037   3.364  0.0550  0.5214 -0.5329
 1836TIP3    H126923   5.616   0.050   3.334  0.2935  1.7738 -0.7567
 1836TIP3    H226924   5.701   0.044   3.459 -0.6156 -2.9368 -0.1541
 1837TIP3   OH226925   6.043   5.444  15.337 -0.3902  1.0538 -0.5367
 1837TIP3    H126926   6.109   5.453  15.268  0.0766  0.3931 -0.1821
 1837TIP3    H226927   5.979   5.382  15.300 -0.4192  1.1144 -0.5880
 1838TIP3   OH226928   2.566   6.672  14.673 -0.0149 -0.2607 -0.6416
 1838TIP3    H126929   2.656   6.640  14.668  0.2249  0.4611 -1.1372
 1838TIP3    H226930   2.543   6.665  14.765  0.8172  0.2737 -0.3842
 1839TIP3   OH226931   5.452   2.057   5.445  0.0486  0.1523  0.0154
 1839TIP3    H126932   5.368   2.021   5.417  0.3184  0.8513 -1.8558
 1839TIP3    H226933   5.456   2.040   5.539 -1.7295 -0.7806 -0.0442
 1840TIP3   OH226934   2.160   6.374  15.138 -0.0202  0.1735 -0.1704
 1840TIP3    H126935   2.068   6.392  15.159 -0.0753 -1.6318  1.3955
 1840TIP3    H226936   2.210   6.432  15.195 -0.2138 -0.2849  0.4851
 1841TIP3   OH226937   0.256   0.170  12.353  0.3113  0.4992  0.1609
 1841TIP3    H126938   0.198   0.130  12.288  0.7946  0.1128 -0.0389
 1841TIP3    H226939   0.297   0.095  12.397 -0.5103  0.7232  1.3865
 1842TIP3   OH226940   2.248   3.161  14.226 -0.1500  0.6192  0.6408
 1842TIP3    H126941   2.269   3.196  14.140 -1.0289 -1.0017 -0.2798
 1842TIP3    H226942   2.316   3.096  14.243 -0.6929  0.0284  0.5895
 1843TIP3   OH226943   3.130   2.415  12.373  0.5830 -0.1297 -0.5539
 1843TIP3    H126944   3.087   2.337  12.409 -0.1453 -0.9297 -2.9400
 1843TIP3    H226945   3.111   2.484  12.437  0.3603 -1.6599  1.1207
 1844TIP3   OH226946   4.275   5.395   1.600  0.1313  0.1703  0.3354
 1844TIP3    H126947   4.328   5.465   1.637 -1.3648  0.8049  1.4212
 1844TIP3    H226948   4.187   5.432   1.595 -0.7071 -1.6120  0.9398
 1845TIP3   OH226949   0.620   5.945   2.169 -0.3877 -0.1775 -0.1178
 1845TIP3    H126950   0.605   5.857   2.136 -0.5545 -0.5373  0.8754
 1845TIP3    H226951   0.534   5.975   2.198 -0.3065  0.2532 -0.3184
 1846TIP3   OH226952   6.182   6.703  12.503  0.4023 -0.3299  0.1507
 1846TIP3    H126953   6.139   6.678  12.421  1.7532  0.9153 -0.9796
 1846TIP3    H226954   6.112   6.696  12.569 -1.5600  1.5349 -1.5621
 1847TIP3   OH226955   1.474   5.204  14.184  0.0584  0.1022 -0.7471
 1847TIP3    H126956   1.511   5.161  14.107 -0.7478  0.8819 -1.5938
 1847TIP3    H226957   1.532   5.279  14.200  0.8072 -0.6143  0.0438
 1848TIP3   OH226958   2.088   5.993  12.324 -0.3567 -0.1456 -0.1951
 1848TIP3    H126959   2.035   6.066  12.357  0.3582  1.2888 -1.9911
 1848TIP3    H226960   2.160   5.985  12.386 -0.7431  0.3265  0.3203
 1849TIP3   OH226961   4.189   3.551  14.319 -0.5543 -0.3860 -0.0424
 1849TIP3    H126962   4.283   3.540  14.332 -0.3084  3.0642  2.5540
 1849TIP3    H226963   4.180   3.634  14.272 -2.2687  0.1900  1.2033
 1850TIP3   OH226964   4.647   0.056   2.178 -0.1481 -0.2521 -0.3995
 1850TIP3    H126965   4.617   0.014   2.097 -0.5504  0.3195 -0.5523
 1850TIP3    H226966   4.577   0.039   2.241  0.2108 -0.7824 -0.1351
 1851TIP3   OH226967   2.638   0.027  13.830 -0.0560 -0.6584  0.3399
 1851TIP3    H126968   2.661  -0.034  13.760 -0.1388 -1.5018  1.0254
 1851TIP3    H226969   2.558  -0.009  13.868 -0.1172 -0.1143  0.7392
 1852TIP3   OH226970   6.433   5.085  11.445 -0.4026 -0.0419 -0.4644
 1852TIP3    H126971   6.493   5.026  11.491 -1.4030 -0.0099  0.9353
 1852TIP3    H226972   6.480   5.109  11.365  1.8551  0.6834  0.9810
 1853TIP3   OH226973   4.336   4.494  11.097  0.6197  0.5176 -0.1782
 1853TIP3    H126974   4.424   4.531  11.097  1.2690 -0.9517 -0.6812
 1853TIP3    H226975   4.342   4.417  11.041 -0.7661 -0.1176  0.4832
 1854TIP3   OH226976   6.336   1.657   2.494 -0.0058 -0.1905  0.2211
 1854TIP3    H126977   6.347   1.689   2.583  0.3799  0.0244  0.1025
 1854TIP3    H226978   6.292   1.573   2.503 -0.8989  0.3033  0.5505
 1855TIP3   OH226979   0.429   5.857  11.498  0.9286  0.4185 -0.2592
 1855TIP3    H126980   0.415   5.903  11.581 -2.4586 -0.0640 -0.4112
 1855TIP3    H226981   0.468   5.773  11.523  0.6874  0.5992  0.7646
 1856TIP3   OH226982   5.920   0.568   2.824  0.0308 -0.8020 -0.6821
 1856TIP3    H126983   5.952   0.628   2.891  3.7566 -0.3396 -2.6106
 1856TIP3    H226984   5.825   0.584   2.821  0.1374  1.2452  2.3322
 1857TIP3   OH226985   1.532   1.633  16.406 -0.0642  1.1953  0.3169
 1857TIP3    H126986   1.527   1.610  16.499  0.6706 -0.6843 -0.0479
 1857TIP3    H226987   1.579   1.716  16.404  1.7540  0.2541  1.5453
 1858TIP3   OH226988   4.496   3.954   3.462  0.1655 -0.0240  0.2740
 1858TIP3    H126989   4.441   3.877   3.474  0.3112  0.0699  1.6750
 1858TIP3    H226990   4.557   3.930   3.393 -0.9018 -0.5324 -0.5184
 1859TIP3   OH226991   3.561   1.386  16.160 -0.5703 -0.1851 -0.0275
 1859TIP3    H126992   3.538   1.299  16.193  2.0069 -0.6047  0.8807
 1859TIP3    H226993   3.512   1.394  16.078 -0.8859 -2.4998 -0.1231
 1860TIP3   OH226994   3.097   0.626   3.866 -0.9182  0.2963  0.3610
 1860TIP3    H126995   3.071   0.552   3.921  0.5356 -0.6560 -0.1689
 1860TIP3    H226996   3.108   0.589   3.779 -0.3166  1.1614  0.0530
 1861TIP3   OH226997   2.605   4.543  13.161 -0.2094 -0.4606 -0.5100
 1861TIP3    H126998   2.655   4.479  13.211 -1.2973 -2.3490 -1.6792
 1861TIP3    H226999   2.514   4.519  13.175 -0.6520  0.7856 -1.0714
 1862TIP3   OH227000   1.181   1.967   3.800  0.1175 -0.1205  0.1048
 1862TIP3    H127001   1.152   1.900   3.739 -1.1196  0.4979 -0.0304
 1862TIP3    H227002   1.273   1.947   3.817  0.3450 -0.6254 -1.5309
 1863TIP3   OH227003   2.394   2.234  16.406  0.1912 -0.7406 -0.2346
 1863TIP3    H127004   2.385   2.198  16.494 -1.4473 -1.6314 -0.7254
 1863TIP3    H227005   2.305   2.231  16.369  0.8127 -0.2930 -1.8889
 1864TIP3   OH227006   3.732   5.930  13.356 -1.0032 -0.1793  0.0200
 1864TIP3    H127007   3.739   5.835  13.343  1.7160  0.0046 -0.4919
 1864TIP3    H227008   3.732   5.942  13.451 -1.8328 -0.6853  0.0949
 1865TIP3   OH227009   2.351   1.977   4.555 -0.9102 -0.2902 -0.4160
 1865TIP3    H127010   2.382   2.034   4.626 -0.0279 -2.2676  0.8605
 1865TIP3    H227011   2.425   1.974   4.494 -0.4781 -0.9733  0.1169
 1866TIP3   OH227012   4.108   2.489   0.603 -0.0358 -0.1191  0.4899
 1866TIP3    H127013   4.121   2.544   0.680 -0.0830  3.3232 -1.7687
 1866TIP3    H227014   4.013   2.478   0.598 -0.3832  2.6257 -0.8298
 1867TIP3   OH227015   2.197   4.392   0.460 -0.1230 -0.1954 -0.4402
 1867TIP3    H127016   2.220   4.318   0.404  0.6035 -0.4721  0.1994
 1867TIP3    H227017   2.104   4.379   0.480 -0.5953  0.3063 -2.1434
 1868TIP3   OH227018   5.849   4.716   5.175  0.2438  0.2949  0.2481
 1868TIP3    H127019   5.761   4.753   5.177  0.1951  0.1624  0.5952
 1868TIP3    H227020   5.893   4.763   5.104 -0.9515 -1.5661 -1.8420
 1869TIP3   OH227021   0.262   0.580  10.545  0.7588  0.2148 -0.7860
 1869TIP3    H127022   0.304   0.637  10.610  2.1654  0.1860 -1.6164
 1869TIP3    H227023   0.183   0.548  10.588  2.1768 -0.6569  1.3525
 1870TIP3   OH227024   2.083   5.653  10.878  0.3303 -0.1363 -0.4138
 1870TIP3    H127025   2.138   5.605  10.816  1.0343 -3.0356  2.1749
 1870TIP3    H227026   2.142   5.717  10.919  0.5581 -0.0838 -0.8216
 1871TIP3   OH227027   4.153   2.091   0.468 -0.2384 -0.4007  0.1832
 1871TIP3    H127028   4.110   2.129   0.545 -2.3632  0.7926 -1.4844
 1871TIP3    H227029   4.152   2.161   0.403  1.0577 -1.5259 -1.1188
 1872TIP3   OH227030   5.391   2.915   4.986  0.0524 -0.1913  0.0425
 1872TIP3    H127031   5.363   2.917   4.894 -0.1508  1.9305  0.1007
 1872TIP3    H227032   5.486   2.909   4.982 -0.0184 -1.3716 -0.2592
 1873TIP3   OH227033   3.381   4.743  14.589  0.3381 -0.1071 -0.2114
 1873TIP3    H127034   3.368   4.835  14.566 -0.4233  0.1932  1.2464
 1873TIP3    H227035   3.313   4.697  14.540  0.2708  0.2026 -0.4168
 1874TIP3   OH227036   0.964   2.907   1.040  0.2701 -0.0829 -0.1035
 1874TIP3    H127037   0.961   2.997   1.072 -0.9886  0.1217 -0.7329
 1874TIP3    H227038   1.056   2.892   1.019  0.5795  0.8675  0.5093
 1875TIP3   OH227039   4.207   2.033  14.028 -0.1239  0.1032 -0.2454
 1875TIP3    H127040   4.205   2.129  14.034  0.1960  0.0706  0.3828
 1875TIP3    H227041   4.295   2.009  14.055  0.2053 -0.3008 -1.5869
 1876TIP3   OH227042   6.339   6.460   2.997  0.0963  0.2995  0.0644
 1876TIP3    H127043   6.306   6.378   2.960 -0.0580  1.0499 -1.5156
 1876TIP3    H227044   6.409   6.487   2.937  0.4428  1.1152  0.8085
 1877TIP3   OH227045   0.362   5.953   0.041  0.1069  0.1597  0.0507
 1877TIP3    H127046   0.401   6.034   0.074 -0.4396  0.3816  0.1576
 1877TIP3    H227047   0.283   5.981  -0.005  0.6735 -0.1760 -1.1798
 1878TIP3   OH227048   2.232   5.575  13.684 -0.4639 -0.0886  0.0993
 1878TIP3    H127049   2.196   5.505  13.630  2.1729 -1.8451  0.4598
 1878TIP3    H227050   2.288   5.625  13.625 -0.6949  0.4673  0.3375
 1879TIP3   OH227051   5.066   2.735   5.405 -0.0433  0.4264  0.4794
 1879TIP3    H127052   4.980   2.760   5.438 -0.7629 -0.9720 -0.2624
 1879TIP3    H227053   5.086   2.653   5.451 -0.0578 -0.3633 -0.8813
 1880TIP3   OH227054   5.565   5.175  14.309  0.2097  0.2317  0.0417
 1880TIP3    H127055   5.581   5.132  14.225  3.3160 -0.9493  1.1030
 1880TIP3    H227056   5.598   5.114  14.374  1.1010  2.5357  1.8971
 1881TIP3   OH227057   4.164   5.763  11.885  0.6230 -0.1603 -0.3034
 1881TIP3    H127058   4.148   5.764  11.790 -1.2298  3.8742 -0.1659
 1881TIP3    H227059   4.077   5.748  11.923  0.9196  0.5945  0.7170
 1882TIP3   OH227060   5.009   4.238   3.255 -0.7477  0.3522  0.3493
 1882TIP3    H127061   5.034   4.264   3.344 -2.1284  1.0574  0.5493
 1882TIP3    H227062   5.080   4.181   3.226  0.3664  1.1520  1.4150
 1883TIP3   OH227063   6.732   3.409   6.499  0.3160 -0.0384 -0.3045
 1883TIP3    H127064   6.812   3.414   6.447  0.4337  1.7414  0.0051
 1883TIP3    H227065   6.663   3.388   6.436  0.6789  0.6753 -0.9546
 1884TIP3   OH227066   6.698   2.697   6.829 -0.0044  0.4446 -0.7731
 1884TIP3    H127067   6.696   2.788   6.799  0.2090  0.0512 -2.0554
 1884TIP3    H227068   6.700   2.703   6.924  0.7591  1.7963 -0.8485
 1885TIP3   OH227069   1.693   4.060   0.539  0.4539 -0.4708  0.3090
 1885TIP3    H127070   1.612   4.111   0.533  1.2869  0.7414 -1.2780
 1885TIP3    H227071   1.664   3.972   0.563 -1.1422  0.3759  1.6967
 1886TIP3   OH227072   2.293   5.607   4.960 -0.6592  0.0991  0.3491
 1886TIP3    H127073   2.262   5.588   4.871 -2.0664 -0.7825  1.0075
 1886TIP3    H227074   2.222   5.579   5.017  0.3525  0.3729  1.7901
 1887TIP3   OH227075   3.859   1.439   0.620  0.1020 -0.2996  0.1169
 1887TIP3    H127076   3.926   1.504   0.601  0.5955 -0.4004  1.4350
 1887TIP3    H227077   3.885   1.362   0.570 -0.8397  0.6462 -1.9934
 1888TIP3   OH227078   4.744   5.536   4.843 -0.3184  0.3060  0.4918
 1888TIP3    H127079   4.810   5.539   4.773 -1.2687  1.3582 -0.4122
 1888TIP3    H227080   4.704   5.450   4.834  0.8177 -0.2988  0.9679
 1889TIP3   OH227081   6.283   4.787   2.221  0.2683  0.2713  0.0465
 1889TIP3    H127082   6.218   4.775   2.152  1.0988 -0.2254 -0.6632
 1889TIP3    H227083   6.344   4.714   2.210  1.2989  1.0799  0.3055
 1890TIP3   OH227084   2.204   0.960  15.677 -0.3976  0.4870 -0.1033
 1890TIP3    H127085   2.113   0.945  15.703 -0.0593  0.1612  0.9461
 1890TIP3    H227086   2.211   1.055  15.668 -0.9345  0.4893 -0.5617
 1891TIP3   OH227087   5.518   5.757  16.023 -0.0815 -0.4178  0.4261
 1891TIP3    H127088   5.527   5.671  16.063 -1.5848 -0.9259 -0.2400
 1891TIP3    H227089   5.426   5.761  15.995 -0.1918  1.6198  0.9210
 1892TIP3   OH227090   5.916   1.160   6.443  0.1568  0.2086 -0.2201
 1892TIP3    H127091   5.847   1.200   6.390 -1.1134 -0.4451  0.9018
 1892TIP3    H227092   5.966   1.234   6.477  1.0996  0.6565 -2.3694
 1893TIP3   OH227093   5.880   3.077   3.214  0.6962 -0.7649 -0.7534
 1893TIP3    H127094   5.813   3.022   3.173  0.1985  0.6302 -1.9256
 1893TIP3    H227095   5.923   3.121   3.140  1.2920  0.1624  0.1208
 1894TIP3   OH227096   1.689   5.506   4.846  0.0152 -0.1828 -0.0422
 1894TIP3    H127097   1.625   5.471   4.783  0.2307  0.5572 -0.6921
 1894TIP3    H227098   1.695   5.439   4.914  1.1681 -1.9041 -1.7263
 1895TIP3   OH227099   2.630   2.676  12.044  0.2092  0.7587 -0.0414
 1895TIP3    H127100   2.723   2.670  12.067  0.1482  1.5412  0.4747
 1895TIP3    H227101   2.589   2.713  12.123 -0.2346  2.2026 -0.9116
 1896TIP3   OH227102   3.766   1.815   3.954 -0.8807 -0.3659  0.8403
 1896TIP3    H127103   3.766   1.770   3.869  0.0347  1.6638 -0.3112
 1896TIP3    H227104   3.676   1.805   3.986 -1.5882 -0.2033 -0.9492
 1897TIP3   OH227105   0.198   6.357  14.836 -0.5942 -0.8359  0.1888
 1897TIP3    H127106   0.154   6.345  14.920 -0.5698  0.1576  0.3573
 1897TIP3    H227107   0.290   6.343  14.855 -0.2168  1.9772  0.9712
 1898TIP3   OH227108   0.427   3.978   4.533  0.5295  0.0380  0.2840
 1898TIP3    H127109   0.515   4.001   4.562 -0.9020  5.2788  1.5754
 1898TIP3    H227110   0.434   3.973   4.437  2.2537 -0.1040  0.3907
 1899TIP3   OH227111   0.667   6.653  16.282  0.2475  0.0446  0.4563
 1899TIP3    H127112   0.674   6.592  16.355  1.9514 -2.1896 -1.4146
 1899TIP3    H227113   0.630   6.733  16.321  1.1190 -0.9777  3.7351
 1900TIP3   OH227114   2.848   5.488  10.535  0.0438  0.5139  0.1613
 1900TIP3    H127115   2.794   5.556  10.575 -0.4269 -0.4063  1.1494
 1900TIP3    H227116   2.824   5.408  10.581 -0.2520 -0.5485 -1.7372
 1901TIP3   OH227117   4.936   6.469  10.751 -0.9256  0.3401  0.4305
 1901TIP3    H127118   4.904   6.530  10.685  0.7444  0.6063 -0.1781
 1901TIP3    H227119   4.922   6.382  10.712  1.7007  0.5281 -1.1713
 1902TIP3   OH227120   4.197   6.158   1.671  0.2139  0.5945 -0.5820
 1902TIP3    H127121   4.106   6.178   1.690 -0.3615 -1.4567 -0.8936
 1902TIP3    H227122   4.216   6.206   1.590 -0.1819  1.9758  0.1132
 1903TIP3   OH227123   1.342   2.564   6.213 -0.0313 -0.0228  0.7071
 1903TIP3    H127124   1.327   2.485   6.265 -0.6298  0.4373  1.2378
 1903TIP3    H227125   1.346   2.635   6.277  5.1882 -0.0381  0.8700
 1904TIP3   OH227126   3.072   6.370  13.686  0.0453 -0.1515 -1.5762
 1904TIP3    H127127   3.036   6.374  13.597  0.4289  0.4048 -1.7082
 1904TIP3    H227128   3.025   6.297  13.727 -2.4039  1.4686 -1.2388
 1905TIP3   OH227129   5.030   5.985  15.376 -0.3959  0.0012 -0.2630
 1905TIP3    H127130   5.037   5.948  15.463  0.4214 -1.7425 -1.0359
 1905TIP3    H227131   4.937   5.977  15.354 -0.4259 -0.4900  0.0426
 1906TIP3   OH227132   5.308   6.748   0.857  0.2864 -0.1012 -0.0680
 1906TIP3    H127133   5.273   6.745   0.768  0.0910  0.7732 -0.0286
 1906TIP3    H227134   5.328   6.656   0.877 -0.7466 -0.4686 -0.5797
 1907TIP3   OH227135   5.937   1.860  11.214  0.3016  0.0467 -0.4563
 1907TIP3    H127136   5.853   1.828  11.247  0.4514  0.6615  0.5517
 1907TIP3    H227137   5.919   1.948  11.182  0.7694  0.6270  0.8092
 1908TIP3   OH227138   0.983   1.495  15.088  0.2818  0.8157  0.6265
 1908TIP3    H127139   0.976   1.462  14.999  0.9468  1.3275  0.3782
 1908TIP3    H227140   0.978   1.417  15.143  3.5236  0.0273 -0.0168
 1909TIP3   OH227141   1.116   4.412  14.369 -0.5497 -0.1065 -0.0079
 1909TIP3    H127142   1.080   4.465  14.441 -1.7204 -0.6355 -0.1806
 1909TIP3    H227143   1.120   4.323  14.405  0.0311 -0.1605 -0.2016
 1910TIP3   OH227144   0.874   5.040   6.728 -0.0406 -0.3463 -0.0455
 1910TIP3    H127145   0.949   5.005   6.680  0.9654 -0.1509  1.3305
 1910TIP3    H227146   0.868   5.131   6.698  2.5571  0.7554  2.3552
 1911TIP3   OH227147   2.096   2.654  16.289 -0.1467 -0.8309  0.2892
 1911TIP3    H127148   2.008   2.620  16.269  0.0956 -1.9787  1.0221
 1911TIP3    H227149   2.096   2.743  16.255 -1.4794 -0.9310 -0.0434
 1912TIP3   OH227150   4.895   4.588  13.446  0.0375  0.3634  0.2412
 1912TIP3    H127151   4.803   4.588  13.417 -0.5805 -1.5083  1.9624
 1912TIP3    H227152   4.933   4.511  13.404  0.2933  0.0794  0.9808
 1913TIP3   OH227153   5.740   2.271   4.682 -0.5274  0.2772  0.0143
 1913TIP3    H127154   5.700   2.184   4.691  0.3192 -0.0635  0.6492
 1913TIP3    H227155   5.737   2.289   4.588 -1.6886  0.0482 -0.0158
 1914TIP3   OH227156   0.413   0.494   3.300 -0.0848 -0.3286 -0.1960
 1914TIP3    H127157   0.474   0.436   3.347 -0.7059 -2.6873 -2.1128
 1914TIP3    H227158   0.327   0.459   3.321 -0.4709 -0.1634 -1.4612
 1915TIP3   OH227159   1.361   1.861  11.121  0.6183  1.0889  0.7049
 1915TIP3    H127160   1.452   1.851  11.095  0.4278 -3.1419  0.8846
 1915TIP3    H227161   1.316   1.888  11.040  1.6819  0.2544 -0.1998
 1916TIP3   OH227162   6.057   0.111   2.053  0.3038 -0.0399 -0.0873
 1916TIP3    H127163   6.037   0.027   2.094  0.1120 -0.1256 -0.3565
 1916TIP3    H227164   6.076   0.169   2.127 -0.1543 -0.1665  0.1323
 1917TIP3   OH227165   3.334   0.226   5.353 -0.3208 -0.4952  0.2093
 1917TIP3    H127166   3.285   0.145   5.337 -0.1977 -0.5383  0.0445
 1917TIP3    H227167   3.290   0.291   5.297  0.1488 -0.6603 -0.3618
 1918TIP3   OH227168   3.270   3.478  16.127 -0.0110  0.2459  0.5830
 1918TIP3    H127169   3.282   3.514  16.039 -2.0200 -0.1362  0.1013
 1918TIP3    H227170   3.221   3.545  16.175  0.1142 -0.0116  1.0817
 1919TIP3   OH227171   3.499   0.318   5.087  0.4868 -0.3188  0.0864
 1919TIP3    H127172   3.583   0.286   5.054  0.3666  0.3171 -0.8862
 1919TIP3    H227173   3.435   0.254   5.055  0.6613 -1.1968  1.4353
 1920TIP3   OH227174   4.744   6.781   0.797  0.2167 -0.2752 -0.4515
 1920TIP3    H127175   4.678   6.790   0.866  0.8256  1.9600 -0.0818
 1920TIP3    H227176   4.798   6.707   0.826 -1.1834 -1.1702 -0.0055
 1921TIP3   OH227177   0.473   4.075   3.855  0.3670 -0.3266  0.1257
 1921TIP3    H127178   0.512   4.085   3.768  0.2326  0.8625  0.1769
 1921TIP3    H227179   0.543   4.099   3.915 -0.2390  1.2648  0.2382
 1922TIP3   OH227180   1.068   1.874  13.043  0.2909  0.2275  0.2840
 1922TIP3    H127181   1.023   1.894  12.961  1.2304 -2.2341 -0.9275
 1922TIP3    H227182   1.158   1.903  13.029  0.7094 -1.1438 -0.0081
 1923TIP3   OH227183   1.877   5.979  10.384  0.3039  0.6975  0.0736
 1923TIP3    H127184   1.841   6.067  10.395  1.4095  1.2909 -0.8093
 1923TIP3    H227185   1.970   5.988  10.406 -0.1174 -0.9380  2.9447
 1924TIP3   OH227186   0.658   1.255  14.240 -0.3049 -0.0463 -0.4569
 1924TIP3    H127187   0.688   1.265  14.150  1.2113 -0.2727 -0.0092
 1924TIP3    H227188   0.590   1.189  14.236  0.6823 -1.0564 -1.2837
 1925TIP3   OH227189   4.999   2.301   1.384 -0.1484  0.5420 -0.6956
 1925TIP3    H127190   4.916   2.309   1.336 -0.0365 -0.3100 -1.0375
 1925TIP3    H227191   4.988   2.360   1.460 -1.3248 -0.0608 -0.3770
 1926TIP3   OH227192   2.885   4.086  15.604  0.2933  0.4038  0.1910
 1926TIP3    H127193   2.805   4.087  15.656  0.4371 -1.8839  0.5272
 1926TIP3    H227194   2.855   4.086  15.513 -0.0334  1.0656  0.2929
 1927TIP3   OH227195   4.927   6.666  14.593  0.1159 -0.3589  0.0781
 1927TIP3    H127196   4.938   6.573  14.574  0.8821 -0.5260  1.2103
 1927TIP3    H227197   4.833   6.678  14.604 -0.0077 -0.9591 -0.2934
 1928TIP3   OH227198   2.584   3.057   5.359  0.1550  0.1820  0.3852
 1928TIP3    H127199   2.568   2.995   5.429 -1.4593  0.2314  0.0905
 1928TIP3    H227200   2.663   3.104   5.386  0.9745 -1.4509  0.9741
 1929TIP3   OH227201   5.456   0.983   5.377  0.4969 -0.0373  0.4928
 1929TIP3    H127202   5.462   1.003   5.284 -1.2502  0.4529  0.4346
 1929TIP3    H227203   5.546   0.987   5.409  1.0701  0.2435 -1.0788
 1930TIP3   OH227204   5.586   6.378   3.778  0.2383 -0.3236 -0.3250
 1930TIP3    H127205   5.639   6.433   3.836  0.0214  1.5008 -1.7740
 1930TIP3    H227206   5.649   6.341   3.716  0.0607  0.2693 -0.8561
 1931TIP3   OH227207   4.924   6.222   4.093 -0.1456 -0.0547  0.2553
 1931TIP3    H127208   4.895   6.131   4.085 -0.2008  0.0631 -1.2309
 1931TIP3    H227209   5.018   6.215   4.112 -0.5514 -0.4111  2.3516
 1932TIP3   OH227210   2.041   6.523   0.013 -0.4505  0.2163 -0.0327
 1932TIP3    H127211   2.096   6.592  -0.023 -0.7675  1.2895  1.4546
 1932TIP3    H227212   1.991   6.565   0.082 -0.7699 -1.4693  0.8309
 1933TIP3   OH227213   6.474   2.494   4.787 -0.5114 -0.6277  0.7025
 1933TIP3    H127214   6.557   2.542   4.793 -0.3177 -0.8137 -0.3771
 1933TIP3    H227215   6.496   2.407   4.822  0.2496 -1.2634 -1.2478
 1934TIP3   OH227216   2.046   6.217   1.779 -0.0634  0.8402 -0.5215
 1934TIP3    H127217   1.953   6.225   1.803  0.1719  1.0694  0.3291
 1934TIP3    H227218   2.068   6.126   1.798 -0.3869  0.4654 -1.7802
 1935TIP3   OH227219   1.917   1.950  12.000 -0.0306  0.0191 -0.5878
 1935TIP3    H127220   1.939   2.038  12.030 -0.5425  0.0679 -0.3392
 1935TIP3    H227221   2.001   1.906  11.988  0.2150  0.4149 -0.3223
 1936TIP3   OH227222   1.041   1.672  14.123  0.1274  0.1852 -0.6388
 1936TIP3    H127223   1.005   1.651  14.209  1.9377  0.0075  0.1246
 1936TIP3    H227224   1.020   1.596  14.069  0.6308 -0.5810  0.2087
 1937TIP3   OH227225   2.262   6.624   3.487 -0.6692  0.2747  0.0754
 1937TIP3    H127226   2.293   6.662   3.569 -1.1086  4.5210 -1.4423
 1937TIP3    H227227   2.166   6.628   3.493 -0.7276 -0.5100 -0.2027
 1938TIP3   OH227228   4.735   1.004  17.079  0.4896  0.2447  0.0780
 1938TIP3    H127229   4.759   1.018  17.171  0.2210 -1.2322  0.3920
 1938TIP3    H227230   4.790   0.931  17.051  1.0695  1.1241 -1.1618
 1939TIP3   OH227231   0.021   4.265   2.602  0.0862  0.6420  0.3637
 1939TIP3    H127232  -0.013   4.225   2.521 -0.2128  1.1647  0.2283
 1939TIP3    H227233  -0.051   4.259   2.664 -0.1727  1.5388  0.1504
 1940TIP3   OH227234   0.382   2.020  15.262 -0.2788  0.1083 -0.4356
 1940TIP3    H127235   0.464   2.067  15.279 -0.0370  0.4110 -2.2040
 1940TIP3    H227236   0.408   1.948  15.205 -1.2979  0.4422 -1.3492
 1941TIP3   OH227237   2.341   1.778   0.047  0.2348  0.0245 -0.5623
 1941TIP3    H127238   2.402   1.745   0.112  0.2219 -0.6477 -0.8815
 1941TIP3    H227239   2.271   1.820   0.098  0.4618 -0.0806 -0.1629
 1942TIP3   OH227240   2.821   4.908   1.113 -0.3748  1.1216 -0.3329
 1942TIP3    H127241   2.808   4.833   1.172 -0.5538  1.8886  0.6327
 1942TIP3    H227242   2.828   4.869   1.026 -0.1881 -0.0426  0.1799
 1943TIP3   OH227243   1.980   0.801   5.824  0.1477 -0.2508  0.0700
 1943TIP3    H127244   1.986   0.721   5.877 -1.3951 -0.7600 -0.4666
 1943TIP3    H227245   2.037   0.863   5.869  2.2515 -1.9350 -0.0846
 1944TIP3   OH227246   1.705   6.409  13.337 -0.3461  0.0625  0.3051
 1944TIP3    H127247   1.728   6.381  13.248  1.9894  0.9443  0.5557
 1944TIP3    H227248   1.774   6.374  13.392 -2.8153 -2.2280  2.2141
 1945TIP3   OH227249   3.029   5.959   0.182  0.1639  0.3338 -0.0630
 1945TIP3    H127250   3.081   5.924   0.255 -1.1048 -2.5884 -0.4220
 1945TIP3    H227251   2.943   5.975   0.220 -0.2343 -0.3022 -0.6826
 1946TIP3   OH227252   6.737   4.687   2.268 -0.1866  0.3137  0.4332
 1946TIP3    H127253   6.810   4.716   2.213  0.1880  1.4865  1.5026
 1946TIP3    H227254   6.774   4.621   2.326  0.4033  1.8028  1.8416
 1947TIP3   OH227255   1.124   3.188  14.526  0.0190 -0.0308 -0.0156
 1947TIP3    H127256   1.163   3.137  14.597 -1.5647 -3.5935 -1.4628
 1947TIP3    H227257   1.197   3.236  14.488  1.8405 -1.8696  0.9772
 1948TIP3   OH227258   4.916   2.648   2.550  0.3770  0.3746 -0.0636
 1948TIP3    H127259   5.012   2.644   2.557  0.2903 -2.6691  1.1077
 1948TIP3    H227260   4.900   2.684   2.463  2.5925  0.3912 -0.5350
 1949TIP3   OH227261   2.697   1.860  11.559 -0.0155  0.2510  0.2371
 1949TIP3    H127262   2.772   1.804  11.539 -0.3226 -0.8592  1.9320
 1949TIP3    H227263   2.729   1.920  11.626 -0.5615 -0.1216  0.8489
 1950TIP3   OH227264   5.092   3.424  12.785 -0.3087 -0.7971  0.2095
 1950TIP3    H127265   5.148   3.489  12.827  0.6083 -0.2647 -1.6974
 1950TIP3    H227266   5.003   3.449  12.809  0.0569  0.9017 -0.0875
 1951TIP3   OH227267   0.194   6.052   6.206  0.6009  0.2826  0.0453
 1951TIP3    H127268   0.232   5.980   6.256 -0.8927 -1.1159 -0.7168
 1951TIP3    H227269   0.208   6.028   6.114  1.3809  1.7223 -0.2462
 1952TIP3   OH227270   3.293   1.455   1.753 -0.8562 -0.4679 -0.3821
 1952TIP3    H127271   3.230   1.385   1.769 -0.1366 -1.4388 -1.5680
 1952TIP3    H227272   3.329   1.475   1.839 -1.0772 -1.5763 -0.0098
 1953TIP3   OH227273   5.374   3.246  16.912 -0.0913  0.7483  0.1287
 1953TIP3    H127274   5.455   3.201  16.890 -0.7443 -0.0322 -0.7716
 1953TIP3    H227275   5.343   3.203  16.992  0.2436  0.8756  0.3272
 1954TIP3   OH227276   1.028   5.226   4.890  0.0422  0.8026  0.1752
 1954TIP3    H127277   0.964   5.207   4.821 -1.6668  2.2226  1.2660
 1954TIP3    H227278   1.004   5.167   4.962 -0.6902  1.9792  0.9309
 1955TIP3   OH227279   5.954   2.939   1.515 -0.2433 -0.7966 -0.4721
 1955TIP3    H127280   6.031   2.906   1.468  0.8341  0.5641  0.2621
 1955TIP3    H227281   5.964   2.906   1.604  0.1967  0.4428 -0.0483
 1956TIP3   OH227282   2.022   6.411  16.099  0.1428  0.3824 -0.1218
 1956TIP3    H127283   1.994   6.325  16.129  1.3775  0.2565  0.7114
 1956TIP3    H227284   1.994   6.414  16.007 -1.0149 -0.4004  0.1813
 1957TIP3   OH227285   2.398   0.760   0.492 -0.1621  0.1696 -0.3851
 1957TIP3    H127286   2.442   0.785   0.411  0.1644  2.8291  0.5139
 1957TIP3    H227287   2.307   0.787   0.479 -0.0628  0.8144  0.1842
 1958TIP3   OH227288   1.749   1.033   5.861 -0.6456  0.3058  0.2550
 1958TIP3    H127289   1.783   1.018   5.948  0.5667  1.6567  0.0538
 1958TIP3    H227290   1.766   1.126   5.844  0.2188 -0.1832 -1.8545
 1959TIP3   OH227291   1.047   1.922   5.194  0.0133 -0.5118  0.5385
 1959TIP3    H127292   1.013   2.010   5.210  0.7754 -0.1962  0.4255
 1959TIP3    H227293   0.987   1.864   5.242 -0.0411  0.1269  1.2443
 1960TIP3   OH227294   6.352   3.985  15.148 -0.1508 -0.1258  0.3936
 1960TIP3    H127295   6.335   4.002  15.055  0.6619  0.8211  0.3996
 1960TIP3    H227296   6.265   3.984  15.188 -0.5204 -0.7097 -0.3940
 1961TIP3   OH227297   3.260   4.211   3.293  0.4143 -0.1831  0.1992
 1961TIP3    H127298   3.335   4.232   3.348  1.1425 -1.8116 -0.1165
 1961TIP3    H227299   3.185   4.248   3.340  1.0666 -1.0643  2.0374
 1962TIP3   OH227300   2.569   1.489  13.986  0.4235  0.3005  0.2087
 1962TIP3    H127301   2.488   1.443  13.964  1.1999 -1.0723  0.1434
 1962TIP3    H227302   2.576   1.557  13.918  0.2476 -0.7310 -0.8779
 1963TIP3   OH227303   6.648   5.297  14.917 -0.0763 -0.0274  0.0541
 1963TIP3    H127304   6.575   5.347  14.953 -0.5144 -0.3221 -0.4196
 1963TIP3    H227305   6.671   5.343  14.837  0.5321  0.3033  0.4115
 1964TIP3   OH227306   4.401   6.650  16.762  0.1876 -0.3775 -0.1460
 1964TIP3    H127307   4.398   6.562  16.724 -0.3002 -0.7183  0.6287
 1964TIP3    H227308   4.310   6.680  16.758  0.6598  0.9258 -2.2173
 1965TIP3   OH227309   2.849   4.020   3.321  0.4211  0.0220 -0.3113
 1965TIP3    H127310   2.853   4.114   3.337  2.0658  0.1450 -1.2049
 1965TIP3    H227311   2.790   3.986   3.388 -1.5764  1.8910 -1.0166
 1966TIP3   OH227312   5.565   3.160  10.356  0.0106  0.2092  0.2141
 1966TIP3    H127313   5.603   3.076  10.330  0.9180  0.2925  1.2227
 1966TIP3    H227314   5.530   3.197  10.274  1.4299 -0.2206 -0.6223
 1967TIP3   OH227315   0.525   2.790   1.175  0.8217 -0.2696  0.3720
 1967TIP3    H127316   0.618   2.811   1.184  0.8944 -0.1601 -0.5230
 1967TIP3    H227317   0.484   2.834   1.249  1.3074  0.9144 -0.0298
 1968TIP3   OH227318   0.197   4.415   0.159 -0.5673 -0.3444 -0.4841
 1968TIP3    H127319   0.231   4.473   0.092 -1.4625  0.8640  0.0795
 1968TIP3    H227320   0.251   4.433   0.236 -1.2407  0.1956 -0.1330
 1969TIP3   OH227321   6.800   4.418  15.188 -0.2121 -0.4504  0.4384
 1969TIP3    H127322   6.769   4.461  15.108  0.6576 -0.1743  0.2428
 1969TIP3    H227323   6.889   4.451  15.200 -0.5697  0.0436  1.8961
 1970TIP3   OH227324   0.556   6.568  13.083  0.4037  0.3896 -0.6025
 1970TIP3    H127325   0.463   6.553  13.099  0.7084 -1.0017  0.0907
 1970TIP3    H227326   0.567   6.557  12.989 -0.1628  0.7253 -0.7079
 1971TIP3   OH227327   5.790   2.662   5.120 -0.4929 -0.4868 -0.0392
 1971TIP3    H127328   5.843   2.687   5.196  0.3187 -0.0385 -0.7361
 1971TIP3    H227329   5.708   2.630   5.157 -0.6855  1.1065  0.9671
 1972TIP3   OH227330   0.879   5.419   4.350  0.3596 -0.1454  0.1099
 1972TIP3    H127331   0.837   5.478   4.412 -0.4774  0.8139 -1.3278
 1972TIP3    H227332   0.819   5.345   4.341 -0.7126  0.8507 -1.3382
 1973TIP3   OH227333   0.475   1.649   4.964 -0.4609  0.5310 -0.2129
 1973TIP3    H127334   0.568   1.627   4.953 -0.5851 -1.6929  2.3186
 1973TIP3    H227335   0.475   1.716   5.032 -0.6580  2.6186 -2.1244
 1974TIP3   OH227336   5.571   0.454  11.748 -0.3687 -0.8475 -0.0260
 1974TIP3    H127337   5.554   0.546  11.769 -0.4621 -0.8437 -0.1164
 1974TIP3    H227338   5.484   0.416  11.739 -0.4034 -0.3250 -2.7292
 1975TIP3   OH227339   6.796   4.501  13.238  0.2083 -0.1463  0.5731
 1975TIP3    H127340   6.720   4.444  13.224  0.8385 -0.8233 -0.1235
 1975TIP3    H227341   6.764   4.588  13.216 -0.1929 -0.5188 -0.3953
 1976TIP3   OH227342   1.219   1.381   0.028 -0.0146  0.3973 -0.1738
 1976TIP3    H127343   1.133   1.381  -0.013 -0.2791 -0.6941  0.3245
 1976TIP3    H227344   1.210   1.440   0.103 -0.3257  0.3217 -0.1503
 1977TIP3   OH227345   1.240   5.920  14.164  0.4278 -0.0643  1.0621
 1977TIP3    H127346   1.290   5.871  14.098  1.1057  0.9518  0.8009
 1977TIP3    H227347   1.153   5.931  14.124  0.2424 -1.0930  1.1525
 1978TIP3   OH227348   2.960   6.433   1.587 -0.1713 -0.0088  0.5365
 1978TIP3    H127349   2.995   6.513   1.547 -1.1851  0.9769  1.5680
 1978TIP3    H227350   3.017   6.363   1.554  0.0265  0.9670 -1.3235
 1979TIP3   OH227351   1.694   6.714   0.911 -0.2316  0.4411  0.5531
 1979TIP3    H127352   1.767   6.737   0.968  1.1570 -1.4657 -0.3545
 1979TIP3    H227353   1.679   6.621   0.927 -0.6187  0.1511 -1.2943
 1980TIP3   OH227354   4.946   4.297   6.148 -0.4472 -0.0662 -0.2379
 1980TIP3    H127355   4.911   4.211   6.127 -0.7547  0.3771 -1.6833
 1980TIP3    H227356   5.017   4.281   6.209 -1.0588 -1.2630  0.1761
 1981TIP3   OH227357   6.654   6.159  13.472  0.3337  0.4341  0.4538
 1981TIP3    H127358   6.656   6.232  13.409 -0.0650  0.7313  0.7806
 1981TIP3    H227359   6.616   6.086  13.423  1.7561  0.0985 -0.2222
 1982TIP3   OH227360   5.417   2.802   4.685  0.2758  0.3900  0.1208
 1982TIP3    H127361   5.487   2.865   4.703  0.3468  0.4916 -0.4814
 1982TIP3    H227362   5.462   2.727   4.647  0.1606  0.0803  0.5987
 1983TIP3   OH227363   2.661   1.782   5.186  0.1060 -0.1953  0.0272
 1983TIP3    H127364   2.707   1.837   5.123  1.2443  0.0817  1.0641
 1983TIP3    H227365   2.654   1.837   5.264  1.0596 -1.4329  1.0048
 1984TIP3   OH227366   2.686   2.315   4.164  0.3415 -0.1034 -0.0795
 1984TIP3    H127367   2.741   2.344   4.091 -0.8765 -0.1712 -1.0642
 1984TIP3    H227368   2.699   2.380   4.233  0.2955  0.8649 -0.9674
 1985TIP3   OH227369   0.522   0.243  12.557 -0.1332  0.1952 -0.1187
 1985TIP3    H127370   0.565   0.267  12.639  0.4712 -0.1664 -0.3235
 1985TIP3    H227371   0.431   0.226  12.581  0.5595 -2.4408  0.9571
 1986TIP3   OH227372   3.423   3.926   4.208 -0.5497 -0.7709 -0.2465
 1986TIP3    H127373   3.356   3.860   4.189 -0.8107 -0.8937  0.9926
 1986TIP3    H227374   3.387   3.976   4.281 -0.4618  0.9173 -1.3099
 1987TIP3   OH227375   2.201   6.765   6.511 -0.0172  0.6409  0.0333
 1987TIP3    H127376   2.292   6.737   6.506 -0.0598 -0.4172  3.0136
 1987TIP3    H227377   2.201   6.856   6.481  1.4915 -0.1222 -2.5586
 1988TIP3   OH227378   6.582   2.827  12.538  0.1990  0.4349  0.0396
 1988TIP3    H127379   6.603   2.797  12.449 -0.1546 -0.0019  0.1000
 1988TIP3    H227380   6.640   2.775  12.594 -0.1423  0.1326  0.1177
 1989TIP3   OH227381   0.755   2.798   2.483  0.2070 -0.2733  0.1063
 1989TIP3    H127382   0.681   2.836   2.530  0.8966  0.2218  0.8046
 1989TIP3    H227383   0.831   2.814   2.539  0.8864 -0.5722 -0.7012
 1990TIP3   OH227384   5.075   5.882  13.674  0.9939 -0.3714  0.2131
 1990TIP3    H127385   5.068   5.787  13.667  0.6722 -0.2123 -2.8528
 1990TIP3    H227386   5.157   5.904  13.629  0.4786  0.8737 -0.1818
 1991TIP3   OH227387   5.122   0.181   6.249  0.8293 -0.6238  0.2444
 1991TIP3    H127388   5.026   0.180   6.251  0.7674 -1.0071 -1.4497
 1991TIP3    H227389   5.148   0.129   6.325 -0.2798 -0.2771  0.8992
 1992TIP3   OH227390   5.584   0.018   5.945 -0.3648  0.4104 -0.0575
 1992TIP3    H127391   5.627   0.006   5.860  3.0266  1.7925  1.3051
 1992TIP3    H227392   5.602  -0.063   5.992  1.8560  1.3885  0.8866
 1993TIP3   OH227393   2.604   1.849  12.073  0.7779  0.2741 -1.0805
 1993TIP3    H127394   2.511   1.851  12.097  0.4429 -0.1459 -2.2648
 1993TIP3    H227395   2.610   1.778  12.008  1.9248  0.3032 -1.0194
 1994TIP3   OH227396   5.980   5.243   2.304  0.0209 -0.4024 -0.1013
 1994TIP3    H127397   5.995   5.237   2.209  1.7333 -0.3723  0.1400
 1994TIP3    H227398   6.050   5.191   2.343 -0.1705  0.2504  1.1762
 1995TIP3   OH227399   6.402   0.500   5.536 -0.4122  0.1728  0.6240
 1995TIP3    H127400   6.340   0.515   5.465  0.0698  0.0640  0.1813
 1995TIP3    H227401   6.384   0.571   5.598  0.6064  1.5658 -0.5992
 1996TIP3   OH227402   6.317   0.825  14.426 -0.3652  0.2038 -0.2488
 1996TIP3    H127403   6.390   0.854  14.480 -0.9998  2.0526 -0.3068
 1996TIP3    H227404   6.352   0.753  14.375  0.0811 -2.2355  3.1258
 1997TIP3   OH227405   4.676   5.162  17.081 -0.3498  0.5258 -0.3368
 1997TIP3    H127406   4.698   5.237  17.137  0.2827  2.4617 -2.9499
 1997TIP3    H227407   4.598   5.191  17.032  0.7801  0.1592 -2.4744
 1998TIP3   OH227408   0.183   2.034   3.446  0.2671 -0.7612 -0.1281
 1998TIP3    H127409   0.162   1.975   3.518  1.4301  1.1676  1.9368
 1998TIP3    H227410   0.278   2.034   3.441  0.2558  0.2088 -0.7114
 1999TIP3   OH227411   4.536   6.074  15.685  0.3922  0.0118 -0.2902
 1999TIP3    H127412   4.610   6.130  15.662  0.1964 -0.2876 -1.7215
 1999TIP3    H227413   4.490   6.059  15.602 -0.8030 -0.4812  0.4359
 2000TIP3   OH227414   1.356   4.696   3.120 -0.4105 -0.5869 -0.3767
 2000TIP3    H127415   1.333   4.709   3.212  0.8944 -0.3265 -0.0731
 2000TIP3    H227416   1.396   4.610   3.117  0.1278 -0.3328 -0.5814
 2001TIP3   OH227417   6.627   5.935  12.211 -0.0278 -0.2442 -0.7655
 2001TIP3    H127418   6.553   5.899  12.162 -0.9085  1.0297 -0.4320
 2001TIP3    H227419   6.651   6.014  12.163  0.3687 -0.0440 -0.2481
 2002TIP3   OH227420   1.460   1.626   4.909  0.4446  0.3105 -0.0056
 2002TIP3    H127421   1.537   1.649   4.961 -0.4908  1.5469  0.8726
 2002TIP3    H227422   1.387   1.631   4.970 -0.5560  0.7924 -1.2015
 2003TIP3   OH227423   0.270   5.265  11.747 -0.5102 -0.9185  0.1425
 2003TIP3    H127424   0.217   5.293  11.672 -0.9891 -0.6114  0.5861
 2003TIP3    H227425   0.339   5.331  11.754  0.0844 -1.4510 -0.5852
 2004TIP3   OH227426   0.973   4.186   3.535 -0.1336 -0.1151  0.5403
 2004TIP3    H127427   0.957   4.092   3.530 -2.3763  0.0985  2.2465
 2004TIP3    H227428   0.886   4.225   3.543  0.8341  1.8605  2.8317
 2005TIP3   OH227429   4.393   2.707   5.470  0.2134  0.4966  0.6021
 2005TIP3    H127430   4.308   2.673   5.496 -0.1224  0.6922 -0.2343
 2005TIP3    H227431   4.455   2.638   5.495  0.0206  1.0312  2.7065
 2006TIP3   OH227432   5.201   2.853   3.565 -0.5222  0.3133 -0.1815
 2006TIP3    H127433   5.267   2.903   3.613 -0.6753  0.0845  0.2686
 2006TIP3    H227434   5.178   2.909   3.491  1.0373 -0.0906 -1.0308
 2007TIP3   OH227435   4.388   0.917   2.770  0.0951  0.4906  0.1587
 2007TIP3    H127436   4.473   0.892   2.733  0.4865 -0.2154  1.4827
 2007TIP3    H227437   4.393   1.011   2.782  0.9484  0.3715  0.8274
 2008TIP3   OH227438   4.268   6.524   3.658  0.2174  0.7290 -0.8890
 2008TIP3    H127439   4.290   6.451   3.601  0.7546  0.6929 -0.6433
 2008TIP3    H227440   4.310   6.600   3.617  3.9767  0.1479  1.3664
 2009TIP3   OH227441   3.639   4.857  13.023 -0.6604 -0.3131  0.0719
 2009TIP3    H127442   3.618   4.945  13.053  2.1617 -0.1333  1.9382
 2009TIP3    H227443   3.677   4.869  12.936 -2.0608  0.0622 -0.4975
 2010TIP3   OH227444   2.768   4.223  17.069 -0.0347  0.5552 -0.5371
 2010TIP3    H127445   2.776   4.319  17.075 -0.0224  0.5664 -0.7434
 2010TIP3    H227446   2.683   4.204  17.109 -0.9646  0.8413 -2.2665
 2011TIP3   OH227447   4.571   0.396   5.738  0.1632 -0.4036 -0.3641
 2011TIP3    H127448   4.475   0.395   5.733  0.0671  2.8096 -0.8841
 2011TIP3    H227449   4.590   0.386   5.831 -0.7980  0.8347 -0.0073
 2012TIP3   OH227450   5.646   5.744  12.915 -0.7783  0.2764  0.6492
 2012TIP3    H127451   5.678   5.654  12.913 -0.6769  0.3226  0.2242
 2012TIP3    H227452   5.720   5.796  12.946  1.2941  1.0796 -4.6022
 2013TIP3   OH227453   3.543   1.182  11.842 -0.4110  0.0264  0.1249
 2013TIP3    H127454   3.491   1.260  11.861 -0.4377 -0.2806  1.3492
 2013TIP3    H227455   3.631   1.203  11.870 -0.9711 -1.3807  3.3403
 2014TIP3   OH227456   2.924   2.323  11.597  0.3995  0.3054 -0.1591
 2014TIP3    H127457   2.851   2.385  11.602  1.1519  1.3536 -1.4596
 2014TIP3    H227458   2.966   2.328  11.683 -0.6157  0.2466  0.3455
 2015TIP3   OH227459   6.437   3.240   2.570  0.0315 -0.6950 -0.1091
 2015TIP3    H127460   6.481   3.156   2.578  0.4254 -0.3869  0.9768
 2015TIP3    H227461   6.498   3.304   2.605 -1.4357 -0.3212  1.9160
 2016TIP3   OH227462   5.601   4.781   0.763  0.4800  0.9444 -0.6479
 2016TIP3    H127463   5.685   4.743   0.738  0.7210  1.2015 -0.2536
 2016TIP3    H227464   5.622   4.837   0.838 -0.1678  0.3869 -0.0278
 2017TIP3   OH227465   5.711   5.205  12.023  0.5556 -0.2979 -0.1717
 2017TIP3    H127466   5.688   5.175  11.935  2.5778 -0.6182 -0.6517
 2017TIP3    H227467   5.806   5.190  12.029  0.4678 -0.2620  2.0575
 2018TIP3   OH227468   0.900   6.230  13.838  0.1502  0.0259  0.4128
 2018TIP3    H127469   0.913   6.170  13.764  0.7331  0.9814 -0.2876
 2018TIP3    H227470   0.814   6.206  13.873 -0.5764  0.1706 -1.1819
 2019TIP3   OH227471   5.682   2.184  12.139 -0.4516  0.5260  0.1579
 2019TIP3    H127472   5.710   2.189  12.230 -0.5923 -0.4033  0.2524
 2019TIP3    H227473   5.610   2.247  12.133 -1.4209 -0.4606  1.0620
 2020TIP3   OH227474   4.115   6.247   3.056  0.3135  0.5371  0.2355
 2020TIP3    H127475   4.023   6.230   3.078  0.0528  0.7816 -0.6295
 2020TIP3    H227476   4.113   6.270   2.963  1.1301  1.5245  0.4482
 2021TIP3   OH227477   1.085   4.602   3.197  0.2058 -0.6291 -0.1717
 2021TIP3    H127478   1.092   4.509   3.220  0.5814 -1.0181 -1.7496
 2021TIP3    H227479   1.131   4.609   3.113 -2.5775  0.3256 -1.7349
 2022TIP3   OH227480   2.949   1.658  11.226  0.4527  0.3756  0.6325
 2022TIP3    H127481   2.942   1.747  11.190  4.2175 -0.0457 -1.6946
 2022TIP3    H227482   2.924   1.601  11.153  2.3554 -0.4421  0.5608
 2023TIP3   OH227483   1.393   4.411  12.711  0.2097 -0.3994 -0.3795
 2023TIP3    H127484   1.487   4.414  12.693  0.0924 -1.3744 -1.2186
 2023TIP3    H227485   1.356   4.484  12.660  0.3980 -0.6042 -0.8128
 2024TIP3   OH227486   2.876   4.670  12.453  0.2007 -0.4767 -0.1098
 2024TIP3    H127487   2.789   4.634  12.472  0.5287 -0.9383  0.5760
 2024TIP3    H227488   2.909   4.699  12.538  1.0513 -1.0666 -0.2292
 2025TIP3   OH227489   0.719   6.426  16.855 -0.2318 -0.1992  0.0231
 2025TIP3    H127490   0.661   6.352  16.845  0.0096 -0.3626 -0.1975
 2025TIP3    H227491   0.802   6.398  16.815  0.0320 -0.0129  0.4265
 2026TIP3   OH227492   6.157   2.723  13.335  0.1943  0.0006 -0.4508
 2026TIP3    H127493   6.064   2.747  13.337  0.1440 -0.1092 -1.2092
 2026TIP3    H227494   6.184   2.724  13.427 -0.6620 -0.3765 -0.1880
 2027TIP3   OH227495   3.096   3.570   3.659 -0.2223  0.2229 -0.2497
 2027TIP3    H127496   3.029   3.635   3.638 -1.1521 -0.6746 -0.0642
 2027TIP3    H227497   3.059   3.486   3.633 -0.0343 -0.5345  1.7865
 2028TIP3   OH227498   0.813   2.449   2.611  0.6423  0.2237 -0.2812
 2028TIP3    H127499   0.880   2.391   2.647  0.8735  0.3765 -0.4646
 2028TIP3    H227500   0.834   2.535   2.646  0.6777  0.3140 -0.5197
 2029TIP3   OH227501   1.988   4.112   2.436  0.5228 -0.1756  0.4189
 2029TIP3    H127502   1.923   4.155   2.381  1.3828 -0.0803 -0.5405
 2029TIP3    H227503   2.015   4.180   2.498  0.7319  0.2054 -0.0861
 2030TIP3   OH227504   1.275   1.297   6.297  0.4607  0.4215  0.0405
 2030TIP3    H127505   1.334   1.356   6.250  0.9643  0.5568  0.8182
 2030TIP3    H227506   1.313   1.290   6.385 -0.8868  0.8254  0.6916
 2031TIP3   OH227507   2.939   6.431  13.451  0.2776  0.4157  0.3168
 2031TIP3    H127508   2.868   6.429  13.515  2.4293 -1.1441  2.9215
 2031TIP3    H227509   2.922   6.355  13.395  0.3972 -0.6165  1.6162
 2032TIP3   OH227510   0.413   1.235   4.738 -0.4283  0.0909  0.3722
 2032TIP3    H127511   0.494   1.184   4.738  0.1244  0.9026 -1.2682
 2032TIP3    H227512   0.440   1.323   4.764 -0.5273  0.6605 -1.3107
 2033TIP3   OH227513   3.811   3.304   1.965  0.2568 -0.0873 -0.4559
 2033TIP3    H127514   3.763   3.346   1.893 -2.4957 -1.0525  0.6636
 2033TIP3    H227515   3.849   3.225   1.926 -0.2604 -0.0219 -1.1026
 2034TIP3   OH227516   1.540   1.787  15.666  0.7122 -0.3906 -0.5373
 2034TIP3    H127517   1.561   1.831  15.584  0.9204 -0.7492 -0.6766
 2034TIP3    H227518   1.625   1.770  15.707  0.5795  0.8209  0.3089
 2035TIP3   OH227519   6.448   6.195   0.182  0.6324  0.1677  0.2227
 2035TIP3    H127520   6.357   6.176   0.161  0.3750  2.0109 -0.4976
 2035TIP3    H227521   6.459   6.166   0.272 -1.1498  1.4226  0.8868
 2036TIP3   OH227522   5.387   1.678  13.740 -0.0246 -0.3409 -0.2847
 2036TIP3    H127523   5.482   1.665  13.736  0.3496  2.0371 -0.5376
 2036TIP3    H227524   5.373   1.724  13.823 -0.6048  1.5276 -1.3703
 2037TIP3   OH227525   2.969   2.103   0.124  0.0210  0.3666  0.3639
 2037TIP3    H127526   3.047   2.107   0.070 -0.7716  0.8820 -0.7677
 2037TIP3    H227527   3.002   2.086   0.212  1.3292 -0.5028 -0.2679
 2038TIP3   OH227528   4.519   6.434   3.300 -0.2092 -0.2806 -0.2820
 2038TIP3    H127529   4.560   6.483   3.372 -1.2319 -0.6038  0.5518
 2038TIP3    H227530   4.509   6.498   3.230  2.9091 -0.4950 -1.0545
 2039TIP3   OH227531   5.893   5.823   5.416  0.3157 -0.2737  0.3272
 2039TIP3    H127532   5.904   5.918   5.417  0.2255 -0.2621  0.2365
 2039TIP3    H227533   5.940   5.793   5.494  0.5304 -0.1761  0.2348
 2040TIP3   OH227534   2.643   4.701  11.904 -0.2145  0.2789  0.1273
 2040TIP3    H127535   2.583   4.669  11.972 -1.7052  0.7317 -0.9344
 2040TIP3    H227536   2.707   4.753  11.953 -0.7188 -0.1469  1.2960
 2041TIP3   OH227537   1.457   0.458   5.759 -0.2607 -0.8607 -0.3236
 2041TIP3    H127538   1.415   0.461   5.673  1.0698 -0.4350 -0.9843
 2041TIP3    H227539   1.520   0.386   5.752  0.3171 -0.3961  0.0610
 2042TIP3   OH227540   4.303   5.873  15.720  0.5769  0.8406 -0.0915
 2042TIP3    H127541   4.343   5.865  15.634 -0.8050 -1.3974 -0.6022
 2042TIP3    H227542   4.258   5.957  15.718  0.4668  0.7708 -1.6071
 2043TIP3   OH227543   0.688   0.488  13.794 -0.0485 -0.7166  0.0838
 2043TIP3    H127544   0.714   0.575  13.761 -1.4183 -1.2536 -2.6645
 2043TIP3    H227545   0.593   0.491  13.796 -0.2081 -2.6194 -1.6453
 2044TIP3   OH227546   3.093   4.153  16.926 -0.2205 -0.6816 -0.0152
 2044TIP3    H127547   3.039   4.232  16.926  1.0338  0.2069 -0.5315
 2044TIP3    H227548   3.131   4.149  16.838  0.5174 -1.3080  0.3130
 2045TIP3   OH227549   6.754   5.484  11.240  0.1686 -0.0591 -0.1102
 2045TIP3    H127550   6.665   5.514  11.221 -0.4503 -0.3495  2.0489
 2045TIP3    H227551   6.756   5.394  11.208 -0.0120  0.2390 -0.9791
 2046TIP3   OH227552   1.735   1.657   5.083  0.4195  0.3380  0.0803
 2046TIP3    H127553   1.799   1.725   5.060  1.2371  0.1210  1.6170
 2046TIP3    H227554   1.705   1.680   5.171 -2.1375  0.7787 -0.8108
 2047TIP3   OH227555   5.968   3.873   2.748 -0.1295 -0.0979  0.0531
 2047TIP3    H127556   5.875   3.854   2.740 -0.2738  0.1820  1.0151
 2047TIP3    H227557   5.997   3.890   2.658 -0.8226 -0.9992 -0.3539
 2048TIP3   OH227558   2.474   6.381  14.651 -0.2350 -0.0639  0.1379
 2048TIP3    H127559   2.535   6.389  14.579 -1.0331  2.8090 -0.3115
 2048TIP3    H227560   2.477   6.465  14.696 -1.0848 -1.1444  2.4033
 2049TIP3   OH227561   3.567   5.114  13.099 -0.1536 -0.0960 -0.0759
 2049TIP3    H127562   3.612   5.182  13.148 -1.3774  0.2902  0.5403
 2049TIP3    H227563   3.476   5.141  13.097 -0.4075 -0.9337 -1.1772
 2050TIP3   OH227564   2.825   6.553  11.782 -0.2428  0.3219  0.0455
 2050TIP3    H127565   2.880   6.516  11.714 -0.3707  1.5049 -0.7402
 2050TIP3    H227566   2.841   6.499  11.859 -0.0213 -0.9848 -0.8904
 2051TIP3   OH227567   4.338   3.753   0.137 -0.0928  0.2725  0.1672
 2051TIP3    H127568   4.256   3.703   0.141  0.0985  0.0088  1.4310
 2051TIP3    H227569   4.311   3.843   0.154 -0.1482  0.2145  0.3948
 2052TIP3   OH227570   5.205   3.149   4.271  0.4413 -0.1945 -0.6716
 2052TIP3    H127571   5.163   3.105   4.197  0.3969 -1.6786  0.2136
 2052TIP3    H227572   5.132   3.173   4.329  0.5848 -0.2280 -0.4771
 2053TIP3   OH227573   6.107   2.104   4.221 -0.1458  0.3027  0.7911
 2053TIP3    H127574   6.152   2.088   4.138 -1.9157 -0.9227  0.0079
 2053TIP3    H227575   6.073   2.193   4.213  0.5868  0.5774  0.6548
 2054TIP3   OH227576   5.971   5.459   2.686 -0.0359  0.3013 -0.8629
 2054TIP3    H127577   5.974   5.373   2.644  0.9678 -1.0565  1.7788
 2054TIP3    H227578   6.025   5.515   2.630  0.9689 -1.2925 -1.5547
 2055TIP3   OH227579   5.551   6.680  15.160  0.5151 -0.3755 -0.4664
 2055TIP3    H127580   5.570   6.590  15.185 -0.5158 -0.6956 -0.7928
 2055TIP3    H227581   5.508   6.673  15.075 -0.1359  0.3760 -0.2150
 2056TIP3   OH227582   4.362   6.650  11.416  0.0180 -0.1670 -0.3449
 2056TIP3    H127583   4.406   6.640  11.331  1.1517  1.2498  0.0472
 2056TIP3    H227584   4.418   6.710  11.466 -0.7901 -0.7294  1.3077
 2057TIP3   OH227585   6.156   5.171  11.791  0.3506  0.3530 -0.6937
 2057TIP3    H127586   6.239   5.217  11.807 -0.2952  1.9279 -1.6606
 2057TIP3    H227587   6.119   5.214  11.714 -1.2076 -0.5453 -0.4858
 2058TIP3   OH227588   0.471   2.679  13.284  0.0571 -0.3764  0.1086
 2058TIP3    H127589   0.564   2.675  13.261  0.6012  2.7438  1.1952
 2058TIP3    H227590   0.468   2.653  13.376 -0.0008  0.2010  0.2760
 2059TIP3   OH227591   2.631   5.530  13.248  0.1673 -0.4226  0.0713
 2059TIP3    H127592   2.712   5.575  13.225  0.3912 -1.2273 -0.7821
 2059TIP3    H227593   2.565   5.572  13.193  0.3158 -0.9062 -0.4797
 2060TIP3   OH227594   5.847   4.684  12.774 -0.2325 -0.1558 -0.5344
 2060TIP3    H127595   5.806   4.723  12.850 -0.0599 -0.2064 -0.4138
 2060TIP3    H227596   5.824   4.591  12.778  1.9350 -0.6988  0.9190
 2061TIP3   OH227597   5.753   2.184  14.798 -0.2279 -0.5154 -0.3746
 2061TIP3    H127598   5.715   2.141  14.721 -0.0571  1.5110 -1.6842
 2061TIP3    H227599   5.739   2.122  14.870 -0.9486 -2.2272 -1.9012
 2062TIP3   OH227600   5.229   1.387  13.546 -0.3728  0.3980 -0.0558
 2062TIP3    H127601   5.310   1.407  13.499  0.4011 -0.8551  0.6775
 2062TIP3    H227602   5.194   1.472  13.571 -0.7139  1.1095 -2.6703
 2063TIP3   OH227603   2.389   1.363  12.765  0.3085 -0.1246 -0.1084
 2063TIP3    H127604   2.388   1.348  12.670 -0.1793  0.0616 -0.1328
 2063TIP3    H227605   2.400   1.275  12.802 -0.3837 -0.3101 -0.3181
 2064TIP3   OH227606   1.011   4.529   0.121 -0.0178  0.3612 -0.1560
 2064TIP3    H127607   1.009   4.623   0.102 -0.7819  0.7222  1.5220
 2064TIP3    H227608   0.932   4.514   0.173  0.8508 -0.9333  0.8391
 2065TIP3   OH227609   0.629   0.616   1.856  0.5374  0.5894  0.6960
 2065TIP3    H127610   0.629   0.559   1.779 -0.9387  0.1099  1.0189
 2065TIP3    H227611   0.661   0.700   1.824  0.6330  0.1992 -0.2731
 2066TIP3   OH227612   0.819   6.494  12.577  0.6561  0.4902 -0.0141
 2066TIP3    H127613   0.794   6.564  12.518 -2.8550  0.5380  1.2832
 2066TIP3    H227614   0.878   6.535  12.640  0.5609  1.6496 -0.6580
 2067TIP3   OH227615   4.131   2.910   0.985  0.7564  0.0429 -0.4221
 2067TIP3    H127616   4.176   2.907   1.070 -0.1359 -0.4116  0.0513
 2067TIP3    H227617   4.144   2.999   0.954  1.5341  0.0677 -0.0529
 2068TIP3   OH227618   2.687   5.894   5.273  0.2173  0.0086 -0.3570
 2068TIP3    H127619   2.616   5.833   5.294 -0.5652  1.4807  1.6791
 2068TIP3    H227620   2.751   5.881   5.344 -0.2495  1.8859  0.4833
 2069TIP3   OH227621   5.599   6.661  14.059 -0.0634  0.2638 -0.1461
 2069TIP3    H127622   5.514   6.705  14.057 -0.7541 -1.0117  0.3280
 2069TIP3    H227623   5.596   6.601  13.985 -0.2030 -0.9090  0.7938
 2070TIP3   OH227624   2.584   3.898  11.369 -0.3100 -0.5393  0.2537
 2070TIP3    H127625   2.584   3.881  11.275  2.2473 -0.4180  0.1618
 2070TIP3    H227626   2.512   3.846  11.403 -0.4677 -1.6293 -1.6174
 2071TIP3   OH227627   2.054   1.118   2.691  0.6713  0.1768  0.6899
 2071TIP3    H127628   2.027   1.149   2.604  1.8492 -1.0997 -0.1582
 2071TIP3    H227629   2.014   1.181   2.751 -1.7291  0.0516 -0.6289
 2072TIP3   OH227630   5.216   6.660   5.385 -0.2978 -0.5205  0.7228
 2072TIP3    H127631   5.135   6.616   5.408  1.2605 -2.7839  2.3008
 2072TIP3    H227632   5.235   6.717   5.460 -0.3627 -0.0302  0.3780
 2073TIP3   OH227633   1.118   0.839  13.638  0.5341 -0.2740  0.8390
 2073TIP3    H127634   1.164   0.918  13.608  0.0177 -0.5065 -0.6628
 2073TIP3    H227635   1.062   0.870  13.708  0.8402  0.5719  0.7349
 2074TIP3   OH227636   6.042   3.924   3.123  0.0931  0.6648  0.1119
 2074TIP3    H127637   5.989   3.862   3.073  1.8339 -0.8065 -0.0377
 2074TIP3    H227638   6.013   3.913   3.213  0.4452 -0.4741  0.1012
 2075TIP3   OH227639   1.323   6.499   4.705 -0.1427  0.3759  0.2933
 2075TIP3    H127640   1.417   6.487   4.692 -0.0593 -0.4933  1.4980
 2075TIP3    H227641   1.285   6.414   4.685 -0.6584  0.6746 -0.0159
 2076TIP3   OH227642   3.298   6.632  11.799 -0.3125  0.0762  0.3407
 2076TIP3    H127643   3.243   6.567  11.756  0.0506  1.1619 -1.8961
 2076TIP3    H227644   3.247   6.661  11.874 -1.7436 -0.6395 -0.3208
 2077TIP3   OH227645   0.670   1.963   5.864  0.2224 -0.3943 -0.3026
 2077TIP3    H127646   0.619   2.043   5.879  0.3899 -0.2447 -0.5258
 2077TIP3    H227647   0.634   1.927   5.784 -1.0318 -1.4777  0.7092
 2078TIP3   OH227648   0.369   3.767   1.191 -0.1878 -0.7464 -0.1839
 2078TIP3    H127649   0.337   3.852   1.219 -0.1973  0.0792 -2.4893
 2078TIP3    H227650   0.454   3.785   1.152  0.1088 -1.9058 -0.1167
 2079TIP3   OH227651   5.729   5.104  14.067 -0.1552  0.4761  0.2757
 2079TIP3    H127652   5.752   5.164  13.996 -0.7723  1.1943  0.6734
 2079TIP3    H227653   5.812   5.089  14.113  0.8213 -1.9984 -2.0328
 2080TIP3   OH227654   0.281   2.948   6.256 -0.2211 -0.8902  0.0788
 2080TIP3    H127655   0.210   2.955   6.321 -0.6063 -1.4960 -0.2647
 2080TIP3    H227656   0.236   2.931   6.173  0.3093 -0.9654 -0.1980
 2081TIP3   OH227657   2.327   4.708   4.862 -0.1825 -0.9587  0.4246
 2081TIP3    H127658   2.374   4.632   4.829 -0.6976 -0.8378 -0.6422
 2081TIP3    H227659   2.381   4.783   4.837  0.2741 -0.9561  1.3838
 2082TIP3   OH227660   6.549   3.633  14.642 -0.0734  0.2258  0.3636
 2082TIP3    H127661   6.619   3.690  14.613 -0.8567  0.7529 -0.5519
 2082TIP3    H227662   6.573   3.546  14.611  0.3218  0.3460  0.3350
 2083TIP3   OH227663   3.033   1.300  13.179  0.7260 -0.1635  0.6540
 2083TIP3    H127664   2.965   1.364  13.204  0.7356 -0.2169  0.8122
 2083TIP3    H227665   3.091   1.350  13.120 -0.4228 -0.5821 -0.9158
 2084TIP3   OH227666   3.011   1.606   1.100 -0.1311  0.3501  0.0990
 2084TIP3    H127667   2.985   1.692   1.067 -0.3411  0.5209  0.7075
 2084TIP3    H227668   2.935   1.574   1.150  0.1685  0.0783  0.3887
 2085TIP3   OH227669   0.923   4.710   3.695 -0.2825 -0.3248  0.2160
 2085TIP3    H127670   0.896   4.763   3.620 -1.0986 -0.2531  0.5556
 2085TIP3    H227671   0.961   4.631   3.657 -1.2926 -0.5826 -0.2714
 2086TIP3   OH227672   3.803   3.272   1.066 -0.2838 -0.6684 -0.5040
 2086TIP3    H127673   3.819   3.241   0.977  2.2458  3.4194 -1.7402
 2086TIP3    H227674   3.774   3.362   1.055 -0.6913 -0.2566  2.8417
 2087TIP3   OH227675   6.142   3.232   4.825  0.1738 -0.4583  0.1633
 2087TIP3    H127676   6.210   3.250   4.761 -1.0720  0.8210 -0.8741
 2087TIP3    H227677   6.183   3.250   4.910  1.5296 -1.1357 -0.3335
 2088TIP3   OH227678   5.054   6.443  11.582 -0.1719 -0.1767 -0.6183
 2088TIP3    H127679   4.977   6.487  11.617  0.1392  0.3414 -0.5654
 2088TIP3    H227680   5.111   6.432  11.659 -1.3809 -3.2261 -0.0276
 2089TIP3   OH227681   3.590   3.278   5.003 -0.1134  0.1699  0.4266
 2089TIP3    H127682   3.636   3.362   4.998 -1.3807  0.8240 -0.8223
 2089TIP3    H227683   3.591   3.256   5.097  0.4038  1.4922  0.7536
 2090TIP3   OH227684   2.607   4.941  12.489  0.4186 -0.0797  0.3251
 2090TIP3    H127685   2.605   5.031  12.523 -1.0959  1.0465 -2.3898
 2090TIP3    H227686   2.594   4.886  12.566  1.7694  1.9731  2.1329
 2091TIP3   OH227687   3.457   0.203  13.051 -0.1899  0.6041  0.0154
 2091TIP3    H127688   3.512   0.194  12.973 -1.8651  2.1537 -1.4382
 2091TIP3    H227689   3.442   0.113  13.080  2.4639  0.0926  0.0665
 2092TIP3   OH227690   4.289   5.361   6.102  0.4911 -0.2129  0.3123
 2092TIP3    H127691   4.263   5.275   6.136 -0.6397  0.0630  0.2020
 2092TIP3    H227692   4.352   5.394   6.166  0.5567 -0.9112  0.6211
 2093TIP3   OH227693   1.266   0.826   3.433  0.4580 -0.1286  0.1891
 2093TIP3    H127694   1.212   0.905   3.434  1.1400  0.3505  1.3949
 2093TIP3    H227695   1.232   0.775   3.359 -0.1939  1.1415 -0.4340
 2094TIP3   OH227696   3.742   3.830  12.734  0.0045  0.6612  0.4906
 2094TIP3    H127697   3.659   3.790  12.762 -1.1263  0.8803 -2.1904
 2094TIP3    H227698   3.796   3.756  12.708 -0.2274  0.6154  0.1281
 2095TIP3   OH227699   0.220   5.376  14.316 -0.2012 -0.0341  0.5756
 2095TIP3    H127700   0.239   5.308  14.381  0.0519  0.2068  0.7556
 2095TIP3    H227701   0.127   5.396  14.329 -0.0462  0.3294  1.1699
 2096TIP3   OH227702   0.581   2.278   0.425 -0.0926 -0.0349 -0.1641
 2096TIP3    H127703   0.583   2.364   0.384  1.4512 -0.5264 -1.2399
 2096TIP3    H227704   0.488   2.257   0.433 -0.4750  1.4694 -0.4375
 2097TIP3   OH227705   5.048   1.694  13.903  0.3581  0.2920  0.7164
 2097TIP3    H127706   5.004   1.611  13.888  0.9816 -0.1362  1.2329
 2097TIP3    H227707   4.983   1.760  13.879 -0.1262 -0.3376  0.2653
 2098TIP3   OH227708   1.506   4.380  16.615 -0.4942  0.1165 -0.2729
 2098TIP3    H127709   1.413   4.401  16.603 -0.3245  1.5746  0.6043
 2098TIP3    H227710   1.549   4.416  16.538 -0.5369  0.4428 -0.1466
 2099TIP3   OH227711   2.075   2.952   2.953  0.1219 -0.4559  0.0794
 2099TIP3    H127712   2.021   3.004   3.013  0.0442 -0.8375  0.3470
 2099TIP3    H227713   2.105   3.014   2.887 -1.9702 -0.5167 -1.0034
 2100TIP3   OH227714   0.405   5.069   1.940  0.5125 -0.0425 -0.1171
 2100TIP3    H127715   0.326   5.079   1.993 -0.2632 -1.6987 -0.8827
 2100TIP3    H227716   0.375   5.083   1.850  0.9885 -1.1138 -0.4562
 2101TIP3   OH227717   4.962   2.253  12.228 -0.2913  0.5357  0.1348
 2101TIP3    H127718   4.902   2.245  12.302 -0.2587 -1.0675  0.0066
 2101TIP3    H227719   4.922   2.200  12.159  0.8011  0.1972 -0.2484
 2102TIP3   OH227720   5.019   1.528   2.920  0.3404  0.3984  0.3698
 2102TIP3    H127721   5.048   1.566   3.003 -0.1873  1.1418  0.2252
 2102TIP3    H227722   4.926   1.551   2.914 -0.0760 -1.1771  0.4070
 2103TIP3   OH227723   2.360   4.348  12.942 -0.6291 -0.0142  0.2014
 2103TIP3    H127724   2.303   4.272  12.954  0.4950 -0.9879 -0.3896
 2103TIP3    H227725   2.389   4.372  13.030 -1.7049  0.3123  0.4725
 2104TIP3   OH227726   6.227   4.292  12.794  0.1646 -0.2671  0.5874
 2104TIP3    H127727   6.200   4.258  12.709 -0.2081  1.8015 -0.1848
 2104TIP3    H227728   6.148   4.333  12.830  1.0137  1.4406  0.5804
 2105TIP3   OH227729   6.790   4.963   0.895 -0.3631  0.5875 -0.1492
 2105TIP3    H127730   6.790   5.036   0.957 -0.0680  1.4225 -1.1028
 2105TIP3    H227731   6.816   5.003   0.811 -1.1626 -0.4230 -0.9024
 2106TIP3   OH227732   3.333   4.774  15.385  0.1935 -0.6376  0.5365
 2106TIP3    H127733   3.308   4.788  15.294 -2.3707 -0.2667  1.2335
 2106TIP3    H227734   3.309   4.856  15.429 -3.4304 -2.4616  2.4149
 2107TIP3   OH227735   3.785   4.222   2.762  0.5914  0.5640 -0.1185
 2107TIP3    H127736   3.707   4.222   2.706 -1.8499  0.6725  2.9788
 2107TIP3    H227737   3.821   4.310   2.753  0.7568  0.3396 -2.0266
 2108TIP3   OH227738   6.337   0.933   4.485 -0.6596  0.3934 -0.0680
 2108TIP3    H127739   6.269   0.866   4.477 -0.2888  0.1729 -2.2333
 2108TIP3    H227740   6.407   0.890   4.534 -0.6009 -0.7105 -1.0542
 2109TIP3   OH227741   1.968   0.572  11.315 -0.3484  0.2203 -0.0429
 2109TIP3    H127742   1.914   0.589  11.238  0.4857  1.5112 -0.3808
 2109TIP3    H227743   2.056   0.603  11.291  0.0253  0.2873  1.2800
 2110TIP3   OH227744   5.212   4.107   0.804  0.3734  0.2908 -0.1049
 2110TIP3    H127745   5.233   4.183   0.749  2.6189  1.4095  2.1080
 2110TIP3    H227746   5.269   4.115   0.880 -1.2695 -2.1674  1.5677
 2111TIP3   OH227747   5.283   1.347   3.837  0.0919  0.3969  0.4779
 2111TIP3    H127748   5.250   1.426   3.881 -0.7108 -0.1254  0.8460
 2111TIP3    H227749   5.315   1.378   3.753  0.1989  1.1861  0.8016
 2112TIP3   OH227750   6.746   4.269  11.686 -0.0467  0.1215 -0.1227
 2112TIP3    H127751   6.657   4.268  11.650 -0.4119  1.2981  0.6970
 2112TIP3    H227752   6.801   4.303  11.615 -0.4360  0.4965 -0.2474
 2113TIP3   OH227753   5.966   3.343   2.538  0.5419 -0.1403  0.2927
 2113TIP3    H127754   6.025   3.269   2.550  0.9325 -0.0501 -0.9020
 2113TIP3    H227755   5.878   3.305   2.543  0.7418 -0.7987 -0.8936
 2114TIP3   OH227756   2.099   4.758  12.407  0.2542  0.4048  0.4798
 2114TIP3    H127757   2.058   4.822  12.349  1.4772  1.3520  0.6015
 2114TIP3    H227758   2.170   4.720  12.355 -0.2953 -0.6735  0.5014
 2115TIP3   OH227759   4.243   2.298   2.899  0.2776 -0.3485  0.8088
 2115TIP3    H127760   4.174   2.292   2.833  0.5461  0.5955  0.4252
 2115TIP3    H227761   4.301   2.224   2.880  0.3624 -0.0719 -0.0361
 2116TIP3   OH227762   0.460   3.941  11.828  0.0987 -0.1601 -0.5186
 2116TIP3    H127763   0.507   3.951  11.745 -0.6246  0.5140 -0.8488
 2116TIP3    H227764   0.424   3.852  11.824  1.3360 -0.7089 -0.2456
 2117TIP3   OH227765   1.929   0.097  16.073 -0.4265 -0.0458 -0.6024
 2117TIP3    H127766   1.869   0.090  16.147 -0.7780  0.6883 -0.8095
 2117TIP3    H227767   1.990   0.024  16.084  0.7743  1.1935  1.5436
 2118TIP3   OH227768   3.364   5.301   3.231 -0.1658 -0.0058  0.0518
 2118TIP3    H127769   3.332   5.277   3.144  0.9284 -1.4191 -0.0108
 2118TIP3    H227770   3.452   5.336   3.215 -0.8799  2.0836  0.3842
 2119TIP3   OH227771   2.191   1.904  16.482 -0.3932  0.2431 -0.6756
 2119TIP3    H127772   2.133   1.835  16.448 -1.1673  1.5790 -2.1996
 2119TIP3    H227773   2.167   1.982  16.432  2.1175  1.0722 -0.6943
 2120TIP3   OH227774   4.758   4.929  16.861  0.3316  0.1836 -0.6608
 2120TIP3    H127775   4.705   4.997  16.903 -0.0980 -0.6978  0.2534
 2120TIP3    H227776   4.787   4.969  16.779  1.1592  1.9315  0.4268
 2121TIP3   OH227777   4.732   0.951  16.284  0.0098  0.1865 -0.3398
 2121TIP3    H127778   4.644   0.981  16.263 -0.3996 -0.8212 -0.0985
 2121TIP3    H227779   4.744   0.973  16.376 -0.9226 -1.8072  0.3092
 2122TIP3   OH227780   5.682   6.307  10.957 -0.0071  0.0581 -0.5681
 2122TIP3    H127781   5.771   6.313  10.990  0.0059  0.2601 -0.6359
 2122TIP3    H227782   5.685   6.241  10.888  0.3548  0.9622 -1.4351
 2123TIP3   OH227783   6.551   0.676   5.039 -0.4291  0.0725  0.2535
 2123TIP3    H127784   6.583   0.600   5.086 -1.4216 -0.6089 -0.1200
 2123TIP3    H227785   6.472   0.644   4.995  0.2433  0.7649 -1.5485
 2124TIP3   OH227786   1.710   0.400  10.450  0.0819 -0.3332  0.7335
 2124TIP3    H127787   1.686   0.335  10.515  1.2937 -1.1418  0.4176
 2124TIP3    H227788   1.797   0.372  10.419  0.2026  0.8839 -0.1155
 2125TIP3   OH227789   3.289   2.196   6.223 -0.1004  0.1581  0.6830
 2125TIP3    H127790   3.197   2.171   6.216  0.3595 -1.3652 -0.3431
 2125TIP3    H227791   3.289   2.269   6.285 -1.9193 -0.1964  1.1624
 2126TIP3   OH227792   0.398   5.372   4.561  0.3238  0.0995 -0.3160
 2126TIP3    H127793   0.423   5.456   4.599  1.3234 -1.1768  2.1043
 2126TIP3    H227794   0.309   5.357   4.592  0.1505  0.2362 -0.7358
 2127TIP3   OH227795   2.523   4.727  14.952 -0.5876 -0.0880 -0.0924
 2127TIP3    H127796   2.612   4.734  14.985 -0.8930  1.4722  0.4973
 2127TIP3    H227797   2.472   4.786  15.007 -1.9497 -0.7543 -0.5832
 2128TIP3   OH227798   2.054   4.396   5.260  0.1687 -0.8273  0.1877
 2128TIP3    H127799   2.066   4.340   5.337 -0.9694 -1.6861 -0.2252
 2128TIP3    H227800   1.992   4.462   5.288  0.9197 -0.2190  0.4443
 2129TIP3   OH227801   5.863   2.309  12.489 -0.4677  0.1269 -0.3766
 2129TIP3    H127802   5.806   2.376  12.526 -0.1932  0.0730  0.1541
 2129TIP3    H227803   5.952   2.334  12.517 -0.4265 -0.8206  0.4335
 2130TIP3   OH227804   1.082   2.447  15.345 -0.0221 -0.3807  0.1831
 2130TIP3    H127805   1.139   2.424  15.272  0.2970  1.7324 -0.2886
 2130TIP3    H227806   1.120   2.527  15.382 -1.5540 -0.0317  1.1168
 2131TIP3   OH227807   2.592   0.816  16.832 -0.5233  0.3494 -0.1286
 2131TIP3    H127808   2.557   0.757  16.766 -1.2207 -0.8118  1.2384
 2131TIP3    H227809   2.654   0.763  16.882  0.5865  1.4210 -0.3043
 2132TIP3   OH227810   3.169   6.183  16.622  0.4883 -0.1171  0.0416
 2132TIP3    H127811   3.093   6.147  16.577  1.2938 -2.3533  0.3419
 2132TIP3    H227812   3.210   6.108  16.665  2.3593  1.1590  0.6462
 2133TIP3   OH227813   0.747   6.116   0.086  0.3636  0.1154  0.1819
 2133TIP3    H127814   0.796   6.194   0.058  0.5707 -0.3660 -0.8661
 2133TIP3    H227815   0.664   6.151   0.120 -0.1276  0.7440 -1.5353
 2134TIP3   OH227816   0.037   5.589  12.616  0.1576 -0.2431  0.2166
 2134TIP3    H127817   0.107   5.534  12.581 -0.4905 -1.6218  0.9513
 2134TIP3    H227818   0.078   5.672  12.636  1.2545 -0.5510 -0.6788
 2135TIP3   OH227819   6.754   2.445   5.431 -0.4220  0.0678  0.2536
 2135TIP3    H127820   6.783   2.529   5.396 -0.5712  0.9016  2.0171
 2135TIP3    H227821   6.680   2.419   5.376 -1.7323  2.1479  0.9468
 2136TIP3   OH227822   4.594   3.774  16.641 -0.1440  0.0742 -0.2136
 2136TIP3    H127823   4.536   3.829  16.693  0.4985  0.2860  0.2928
 2136TIP3    H227824   4.583   3.687  16.678 -1.6134 -0.2899 -1.4018
 2137TIP3   OH227825   2.783   5.635   4.448 -0.0962  0.6073  0.7581
 2137TIP3    H127826   2.832   5.708   4.485  0.4313  0.3719  0.5363
 2137TIP3    H227827   2.850   5.573   4.419 -0.5353  0.0563  0.9019
 2138TIP3   OH227828   4.369   2.764   4.611  0.0416 -0.4301  0.1993
 2138TIP3    H127829   4.431   2.691   4.613 -0.8014 -1.2683 -1.8788
 2138TIP3    H227830   4.363   2.792   4.703  1.1831 -2.2843  0.9052
 2139TIP3   OH227831   1.533   0.022   1.216 -0.0578  0.3045 -0.1514
 2139TIP3    H127832   1.469  -0.034   1.261  1.3809 -0.1567  1.4422
 2139TIP3    H227833   1.487   0.105   1.202 -1.5725 -0.5903 -0.7095
 2140TIP3   OH227834   1.511   6.507   2.509 -0.1023  0.6211  0.4005
 2140TIP3    H127835   1.447   6.454   2.462 -0.2864  1.8767 -0.8421
 2140TIP3    H227836   1.530   6.458   2.589  0.2215 -1.5995 -0.9731
 2141TIP3   OH227837   5.638   1.290  11.341  0.0050  0.9639  0.0556
 2141TIP3    H127838   5.654   1.349  11.415 -1.4426  2.4181 -0.7364
 2141TIP3    H227839   5.543   1.278  11.340  0.1621 -0.4343 -0.5505
 2142TIP3   OH227840   6.656   1.571  12.218  0.4774 -0.1958  0.5579
 2142TIP3    H127841   6.746   1.593  12.240 -0.0461  0.8275  1.8117
 2142TIP3    H227842   6.659   1.479  12.192  2.0519  0.1352 -0.5904
 2143TIP3   OH227843   1.794   1.558   0.739  0.3038  0.8451  0.5387
 2143TIP3    H127844   1.827   1.521   0.821 -1.2859 -0.5535  0.5861
 2143TIP3    H227845   1.837   1.507   0.671  0.0109  0.5805  0.5511
 2144TIP3   OH227846   1.831   5.502  17.162  0.6070  0.1451 -0.5312
 2144TIP3    H127847   1.909   5.454  17.135  2.3031  2.5488 -0.1469
 2144TIP3    H227848   1.823   5.484  17.256  1.2831  0.6237 -0.3721
 2145TIP3   OH227849   5.449   3.304  11.825  0.1318 -0.3864  0.0500
 2145TIP3    H127850   5.405   3.220  11.831  0.8784 -0.7151  4.3959
 2145TIP3    H227851   5.391   3.365  11.870  1.0347  0.6931 -0.1866
 2146TIP3   OH227852   6.470   5.277   3.474  0.3004  0.1653  0.3658
 2146TIP3    H127853   6.419   5.356   3.457  0.9841  0.2343 -1.5458
 2146TIP3    H227854   6.429   5.210   3.419 -0.0639 -0.7714  1.7151
 2147TIP3   OH227855   6.367   0.657   3.374  0.9908 -0.3391  0.0107
 2147TIP3    H127856   6.365   0.595   3.301 -0.6416 -2.3647  1.6422
 2147TIP3    H227857   6.281   0.698   3.372  0.8439 -0.5865  0.8988
 2148TIP3   OH227858   0.719   3.154   1.070 -0.6368 -0.1395 -0.0835
 2148TIP3    H127859   0.642   3.206   1.092 -0.1278  1.5434 -1.9891
 2148TIP3    H227860   0.791   3.217   1.064  0.8252 -1.5844  1.0747
 2149TIP3   OH227861   1.300   0.935   1.179 -0.2427  0.1857 -0.2911
 2149TIP3    H127862   1.240   0.995   1.224 -0.1348  1.4344 -1.7329
 2149TIP3    H227863   1.257   0.917   1.095  0.2757 -0.8575 -0.3426
 2150TIP3   OH227864   4.527   5.841   3.280 -0.3354 -0.0242 -0.4983
 2150TIP3    H127865   4.527   5.767   3.220 -4.0598  0.9827 -2.0386
 2150TIP3    H227866   4.597   5.898   3.248  0.9332 -1.6909 -0.8137
 2151TIP3   OH227867   1.916   2.056   3.397 -0.6619  0.0245  0.2675
 2151TIP3    H127868   1.856   2.000   3.347 -0.6604  0.9961 -0.8617
 2151TIP3    H227869   2.001   2.045   3.355 -0.5843  0.5693  0.2688
 2152TIP3   OH227870   4.265   1.941  16.197  0.1195  0.2149 -0.1286
 2152TIP3    H127871   4.174   1.923  16.217  0.3118 -0.6113  0.0316
 2152TIP3    H227872   4.263   2.022  16.147 -1.0518 -1.4375 -3.0378
 2153TIP3   OH227873   1.469   0.180   1.966 -0.9906  0.0083 -0.4516
 2153TIP3    H127874   1.401   0.189   1.900 -0.6232  0.4735 -0.7693
 2153TIP3    H227875   1.430   0.124   2.033 -2.3512  1.6757  0.2375
 2154TIP3   OH227876   2.443   4.362   0.680 -0.2365  0.0123  0.3384
 2154TIP3    H127877   2.445   4.401   0.593 -1.0155  1.9971  1.1569
 2154TIP3    H227878   2.350   4.359   0.702  0.0477  1.7226  1.9977
 2155TIP3   OH227879   0.610   3.332  10.739 -0.7435 -0.4735  0.2486
 2155TIP3    H127880   0.602   3.237  10.736 -0.5252 -0.5391  1.3336
 2155TIP3    H227881   0.539   3.361  10.797  1.3613 -0.3408  2.9901
 2156TIP3   OH227882   3.219   1.132  16.099 -0.1144  0.1221  0.4311
 2156TIP3    H127883   3.202   1.082  16.179  0.1355 -1.0654 -0.2324
 2156TIP3    H227884   3.207   1.223  16.125  0.9835 -0.1588  2.0860
 2157TIP3   OH227885   0.281   0.354   2.199  0.2549  0.3013 -0.2897
 2157TIP3    H127886   0.300   0.398   2.117 -1.2618  0.4722 -0.5585
 2157TIP3    H227887   0.188   0.368   2.215  0.4569  0.0766  1.3449
 2158TIP3   OH227888   4.814   1.647   2.135  0.3894 -0.5622 -0.0986
 2158TIP3    H127889   4.767   1.581   2.085  1.1801 -1.0774 -0.1826
 2158TIP3    H227890   4.818   1.612   2.224  1.6187 -1.0848 -0.3426
 2159TIP3   OH227891   0.987   3.208  16.189 -0.5401  0.1286 -0.2542
 2159TIP3    H127892   0.982   3.222  16.284  1.3793 -0.9178  0.0493
 2159TIP3    H227893   0.896   3.195  16.162 -0.9887 -1.7966  1.8384
 2160TIP3   OH227894   0.600   2.928   0.943  0.0762  0.6646  0.2224
 2160TIP3    H127895   0.566   2.879   1.017  1.0209  0.1686  0.3444
 2160TIP3    H227896   0.649   3.000   0.982  0.8807  0.1974  0.1094
 2161TIP3   OH227897   3.861   3.471   4.700 -0.5086 -0.0941 -0.2163
 2161TIP3    H127898   3.950   3.448   4.729 -0.5381 -1.0543 -0.8459
 2161TIP3    H227899   3.875   3.534   4.629 -0.3214 -0.3326 -0.3950
 2162TIP3   OH227900   0.746   4.427   3.881 -0.6436 -0.4503  0.0142
 2162TIP3    H127901   0.719   4.362   3.946 -0.0774 -0.1464  0.5702
 2162TIP3    H227902   0.842   4.419   3.879 -0.5012  0.8528  0.6258
 2163TIP3   OH227903   4.431   4.155   2.409 -0.1694 -0.2874  0.2100
 2163TIP3    H127904   4.474   4.237   2.387  1.4734 -0.4739  2.4381
 2163TIP3    H227905   4.501   4.090   2.411 -1.2432 -1.5329 -0.2630
 2164TIP3   OH227906   4.733   1.959  11.827 -0.6279 -0.2332  0.1678
 2164TIP3    H127907   4.746   1.889  11.891  1.0732 -1.2364 -1.1826
 2164TIP3    H227908   4.699   1.914  11.749  0.8279  0.3391 -0.8470
 2165TIP3   OH227909   2.441   6.299   4.500 -1.3141  0.0978 -0.3781
 2165TIP3    H127910   2.512   6.339   4.450 -1.6264  0.7459 -0.3141
 2165TIP3    H227911   2.463   6.317   4.591  0.3823 -2.9120 -0.0660
 2166TIP3   OH227912   3.282   6.545  16.247  0.2160  0.0837  0.2435
 2166TIP3    H127913   3.194   6.516  16.270 -0.7215  2.6400  0.2123
 2166TIP3    H227914   3.315   6.587  16.327  1.2093 -0.3965  0.0991
 2167TIP3   OH227915   5.802   1.141  11.588 -0.4183  0.0999 -0.2241
 2167TIP3    H127916   5.791   1.157  11.494  1.9677  0.1041 -0.5706
 2167TIP3    H227917   5.762   1.055  11.603 -0.6661  0.0243 -1.2665
 2168TIP3   OH227918   6.418   6.559   0.849 -0.1061  0.1222  0.4370
 2168TIP3    H127919   6.386   6.649   0.846  2.3617  1.2067  2.6774
 2168TIP3    H227920   6.387   6.525   0.932 -0.2579 -0.8011  0.0124
 2169TIP3   OH227921   0.408   4.721  16.899 -0.4754  0.3506  0.0769
 2169TIP3    H127922   0.491   4.700  16.856 -0.6344  0.0168 -0.0713
 2169TIP3    H227923   0.355   4.764  16.832 -1.8386 -2.7570 -1.0254
 2170TIP3   OH227924   0.943   1.379  10.762 -0.4174 -0.2221 -0.4842
 2170TIP3    H127925   0.901   1.377  10.848 -0.4665  1.2488 -0.4577
 2170TIP3    H227926   0.994   1.298  10.758  1.4044  0.6910  1.8531
 2171TIP3   OH227927   1.253   0.333  16.323 -0.1836 -0.0676  0.1055
 2171TIP3    H127928   1.309   0.340  16.245  2.5580  0.4080  1.9647
 2171TIP3    H227929   1.275   0.248  16.361 -2.3530 -0.8065 -0.1915
 2172TIP3   OH227930   6.254   4.403  11.774  0.0583  0.0069 -0.1268
 2172TIP3    H127931   6.296   4.336  11.720  0.8642  0.6000 -0.2434
 2172TIP3    H227932   6.170   4.364  11.798  0.6734 -1.2133  0.1353
 2173TIP3   OH227933   1.282   1.121  14.645  0.3986 -0.3285 -0.1945
 2173TIP3    H127934   1.190   1.132  14.620  0.4099  0.3794  0.0265
 2173TIP3    H227935   1.295   1.027  14.648 -0.4356 -0.4492  0.1583
 2174TIP3   OH227936   0.025   3.887  13.993  0.4189 -0.2897  0.4002
 2174TIP3    H127937   0.104   3.834  13.989  0.5603 -0.0563 -3.5028
 2174TIP3    H227938  -0.043   3.831  13.956 -0.1777  1.0407 -0.6119
 2175TIP3   OH227939   1.591   4.415  10.794  0.7339 -0.1583  0.9876
 2175TIP3    H127940   1.613   4.496  10.839 -0.3323  1.4468 -1.2154
 2175TIP3    H227941   1.564   4.442  10.706 -1.4384 -2.7231  0.7213
 2176TIP3   OH227942   0.267   5.473   3.916 -0.3098  0.4721 -0.6398
 2176TIP3    H127943   0.303   5.509   3.997 -0.9491  2.0513 -1.0145
 2176TIP3    H227944   0.216   5.397   3.943 -0.6917  1.1077  0.4797
 2177TIP3   OH227945   1.057   4.666  15.388  0.4453  0.0655  0.0412
 2177TIP3    H127946   1.079   4.600  15.322  2.2798  1.1002 -0.4293
 2177TIP3    H227947   1.117   4.649  15.460 -0.1727  0.2219  0.5995
 2178TIP3   OH227948   5.406   6.431   1.279  0.0425 -0.3478  0.3279
 2178TIP3    H127949   5.449   6.508   1.241  1.3811 -0.9244  0.5960
 2178TIP3    H227950   5.444   6.357   1.231 -1.0471 -0.8613  0.2330
 2179TIP3   OH227951   6.042   5.010  16.597 -0.1584  0.0656  0.0007
 2179TIP3    H127952   6.115   5.011  16.535 -0.6487 -1.0275 -0.6263
 2179TIP3    H227953   6.083   5.029  16.682  0.9527 -1.0423 -0.2522
 2180TIP3   OH227954   1.207   1.730  10.851 -0.1556 -0.1978 -0.5805
 2180TIP3    H127955   1.246   1.817  10.845  0.0252 -0.3392 -2.0314
 2180TIP3    H227956   1.200   1.701  10.760 -1.4013 -1.1825 -0.2089
 2181TIP3   OH227957   0.409   6.793  16.754 -0.2288  0.5034  0.0800
 2181TIP3    H127958   0.340   6.727  16.741 -1.1240  1.5466 -0.6719
 2181TIP3    H227959   0.446   6.772  16.839 -3.1960  1.4058  1.7421
 2182TIP3   OH227960   1.210   4.782  13.072  0.0035 -0.7309  0.0732
 2182TIP3    H127961   1.209   4.794  13.167 -1.1735  1.6542 -0.1616
 2182TIP3    H227962   1.303   4.788  13.048  0.1174  1.4943  0.8485
 2183TIP3   OH227963   4.844   2.969   5.285  0.6977 -0.0938  0.2261
 2183TIP3    H127964   4.864   2.971   5.191 -0.0278 -1.0138  0.0374
 2183TIP3    H227965   4.757   2.930   5.290 -0.1680  1.8337  1.1727
 2184TIP3   OH227966   5.744   3.319   0.007  0.0312 -0.0333 -0.2061
 2184TIP3    H127967   5.797   3.310  -0.072 -0.5053  1.1051 -0.7266
 2184TIP3    H227968   5.750   3.233   0.050  1.8987 -0.0776 -0.4628
 2185TIP3   OH227969   2.083   2.336  13.244 -0.1116  0.4256  0.2876
 2185TIP3    H127970   2.146   2.368  13.310 -0.7184  2.0577  0.1175
 2185TIP3    H227971   1.999   2.370  13.273 -0.5814  0.0989 -0.6648
 2186TIP3   OH227972   0.330   2.607   1.827 -0.1410 -0.4223  0.0311
 2186TIP3    H127973   0.363   2.573   1.744 -0.5745 -2.0166  0.4835
 2186TIP3    H227974   0.391   2.573   1.893 -1.4319 -1.6526  0.6503
 2187TIP3   OH227975   2.579   2.443   1.030 -0.2784  0.2242 -0.2348
 2187TIP3    H127976   2.512   2.512   1.024 -1.4561 -0.8555  0.0596
 2187TIP3    H227977   2.625   2.447   0.946  0.4957  2.1463  0.2238
 2188TIP3   OH227978   3.627   0.647  15.694  0.0725 -0.7163  0.1017
 2188TIP3    H127979   3.695   0.671  15.631  0.0142 -0.1206  0.2645
 2188TIP3    H227980   3.654   0.561  15.727  0.7214 -0.4991  0.1365
 2189TIP3   OH227981   6.796   5.063  14.838 -0.1688  0.4289 -0.3251
 2189TIP3    H127982   6.734   5.135  14.849 -0.8391 -0.3726  1.5193
 2189TIP3    H227983   6.742   4.989  14.810  0.2141  0.1568 -0.3454
 2190TIP3   OH227984   2.056   4.500   1.164  0.0012  0.1680  0.4463
 2190TIP3    H127985   2.101   4.569   1.214 -2.0853  0.2274  2.4275
 2190TIP3    H227986   1.983   4.545   1.122 -0.8348 -0.6682  0.9826
 2191TIP3   OH227987   4.151   1.167  15.508  0.3240  0.1036 -0.0506
 2191TIP3    H127988   4.177   1.161  15.600 -1.0096 -0.2083  0.3290
 2191TIP3    H227989   4.072   1.113  15.502  0.3770  0.1471 -1.3766
 2192TIP3   OH227990   4.216   5.304  16.294 -0.6383 -0.4789 -0.4502
 2192TIP3    H127991   4.208   5.398  16.279  0.9570  0.0285  1.4059
 2192TIP3    H227992   4.196   5.293  16.387  2.2109 -1.4713  0.1609
 2193TIP3   OH227993   1.403   4.335   2.630  0.0680 -0.3562 -0.0184
 2193TIP3    H127994   1.327   4.388   2.654  0.6665  0.4647  0.0953
 2193TIP3    H227995   1.478   4.380   2.669  0.4962 -1.8715  1.0165
 2194TIP3   OH227996   0.011   1.899  13.530 -0.0731  0.3818 -0.0652
 2194TIP3    H127997  -0.036   1.831  13.578 -0.2708 -0.0860 -0.9063
 2194TIP3    H227998   0.068   1.939  13.596 -0.3238 -0.2569  0.5586
 2195TIP3   OH227999   1.346   1.789  16.133  0.1246 -0.2817  0.7966
 2195TIP3    H128000   1.434   1.787  16.171 -0.1394  0.7416  1.5031
 2195TIP3    H228001   1.360   1.769  16.041  1.0109 -0.8662  1.0367
 2196TIP3   OH228002   4.141   2.232  11.770 -0.9115 -0.4704 -0.1325
 2196TIP3    H128003   4.205   2.165  11.796  0.0961  0.3552 -0.4196
 2196TIP3    H228004   4.087   2.245  11.848  1.2952  1.1032  1.2377
 2197TIP3   OH228005   5.915   2.396  14.841 -0.9184 -0.0777  0.0485
 2197TIP3    H128006   5.888   2.456  14.771  1.2304 -0.8533 -1.5527
 2197TIP3    H228007   5.860   2.319  14.828 -0.5185 -0.2266 -0.8279
 2198TIP3   OH228008   1.487   5.459  15.558  0.5547 -0.0996 -0.0217
 2198TIP3    H128009   1.516   5.411  15.635  0.5757 -0.6897 -0.3919
 2198TIP3    H228010   1.391   5.453  15.561  0.5096  0.7939  0.5330
 2199TIP3   OH228011   2.567   4.990  13.181  0.3683  0.3194  0.0560
 2199TIP3    H128012   2.650   4.960  13.217  0.3483  1.2575  0.9693
 2199TIP3    H228013   2.587   5.020  13.093  0.2193 -3.0594 -1.2635
 2200TIP3   OH228014   0.211   0.987  14.273 -0.0228 -0.8215 -0.5746
 2200TIP3    H128015   0.153   0.987  14.196  1.2855 -1.0853 -1.6007
 2200TIP3    H228016   0.152   0.984  14.348 -1.3290 -1.0822 -1.5823
 2201TIP3   OH228017   1.506   5.962  16.127 -0.6402  0.4959 -0.3532
 2201TIP3    H128018   1.464   5.983  16.044  0.2967 -1.5371 -1.3982
 2201TIP3    H228019   1.433   5.942  16.186 -1.2575 -0.3727 -1.3766
 2202TIP3   OH228020   1.780   2.990  11.166 -0.1477 -0.1183  0.2964
 2202TIP3    H128021   1.823   2.927  11.107  0.1752  0.9142 -0.5999
 2202TIP3    H228022   1.691   2.997  11.132  0.4757  1.6726 -1.1040
 2203TIP3   OH228023   3.829   0.785  15.899  0.0909 -0.5602  0.0645
 2203TIP3    H128024   3.814   0.861  15.842 -0.5319 -1.2451 -0.6979
 2203TIP3    H228025   3.747   0.773  15.946 -0.1313 -1.3047 -0.4892
 2204TIP3   OH228026   3.327   5.318   3.869  0.0496 -0.1095 -0.0292
 2204TIP3    H128027   3.415   5.328   3.831 -0.8355 -1.5511 -2.7570
 2204TIP3    H228028   3.336   5.349   3.959  2.5797  2.8309 -1.1038
 2205TIP3   OH228029   0.534   3.553   0.536  0.1072  0.9269  0.1234
 2205TIP3    H128030   0.597   3.584   0.601  0.5812  2.3734 -0.9752
 2205TIP3    H228031   0.482   3.630   0.513 -1.0371  0.1077 -0.1487
 2206TIP3   OH228032   3.407   5.942  12.058  0.0349 -0.0416 -0.5711
 2206TIP3    H128033   3.349   5.964  12.131  0.5748 -0.9615  0.1552
 2206TIP3    H228034   3.372   5.861  12.022 -1.0276  1.0887 -2.2395
 2207TIP3   OH228035   1.704   0.627   2.303 -0.1633 -0.6238 -0.1149
 2207TIP3    H128036   1.650   0.615   2.381 -3.0283  1.4675 -1.5994
 2207TIP3    H228037   1.662   0.575   2.235  0.5534 -0.1206 -0.9734
 2208TIP3   OH228038   2.199   3.509   2.234 -0.1689  0.5673 -0.1281
 2208TIP3    H128039   2.192   3.565   2.312 -0.1360  1.3003 -0.6343
 2208TIP3    H228040   2.290   3.518   2.206  0.5754 -1.8431  1.2850
 2209TIP3   OH228041   6.745   6.780   5.074  0.0723 -0.3163 -0.0592
 2209TIP3    H128042   6.718   6.833   5.149  4.2553  0.7576  0.9512
 2209TIP3    H228043   6.738   6.840   4.999  0.8486  0.3715  0.3961
 2210TIP3   OH228044   3.739   2.771   3.250 -0.3146 -0.2254 -0.3222
 2210TIP3    H128045   3.649   2.753   3.280 -0.6479  0.6764 -0.7415
 2210TIP3    H228046   3.760   2.698   3.192  0.2476 -1.8815  1.8280
 2211TIP3   OH228047   5.263   6.240  14.962  0.0337  0.0531 -0.2115
 2211TIP3    H128048   5.354   6.270  14.963  0.5017 -1.2851  0.4586
 2211TIP3    H228049   5.252   6.193  15.046 -0.5388 -1.8438 -1.2776
 2212TIP3   OH228050   1.300   0.450  15.425  0.5660  0.2254 -0.1196
 2212TIP3    H128051   1.350   0.435  15.505  1.1614  0.5570 -0.4212
 2212TIP3    H228052   1.354   0.413  15.355  1.7929  3.0422 -0.8071
 2213TIP3   OH228053   3.369   1.658   4.277  0.3686  0.0735 -0.4716
 2213TIP3    H128054   3.391   1.581   4.330 -2.1741  0.3396  1.1327
 2213TIP3    H228055   3.411   1.731   4.324 -0.9340  0.1678  0.5988
 2214TIP3   OH228056   2.148   4.454   0.768  0.0051  0.4686  0.2050
 2214TIP3    H128057   2.055   4.465   0.749  0.0982  0.9719  0.0462
 2214TIP3    H228058   2.173   4.533   0.816 -0.0275 -0.4034  1.7220
 2215TIP3   OH228059   4.795   5.465   1.523 -0.3565 -0.2642 -0.0155
 2215TIP3    H128060   4.715   5.462   1.470 -1.3750  0.4571  1.3964
 2215TIP3    H228061   4.768   5.509   1.604  1.8513  1.4314 -0.1142
 2216TIP3   OH228062   4.900   4.776   1.102  0.0526 -0.0655  0.6208
 2216TIP3    H128063   4.847   4.698   1.085 -0.4190 -0.3010  2.9017
 2216TIP3    H228064   4.980   4.743   1.143  1.8528  0.3436 -2.2928
 2217TIP3   OH228065   5.384   0.281   2.542 -0.3192 -0.1045  0.6884
 2217TIP3    H128066   5.338   0.217   2.596 -1.8912  0.4316  0.0279
 2217TIP3    H228067   5.354   0.366   2.574 -3.0088  0.2308 -2.3441
 2218TIP3   OH228068   2.794   0.407   1.898  0.1168  0.0446 -0.2107
 2218TIP3    H128069   2.837   0.370   1.821  0.2083  1.8779 -1.0902
 2218TIP3    H228070   2.860   0.463   1.938  0.3720 -1.5389  1.7737
 2219TIP3   OH228071   3.896   0.447   2.235  0.6377  0.1924 -0.3086
 2219TIP3    H128072   3.812   0.401   2.226  1.0983 -0.8530  0.4744
 2219TIP3    H228073   3.930   0.453   2.146  1.2118 -2.3206 -0.3433
 2220TIP3   OH228074   4.933   6.260   0.793 -0.0697  0.0604  0.1772
 2220TIP3    H128075   5.024   6.275   0.820 -0.2280  0.7752  0.3196
 2220TIP3    H228076   4.935   6.173   0.752  0.8032  0.3429 -0.4080
 2221TIP3   OH228077   1.165   5.227   3.138 -0.0547 -0.4654 -0.0859
 2221TIP3    H128078   1.241   5.225   3.196 -0.3502  0.3432  0.3454
 2221TIP3    H228079   1.200   5.257   3.054  0.4328 -1.9476 -0.4479
 2222TIP3   OH228080   6.190   0.443   5.896  0.3990  0.0866  0.0426
 2222TIP3    H128081   6.261   0.506   5.883  1.2126 -0.5647  1.1427
 2222TIP3    H228082   6.188   0.429   5.991 -0.0001 -1.2588 -0.1460
 2223TIP3   OH228083   6.130   5.448  11.977  0.3925 -0.4523  0.1829
 2223TIP3    H128084   6.218   5.484  11.969  0.6085 -1.1173 -0.5664
 2223TIP3    H228085   6.143   5.357  12.002 -0.1211 -0.2972  1.0631
 2224TIP3   OH228086   1.001   0.002  11.259  0.5710  0.2637 -0.0459
 2224TIP3    H128087   1.049   0.044  11.187  3.4179 -0.8187  1.0813
 2224TIP3    H228088   1.005   0.065  11.331  0.5112  0.0638  0.1346
 2225TIP3   OH228089   0.084   4.839  14.164  0.4038  0.0363 -0.3526
 2225TIP3    H128090  -0.011   4.851  14.172  0.4948  0.9634 -0.6262
 2225TIP3    H228091   0.105   4.873  14.077  0.9385 -0.5192 -0.4471
 2226TIP3   OH228092   3.294   3.536  11.943  0.0333  0.1717 -0.0884
 2226TIP3    H128093   3.348   3.504  11.871 -1.2122 -0.0241 -0.9623
 2226TIP3    H228094   3.209   3.493  11.931 -0.4860  0.8573  0.9509
 2227TIP3   OH228095   4.906   3.049   2.123 -0.2786  0.1964 -0.0645
 2227TIP3    H128096   4.833   2.993   2.095 -0.0537  0.0171 -0.2975
 2227TIP3    H228097   4.907   3.040   2.218 -0.3378 -0.0790 -0.0887
 2228TIP3   OH228098   0.732   3.230  16.170 -0.1379 -0.4412  0.0542
 2228TIP3    H128099   0.649   3.206  16.210 -1.2296 -0.0041 -1.8171
 2228TIP3    H228100   0.741   3.324  16.186 -1.3198  0.0548 -1.8726
 2229TIP3   OH228101   5.733   3.562   1.902  0.3049  0.4081 -0.0945
 2229TIP3    H128102   5.641   3.548   1.924  0.7218  0.1643  1.6678
 2229TIP3    H228103   5.743   3.524   1.814 -0.8348 -1.3894  0.4927
 2230TIP3   OH228104   1.034   0.515   2.773  0.0975 -0.0462  0.4461
 2230TIP3    H128105   1.013   0.450   2.839  1.7065  0.7005  1.7658
 2230TIP3    H228106   0.971   0.586   2.788 -1.4170 -1.0827 -0.7581
 2231TIP3   OH228107   3.882   1.989   0.285  0.4943  0.4011 -0.4941
 2231TIP3    H128108   3.849   1.927   0.220  0.8574  0.7623 -1.0422
 2231TIP3    H228109   3.958   1.946   0.323  1.0584  0.7088 -1.2463
 2232TIP3   OH228110   5.783   2.953   1.290 -0.5876 -0.6426  0.2018
 2232TIP3    H128111   5.843   2.941   1.216 -0.8552 -0.2640 -0.0805
 2232TIP3    H228112   5.833   2.926   1.366  0.2267  0.4210  0.0697
 2233TIP3   OH228113   3.105   5.753  14.128  0.0427  0.1982 -0.1595
 2233TIP3    H128114   3.063   5.741  14.043 -1.3843 -0.8688  0.6569
 2233TIP3    H228115   3.034   5.781  14.186  0.7671 -0.1589  0.9208
 2234TIP3   OH228116   3.310   3.877  16.699 -0.8440 -0.1748 -0.0582
 2234TIP3    H128117   3.322   3.972  16.712 -2.1910 -0.0774  0.6822
 2234TIP3    H228118   3.371   3.837  16.761  2.3195  0.0725 -2.7227
 2235TIP3   OH228119   3.456   2.040  15.636  0.2220  0.5283 -0.1273
 2235TIP3    H128120   3.543   2.081  15.638  0.7011 -0.4750  0.3617
 2235TIP3    H228121   3.411   2.084  15.564  0.8641  1.5827  0.0815
 2236TIP3   OH228122   2.467   4.089  15.941 -0.9538 -0.2841  0.0458
 2236TIP3    H128123   2.427   4.176  15.946 -0.3451 -0.0050  0.2419
 2236TIP3    H228124   2.436   4.044  16.020 -0.3907  0.1493  0.5252
 2237TIP3   OH228125   0.346   2.323  10.567 -0.6281  0.6994  0.6446
 2237TIP3    H128126   0.431   2.348  10.602  0.4681 -0.5882 -0.9684
 2237TIP3    H228127   0.331   2.383  10.493  0.3046 -0.8788 -0.9132
 2238TIP3   OH228128   1.518   6.231   6.404  0.6824 -0.0959 -0.5731
 2238TIP3    H128129   1.500   6.138   6.414  1.4306 -0.1445  0.4769
 2238TIP3    H228130   1.465   6.258   6.329 -0.5202 -1.0818 -0.1045
 2239TIP3   OH228131   3.842   5.850   1.511 -0.7766  0.5206  0.0486
 2239TIP3    H128132   3.857   5.938   1.546  0.2304  0.1646  0.5577
 2239TIP3    H228133   3.754   5.854   1.473 -2.1693  0.8458  3.0106
 2240TIP3   OH228134   5.240   1.813  15.974  0.7053 -0.1420  0.4887
 2240TIP3    H128135   5.276   1.848  15.892  1.2926  1.7842  1.4992
 2240TIP3    H228136   5.298   1.848  16.042 -0.8777 -0.1092  1.8835
 2241TIP3   OH228137   1.307   1.876  15.172 -0.1244  0.1790  0.8545
 2241TIP3    H128138   1.224   1.908  15.208 -0.9243 -0.2491 -0.5130
 2241TIP3    H228139   1.285   1.791  15.134  0.3092  1.1229 -1.7328
 2242TIP3   OH228140   5.934   0.844  16.338  0.0950  0.3460 -0.6219
 2242TIP3    H128141   5.980   0.762  16.357  0.2844  0.6612  0.3801
 2242TIP3    H228142   5.898   0.832  16.251 -0.0207 -0.8673 -0.4253
 2243TIP3   OH228143   3.048   4.855   2.589 -0.1750 -0.4402 -0.1190
 2243TIP3    H128144   3.080   4.945   2.597  0.2855 -0.6351  0.2411
 2243TIP3    H228145   3.007   4.837   2.673 -1.1768 -0.2222 -0.5448
 2244TIP3   OH228146   3.203   6.282   4.503  0.5663  0.4726 -0.0767
 2244TIP3    H128147   3.234   6.251   4.418 -2.6854 -0.0449 -1.2097
 2244TIP3    H228148   3.160   6.206   4.542  0.3219  1.2203  1.1838
 2245TIP3   OH228149   6.441   3.801  11.515 -0.0857 -0.1651  0.1951
 2245TIP3    H128150   6.407   3.715  11.537  0.5117 -0.1314  1.3681
 2245TIP3    H228151   6.449   3.801  11.420 -0.6462 -1.1839  0.1369
 2246TIP3   OH228152   2.075   1.166   2.387 -0.1049 -0.0089  0.3365
 2246TIP3    H128153   1.998   1.115   2.362  0.4097 -0.4579 -0.3685
 2246TIP3    H228154   2.149   1.110   2.365  0.5678  1.7351 -2.2360
 2247TIP3   OH228155   1.033   2.360  11.979 -0.6161 -0.2939  0.3146
 2247TIP3    H128156   1.012   2.454  11.978 -0.4184 -0.2361 -1.0022
 2247TIP3    H228157   1.127   2.357  11.999 -0.3266 -0.1127 -0.9288
 2248TIP3   OH228158   5.744   2.649  15.868  0.7636 -0.1951 -0.1839
 2248TIP3    H128159   5.796   2.588  15.921 -1.4716 -2.1600 -0.1004
 2248TIP3    H228160   5.716   2.716  15.929  3.1768  0.9831 -0.2483
 2249TIP3   OH228161   5.750   4.094   2.514 -0.4342  0.3652  0.8830
 2249TIP3    H128162   5.756   4.173   2.460  0.5025 -0.8437 -0.8942
 2249TIP3    H228163   5.841   4.076   2.539 -0.4606 -0.9304  0.0698
 2250TIP3   OH228164   2.047   3.795   3.159  0.3000 -0.2462 -0.1512
 2250TIP3    H128165   2.046   3.717   3.215  1.5305 -1.0502 -1.1854
 2250TIP3    H228166   1.957   3.805   3.129  0.1691 -1.4108 -0.1862
 2251TIP3   OH228167   5.088   2.003  11.408  0.2899 -0.3105 -0.3941
 2251TIP3    H128168   5.001   2.033  11.381 -0.1667 -1.6248 -0.4183
 2251TIP3    H228169   5.145   2.031  11.336 -0.2976 -0.4595 -0.9344
 2252TIP3   OH228170   0.500   1.934  13.604 -0.2843 -0.0692 -0.1797
 2252TIP3    H128171   0.474   1.855  13.557 -0.9999 -1.0746  1.7809
 2252TIP3    H228172   0.419   1.970  13.639 -0.0477  1.9277 -1.5398
 2253TIP3   OH228173   6.685   3.802   1.571  0.4883 -0.1245  0.3755
 2253TIP3    H128174   6.735   3.828   1.494  0.2111 -0.2285  0.1566
 2253TIP3    H228175   6.714   3.712   1.589  2.5454  0.8075  2.0294
 2254TIP3   OH228176   0.014   2.476  11.631 -0.0353 -0.2729 -0.1274
 2254TIP3    H128177   0.063   2.512  11.705 -0.6623  1.7635 -0.6247
 2254TIP3    H228178  -0.010   2.388  11.658 -0.6775  0.5790  2.3233
 2255TIP3   OH228179   1.338   3.822  12.135  0.7510 -0.3242  0.2892
 2255TIP3    H128180   1.254   3.778  12.151  1.1240 -1.0297  0.3779
 2255TIP3    H228181   1.338   3.839  12.041  0.6001 -0.5294  0.2494
 2256TIP3   OH228182   5.287   5.585  13.112  0.4384 -0.4928  0.0993
 2256TIP3    H128183   5.196   5.614  13.104  0.1040 -1.3049  0.7429
 2256TIP3    H228184   5.321   5.635  13.186  0.3614 -0.5431  0.1697
 2257TIP3   OH228185   5.871   2.822  12.637  0.0363  0.1493 -0.8808
 2257TIP3    H128186   5.939   2.890  12.643  0.2390 -0.1703  1.3008
 2257TIP3    H228187   5.793   2.862  12.675 -0.0895 -0.5557 -0.3782
 2258TIP3   OH228188   0.027   3.656  15.686  0.6904  0.1170  0.0831
 2258TIP3    H128189   0.030   3.746  15.654  1.1371  0.6943  1.6901
 2258TIP3    H228190   0.016   3.604  15.606 -0.7488  1.6408 -0.7834
 2259TIP3   OH228191   0.978   2.453  16.799  0.0909  0.1658  0.1237
 2259TIP3    H128192   1.012   2.527  16.849  0.2243  0.8256 -0.9129
 2259TIP3    H228193   1.055   2.398  16.782  0.0264 -0.1171  0.7192
 2260TIP3   OH228194   2.859   3.277  16.278 -0.2574  0.7686 -0.4509
 2260TIP3    H128195   2.850   3.293  16.372 -0.0870  0.5084 -0.3902
 2260TIP3    H228196   2.769   3.281  16.244 -0.7068 -2.0123  0.1762
 2261TIP3   OH228197   1.597   2.121   3.615 -0.2577  0.2731  0.0374
 2261TIP3    H128198   1.529   2.114   3.548 -0.9918  1.6237  0.6136
 2261TIP3    H228199   1.573   2.198   3.666  0.9555 -0.0284  1.1149
 2262TIP3   OH228200   2.184   0.274  13.688  0.3795  0.2923 -0.0717
 2262TIP3    H128201   2.150   0.358  13.717 -0.7852 -0.6533  1.4852
 2262TIP3    H228202   2.110   0.214  13.697  0.9642 -0.7651 -1.8516
 2263TIP3   OH228203   2.531   6.335   5.857  0.3397 -0.2957  0.4152
 2263TIP3    H128204   2.510   6.397   5.926 -0.6117 -0.7427  0.5415
 2263TIP3    H228205   2.465   6.350   5.790  2.1339  1.1642 -1.1069
 2264TIP3   OH228206   4.172   4.998   3.243 -0.2922 -0.2751  0.0613
 2264TIP3    H128207   4.226   5.053   3.300 -1.7741 -0.9035  2.2066
 2264TIP3    H228208   4.191   4.909   3.270 -0.4725 -0.6485 -0.9826
 2265TIP3   OH228209   1.208   1.430  12.306 -0.3844 -0.3501  0.0279
 2265TIP3    H128210   1.242   1.345  12.280 -0.8433 -0.5306  0.0096
 2265TIP3    H228211   1.271   1.464  12.369  0.3127 -0.2725 -0.6994
 2266TIP3   OH228212   5.284   6.283   6.186  0.4741 -0.6111  0.0379
 2266TIP3    H128213   5.249   6.327   6.263 -0.4412 -1.2541  0.0059
 2266TIP3    H228214   5.351   6.223   6.220  0.2770 -0.6800  0.3073
 2267TIP3   OH228215   3.143   0.292  11.738  0.5770  0.1144 -0.3365
 2267TIP3    H128216   3.143   0.334  11.824 -0.5226 -0.5008 -0.0156
 2267TIP3    H228217   3.169   0.202  11.755 -2.1905 -0.7579 -0.1907
 2268TIP3   OH228218   5.236   3.113  11.482 -0.1120 -0.6144  0.5724
 2268TIP3    H128219   5.299   3.180  11.456  2.0737 -2.6625  0.2078
 2268TIP3    H228220   5.193   3.088  11.401 -0.9360  0.2849  0.7095
 2269TIP3   OH228221   3.147   6.314  11.222  0.1632 -0.7126 -0.5725
 2269TIP3    H128222   3.137   6.332  11.129 -0.7149 -0.2740 -0.4129
 2269TIP3    H228223   3.182   6.225  11.227 -0.3959 -0.9782 -1.3124
 2270TIP3   OH228224   2.631   3.876   3.151 -0.2748 -0.1614 -0.0597
 2270TIP3    H128225   2.589   3.888   3.237  0.2510 -0.3703  0.2348
 2270TIP3    H228226   2.707   3.935   3.154 -0.5767  0.2542 -0.6051
 2271TIP3   OH228227   4.379   5.636  15.139 -0.4694 -0.3863  0.6978
 2271TIP3    H128228   4.368   5.548  15.102  0.5655 -0.1401 -0.2525
 2271TIP3    H228229   4.289   5.669  15.149 -0.8396 -1.2135  0.2383
 2272TIP3   OH228230   1.260   4.227   5.233  0.3669  0.2182  0.1788
 2272TIP3    H128231   1.182   4.195   5.188  0.0939  0.3671  0.5413
 2272TIP3    H228232   1.329   4.165   5.207  0.3672  0.6549 -0.9433
 2273TIP3   OH228233   1.877   4.645   3.916  0.0556 -0.0182  0.4127
 2273TIP3    H128234   1.920   4.695   3.847  0.3231 -1.6694 -0.6931
 2273TIP3    H228235   1.786   4.637   3.888 -0.3003  0.9048  1.2359
 2274TIP3   OH228236   1.150   4.993  16.013  0.5102 -0.2190  0.2989
 2274TIP3    H128237   1.117   5.072  16.055  1.0963  0.9772 -1.3719
 2274TIP3    H228238   1.073   4.950  15.976  0.4255  0.8670 -0.8407
 2275TIP3   OH228239   1.226   2.160  11.665 -0.1941 -0.2370  0.6070
 2275TIP3    H128240   1.243   2.141  11.758 -2.1342 -0.1995  1.0057
 2275TIP3    H228241   1.298   2.117  11.619  0.6147 -0.5703  2.0997
 2276TIP3   OH228242   0.596   3.348  14.414  0.0848 -0.6956 -0.6585
 2276TIP3    H128243   0.559   3.431  14.445 -0.8324 -1.1466 -0.5239
 2276TIP3    H228244   0.668   3.375  14.357  0.6396  0.1766  0.4006
 2277TIP3   OH228245   5.024   0.892   0.817 -1.0701 -0.1752 -0.2028
 2277TIP3    H128246   5.028   0.962   0.883 -0.5098  1.2897 -1.7017
 2277TIP3    H228247   4.980   0.820   0.862  0.3439  0.2970  2.1331
 2278TIP3   OH228248   6.325   2.842  16.694 -0.4523 -0.6813 -0.0947
 2278TIP3    H128249   6.355   2.821  16.782  1.7104 -1.8758 -1.0229
 2278TIP3    H228250   6.366   2.927  16.675 -1.3652 -0.1599  0.2269
 2279TIP3   OH228251   3.209   1.600  11.267 -0.2512 -0.4258 -0.2548
 2279TIP3    H128252   3.122   1.637  11.252  0.6671  1.4229 -1.4408
 2279TIP3    H228253   3.247   1.590  11.180  1.7150  1.4915  0.2786
 2280TIP3   OH228254   4.491   3.099  16.821  0.0427 -0.3642 -0.4841
 2280TIP3    H128255   4.507   3.161  16.750  0.5282 -0.6583 -0.6352
 2280TIP3    H228256   4.578   3.069  16.847 -0.0832  0.2502  0.7027
 2281TIP3   OH228257   4.903   6.004  14.259  0.4183 -0.7590  0.5726
 2281TIP3    H128258   4.950   5.921  14.266  0.8141 -0.7412 -1.4078
 2281TIP3    H228259   4.827   5.984  14.204  1.1157  0.3927 -0.8816
 2282TIP3   OH228260   0.280   0.835   0.539 -0.2415 -0.7013  0.0848
 2282TIP3    H128261   0.208   0.822   0.600 -1.5992  0.6218 -1.1553
 2282TIP3    H228262   0.248   0.800   0.456 -0.5095  2.0570 -1.0910
 2283TIP3   OH228263   0.009   4.506   2.461 -0.0041  0.1642 -0.2691
 2283TIP3    H128264   0.048   4.574   2.516 -0.9924  1.4151 -1.0608
 2283TIP3    H228265   0.042   4.424   2.498 -1.7035  0.7926  3.1210
 2284TIP3   OH228266   3.371   2.742   5.366  0.6684 -0.2712 -0.2167
 2284TIP3    H128267   3.290   2.776   5.328  0.7749  3.0472  2.1403
 2284TIP3    H228268   3.343   2.701   5.448  1.2417 -0.1993  0.0168
 2285TIP3   OH228269   5.923   4.141  12.920  0.0114 -0.2474 -0.1286
 2285TIP3    H128270   5.908   4.228  12.956  2.0277  1.0793 -2.2029
 2285TIP3    H228271   5.971   4.094  12.989 -1.8314 -0.0776  1.3333
 2286TIP3   OH228272   0.627   2.676   1.451  0.4886  0.1596 -0.1902
 2286TIP3    H128273   0.704   2.717   1.491 -0.5235  1.2724  0.7243
 2286TIP3    H228274   0.615   2.724   1.369 -0.8998  2.0936  1.0410
 2287TIP3   OH228275   3.678   6.013  12.259  0.2389 -0.6814  0.1822
 2287TIP3    H128276   3.611   5.968  12.208  0.7275 -0.4708 -0.6459
 2287TIP3    H228277   3.629   6.072  12.317 -0.4822 -2.8072  1.8921
 2288TIP3   OH228278   1.426   6.418   1.656  0.5294  0.1505  0.0075
 2288TIP3    H128279   1.370   6.361   1.602 -0.6316  0.4151  0.8968
 2288TIP3    H228280   1.511   6.375   1.656  0.2164 -0.5056 -1.0175
 2289TIP3   OH228281   3.117   2.864   3.254 -0.1432  0.0439  1.3696
 2289TIP3    H128282   3.177   2.923   3.299  1.8565 -0.8603  0.0232
 2289TIP3    H228283   3.162   2.840   3.173 -1.6855 -1.8441  0.9821
 2290TIP3   OH228284   4.195   5.827  10.807 -0.5600  0.0538 -0.0467
 2290TIP3    H128285   4.233   5.781  10.881  0.5587  1.5813  0.3856
 2290TIP3    H228286   4.188   5.761  10.738  0.5467 -0.8665  0.6881
 2291TIP3   OH228287   4.736   3.757   0.692  0.0048  0.1547  0.1979
 2291TIP3    H128288   4.821   3.740   0.651  1.2912  2.5917  1.6412
 2291TIP3    H228289   4.734   3.697   0.767  0.5548  0.2237  0.2776
 2292TIP3   OH228290   1.106   1.457   4.957 -0.4292  0.0815  0.2894
 2292TIP3    H128291   1.095   1.548   4.983  2.1031  0.7410 -0.6978
 2292TIP3    H228292   1.165   1.420   5.023  0.5310 -0.1406 -0.6762
 2293TIP3   OH228293   1.702   2.778   5.329  0.5129  0.2970  0.0664
 2293TIP3    H128294   1.637   2.847   5.321 -0.8969 -0.8230  1.2200
 2293TIP3    H228295   1.764   2.811   5.394 -1.5171 -0.3997  2.5373
 2294TIP3   OH228296   3.909   3.134   5.660  0.3180 -0.2339  0.3422
 2294TIP3    H128297   3.982   3.073   5.666  1.1341  0.3727 -2.4170
 2294TIP3    H228298   3.949   3.218   5.639 -1.0891  0.3614 -0.0688
 2295TIP3   OH228299   2.494   6.078   4.179 -0.5406  0.3629  0.1902
 2295TIP3    H128300   2.544   6.026   4.117  0.8590  0.8450  0.8744
 2295TIP3    H228301   2.509   6.035   4.263 -0.2828  1.2014  0.5843
 2296TIP3   OH228302   3.928   5.900   0.343 -0.4958  0.1589  0.4379
 2296TIP3    H128303   3.920   5.986   0.301  1.2553 -0.3523 -1.0802
 2296TIP3    H228304   3.998   5.912   0.408 -0.5416 -0.0172  0.5190
 2297TIP3   OH228305   6.243   2.740  14.005 -0.4491 -0.6195  0.2925
 2297TIP3    H128306   6.199   2.815  14.044  0.0139 -0.0414 -0.2508
 2297TIP3    H228307   6.205   2.664  14.047 -2.3223 -0.1832 -0.4983
 2298TIP3   OH228308   4.690   5.569   2.149 -0.1440 -0.0204 -0.1217
 2298TIP3    H128309   4.712   5.600   2.062 -2.9226  0.5113 -0.7497
 2298TIP3    H228310   4.710   5.475   2.148  0.6075  0.1485 -1.0462
 2299TIP3   OH228311   4.222   5.665  14.122 -0.0548 -0.8343  0.2411
 2299TIP3    H128312   4.274   5.742  14.096 -3.1712  1.2906 -0.2664
 2299TIP3    H228313   4.170   5.644  14.045 -2.1479 -0.8793  1.6036
 2300TIP3   OH228314   4.097   0.869   3.286 -0.2669  0.1083 -0.2094
 2300TIP3    H128315   4.089   0.775   3.298 -1.2789  0.1805 -0.2453
 2300TIP3    H228316   4.166   0.879   3.219  1.1940 -0.5118  1.1423
 2301TIP3   OH228317   3.453   2.561  15.280 -0.1849  0.1431  0.2601
 2301TIP3    H128318   3.489   2.578  15.194  0.4211  0.9356  0.6552
 2301TIP3    H228319   3.462   2.466  15.292 -0.0895  0.0559 -0.4529
 2302TIP3   OH228320   5.091   0.765  14.996  0.2520 -0.6589  0.4668
 2302TIP3    H128321   5.124   0.676  14.987  0.0405 -0.5521 -2.4817
 2302TIP3    H228322   5.151   0.819  14.945 -1.2207  0.3992 -0.2498
 2303TIP3   OH228323   0.484   1.848   0.206  0.3191  0.5790 -0.1321
 2303TIP3    H128324   0.488   1.927   0.153 -0.4680  0.8573  0.2256
 2303TIP3    H228325   0.408   1.800   0.173  0.8544 -0.0991 -0.4290
 2304TIP3   OH228326   6.138   1.486   1.729  0.6964  0.0412 -0.5782
 2304TIP3    H128327   6.121   1.529   1.645 -0.9720  0.8467  0.1393
 2304TIP3    H228328   6.209   1.537   1.768 -0.5793  1.5704 -0.1847
 2305TIP3   OH228329   2.995   0.006   4.062 -0.0394  0.0314  0.3195
 2305TIP3    H128330   3.076   0.031   4.017 -0.2679  1.0595  0.4493
 2305TIP3    H228331   2.932  -0.009   3.991  0.1857 -0.5029  0.2280
 2306TIP3   OH228332   4.370   5.871  17.094  0.1175  0.1023 -0.1508
 2306TIP3    H128333   4.276   5.871  17.112  0.0761 -0.4591 -0.3546
 2306TIP3    H228334   4.377   5.889  17.001  0.0704 -2.4881 -0.7329
 2307TIP3   OH228335   6.677   4.021   2.742 -0.4891 -0.2030 -0.5116
 2307TIP3    H128336   6.642   3.967   2.813 -1.9964  1.1160 -0.1965
 2307TIP3    H228337   6.751   4.066   2.781 -0.0083 -1.0538 -0.4103
 2308TIP3   OH228338   1.869   2.170   4.672  0.2854 -0.1530  0.1569
 2308TIP3    H128339   1.932   2.133   4.610 -0.3731 -0.2027 -0.4949
 2308TIP3    H228340   1.785   2.170   4.625 -0.1450  0.2039  0.8955
 2309TIP3   OH228341   5.940   4.948  13.122 -0.8303 -0.1629 -0.6486
 2309TIP3    H128342   5.944   4.987  13.034 -0.2900  0.9170 -0.1648
 2309TIP3    H228343   5.847   4.937  13.139 -1.0747  1.7193 -0.4931
 2310TIP3   OH228344   0.218   0.127   0.051 -0.5217 -0.0182 -0.0170
 2310TIP3    H128345   0.218   0.063   0.122 -0.5171 -1.0567 -0.9237
 2310TIP3    H228346   0.193   0.076  -0.027  1.2423  0.6814 -1.1069
 2311TIP3   OH228347   4.508   5.305   0.946  0.2471 -0.3388 -0.2294
 2311TIP3    H128348   4.567   5.257   1.004 -1.0146 -0.9216  0.6428
 2311TIP3    H228349   4.451   5.237   0.909  0.4216  0.1491 -1.4323
 2312TIP3   OH228350   6.094   4.233   1.761 -0.1616  0.2182 -0.0980
 2312TIP3    H128351   6.093   4.142   1.790  0.8205  0.3325  0.3205
 2312TIP3    H228352   6.001   4.260   1.763 -0.3923 -0.5842  0.3590
 2313TIP3   OH228353   2.662   4.515  16.841 -0.2656 -0.4218 -0.8160
 2313TIP3    H128354   2.683   4.461  16.918 -0.7129  0.0005 -0.3881
 2313TIP3    H228355   2.570   4.537  16.852  0.4603  2.5974  0.4583
 2314TIP3   OH228356   0.726   1.932   2.669  0.2129  0.1810  0.3316
 2314TIP3    H128357   0.806   1.984   2.673 -0.3408  0.9614  1.4095
 2314TIP3    H228358   0.746   1.863   2.606  2.5279 -0.9533  2.1685
 2315TIP3   OH228359   1.929   5.283  14.200  0.1367 -0.4391  0.5950
 2315TIP3    H128360   2.000   5.258  14.260 -0.0740  0.5374  1.2679
 2315TIP3    H228361   1.900   5.369  14.231 -2.1216 -1.2972  1.0410
 2316TIP3   OH228362   0.084   6.263  11.818  0.1216  0.4819 -0.3693
 2316TIP3    H128363   0.030   6.340  11.801 -0.1861 -0.1835 -2.6207
 2316TIP3    H228364   0.026   6.203  11.865 -0.5170  0.5201 -1.1033
 2317TIP3   OH228365   5.370   2.376  14.207  0.0754  0.0757  0.1134
 2317TIP3    H128366   5.443   2.318  14.188 -1.2533 -1.6800  0.1187
 2317TIP3    H228367   5.313   2.326  14.265 -1.3714  1.1832 -0.2675
 2318TIP3   OH228368   2.185   4.126  14.729 -0.0050  0.6882  0.1653
 2318TIP3    H128369   2.181   4.221  14.716  0.5268  0.7323  0.2950
 2318TIP3    H228370   2.148   4.089  14.649 -0.4897  1.0067  0.2381
 2319TIP3   OH228371   5.642   3.050  15.783  0.4071 -0.1313 -0.2824
 2319TIP3    H128372   5.637   3.144  15.765 -1.1166  0.0221  0.7113
 2319TIP3    H228373   5.569   3.034  15.842  0.6742 -1.9499 -0.4050
 2320TIP3   OH228374   1.739   1.453   6.227 -0.3076  0.5115  0.0103
 2320TIP3    H128375   1.825   1.480   6.258 -0.1749 -0.1628  0.2315
 2320TIP3    H228376   1.734   1.360   6.245 -0.5300  0.2413 -1.3173
 2321TIP3   OH228377   0.049   6.102   0.545  0.4372 -0.6887 -0.3152
 2321TIP3    H128378   0.099   6.176   0.577  0.9395 -1.3174  0.3689
 2321TIP3    H228379  -0.018   6.087   0.612  0.3796 -0.8953 -0.4174
 2322TIP3   OH228380   4.819   3.369   5.466 -0.3557 -0.1260 -0.1284
 2322TIP3    H128381   4.880   3.421   5.414  1.4786 -1.5815  0.4908
 2322TIP3    H228382   4.845   3.385   5.557 -1.6157  0.0497  0.2287
 2323TIP3   OH228383   4.305   6.178   5.275 -0.1747 -0.0747  0.2885
 2323TIP3    H128384   4.386   6.213   5.237  0.8763 -2.4140  0.2281
 2323TIP3    H228385   4.263   6.131   5.203 -1.0611  0.1931  0.6114
 2324TIP3   OH228386   3.287   5.070  12.365 -0.1683  0.7917 -0.3659
 2324TIP3    H128387   3.212   5.010  12.367  0.2807  0.2119 -0.5378
 2324TIP3    H228388   3.300   5.094  12.457  1.0924 -1.2440  0.0663
 2325TIP3   OH228389   6.473   3.576  11.949 -0.0602 -0.1601 -0.2728
 2325TIP3    H128390   6.426   3.504  11.907  0.0040 -0.4806  0.2032
 2325TIP3    H228391   6.416   3.652  11.935 -1.1649 -0.6970  1.0185
 2326TIP3   OH228392   4.954   3.969   2.560 -0.0803  0.2707  0.5113
 2326TIP3    H128393   4.986   3.879   2.560 -0.1011  0.2517 -0.4533
 2326TIP3    H228394   5.033   4.023   2.570 -0.2292  0.1384  3.0480
 2327TIP3   OH228395   3.671   2.117   0.841  0.0774 -0.0403 -0.2952
 2327TIP3    H128396   3.659   2.073   0.925 -3.1120 -0.4059 -0.8063
 2327TIP3    H228397   3.681   2.210   0.864 -3.3590  0.2511  0.5382
 2328TIP3   OH228398   4.508   2.739  13.482  0.1602 -0.3926 -0.0027
 2328TIP3    H128399   4.582   2.734  13.421  0.9560 -1.2989  0.9812
 2328TIP3    H228400   4.530   2.812  13.540 -0.7823  0.7151 -1.0094
 2329TIP3   OH228401   1.702   6.390  12.297 -0.4731 -0.6903 -0.3414
 2329TIP3    H128402   1.747   6.390  12.213  0.1588 -0.5683 -0.0096
 2329TIP3    H228403   1.739   6.464  12.345 -0.0513 -1.3806  0.4420
 2330TIP3   OH228404   0.533   1.994  12.543  0.2715 -0.0078 -0.4050
 2330TIP3    H128405   0.466   1.930  12.564  0.3585 -0.4065 -1.2982
 2330TIP3    H228406   0.534   1.997  12.447  0.1186  1.4819 -0.3853
 2331TIP3   OH228407   5.314   0.546  13.156 -0.3873  0.4861 -0.4053
 2331TIP3    H128408   5.234   0.515  13.113  1.0169 -3.0963 -0.7469
 2331TIP3    H228409   5.306   0.642  13.155 -3.9495  0.3193 -1.7183
 2332TIP3   OH228410   0.756   0.988  11.516 -0.1744  0.9242  0.0484
 2332TIP3    H128411   0.766   1.044  11.592 -0.1209  0.8991  0.0601
 2332TIP3    H228412   0.831   0.928  11.521  0.3470  1.5067 -0.5251
 2333TIP3   OH228413   0.800   1.889   4.267 -0.2636  0.3215  0.1413
 2333TIP3    H128414   0.758   1.940   4.336 -0.5028  0.1861  0.0984
 2333TIP3    H228415   0.870   1.946   4.235  0.7124 -0.1421  1.3804
 2334TIP3   OH228416   1.476   2.024   1.877 -0.3660 -0.4630  0.3819
 2334TIP3    H128417   1.399   1.988   1.922 -1.0607  1.8003  1.1133
 2334TIP3    H228418   1.456   2.116   1.864  1.4391 -0.2281 -1.2020
 2335TIP3   OH228419   0.192   2.366  12.440 -0.5087 -0.0623 -0.0505
 2335TIP3    H128420   0.181   2.271  12.451 -2.3341 -0.2232 -2.4169
 2335TIP3    H228421   0.129   2.405  12.499  1.0304 -0.1914  1.7934
 2336TIP3   OH228422   5.916   0.698  13.392 -0.4650  0.1885  0.0316
 2336TIP3    H128423   5.958   0.768  13.442  0.0954  0.3826 -0.6923
 2336TIP3    H228424   5.825   0.699  13.421 -0.4266  1.1238  0.1332
 2337TIP3   OH228425   3.823   4.893  12.476  0.1997  0.1145  0.1714
 2337TIP3    H128426   3.845   4.905  12.384  1.2245  0.2590  0.4166
 2337TIP3    H228427   3.907   4.873  12.518  0.1174  1.9836  1.3798
 2338TIP3   OH228428   0.822   0.080  13.085  0.0083 -0.3958 -0.0269
 2338TIP3    H128429   0.822  -0.014  13.067  1.0292 -0.1783 -1.3198
 2338TIP3    H228430   0.858   0.088  13.174 -1.5678 -1.2898  0.7405
 2339TIP3   OH228431   6.795   2.092  15.059 -1.0044  0.0024 -0.5235
 2339TIP3    H128432   6.833   2.037  15.127  0.5807 -0.8357 -1.9869
 2339TIP3    H228433   6.720   2.134  15.100 -0.2367 -0.6296  1.6487
 2340TIP3   OH228434   5.255   1.487  13.924  0.3831 -0.8256  0.5645
 2340TIP3    H128435   5.249   1.507  14.017  4.5286 -0.2080  0.8509
 2340TIP3    H228436   5.251   1.573  13.881 -0.2263 -1.0080  0.2409
 2341TIP3   OH228437   4.751   2.114   2.560 -0.4817 -0.9573  0.2443
 2341TIP3    H128438   4.807   2.105   2.637 -0.1463 -0.4568  0.0656
 2341TIP3    H228439   4.796   2.179   2.505 -2.0396  0.6930  0.8211
 2342TIP3   OH228440   5.774   3.711  12.159 -0.5131  0.3878  0.3936
 2342TIP3    H128441   5.779   3.727  12.254 -1.2368  1.7071  0.2413
 2342TIP3    H228442   5.804   3.793  12.120 -0.4236 -0.0750 -0.5160
 2343TIP3   OH228443   0.523   5.804   1.210  0.3999 -0.4970  0.0955
 2343TIP3    H128444   0.571   5.868   1.157  1.1417 -1.0675  0.0588
 2343TIP3    H228445   0.578   5.791   1.288 -2.0561  2.6389  2.6638
 2344TIP3   OH228446   1.329   0.416  11.763 -0.4997  0.1181  0.3539
 2344TIP3    H128447   1.299   0.506  11.749  0.4069  1.1666  4.0107
 2344TIP3    H228448   1.423   0.419  11.741 -0.6223 -0.1614 -0.2304
 2345TIP3   OH228449   5.407   6.618   3.440  0.2643  0.2410 -0.5153
 2345TIP3    H128450   5.354   6.588   3.367 -0.0925  0.7105 -0.4568
 2345TIP3    H228451   5.391   6.713   3.444 -0.3754  0.1051  0.6835
 2346TIP3   OH228452   3.645   4.862   5.209  0.6539 -0.1972  0.7025
 2346TIP3    H128453   3.621   4.927   5.142  1.7583  0.6637  1.0955
 2346TIP3    H228454   3.572   4.800   5.210  0.0257  0.4817 -0.3973
 2347TIP3   OH228455   5.818   1.124  15.166  0.1809  0.5900  0.3354
 2347TIP3    H128456   5.810   1.204  15.218 -1.1279  1.5107 -1.1858
 2347TIP3    H228457   5.759   1.138  15.092 -2.6174 -3.0321  1.5763
 2348TIP3   OH228458   3.039   6.090  15.546  0.2493 -0.1738  0.3617
 2348TIP3    H128459   2.957   6.126  15.511  0.2122 -0.5943  0.0058
 2348TIP3    H228460   3.108   6.134  15.498  0.2214 -0.0990  0.3917
 2349TIP3   OH228461   2.605   0.428  16.654 -0.6107 -0.1089  0.0307
 2349TIP3    H128462   2.565   0.514  16.649  0.2522  0.2812 -0.1891
 2349TIP3    H228463   2.531   0.367  16.645 -1.1943  0.5948 -0.0228
 2350TIP3   OH228464   0.396   5.598  13.639 -0.0423  0.1481 -0.6993
 2350TIP3    H128465   0.391   5.523  13.580 -0.4730 -0.7409  0.4298
 2350TIP3    H228466   0.467   5.577  13.699 -2.3081 -1.0151  1.7743
 2351TIP3   OH228467   1.565   3.383   2.783 -0.1889 -0.4448 -0.3822
 2351TIP3    H128468   1.575   3.291   2.806  2.6545 -0.4235 -1.1631
 2351TIP3    H228469   1.588   3.431   2.864  2.6721 -0.4607 -1.0763
 2352TIP3   OH228470   3.613   4.849   4.199  0.1440 -0.2053  0.9470
 2352TIP3    H128471   3.563   4.824   4.121  0.6933 -0.4218  0.6563
 2352TIP3    H228472   3.685   4.786   4.202  0.9777  0.7241  0.7817
 2353TIP3   OH228473   2.017   3.236   2.046 -0.1220 -0.6249 -0.2380
 2353TIP3    H128474   1.936   3.185   2.053 -0.5362 -0.0121 -0.4221
 2353TIP3    H228475   2.071   3.188   1.984 -0.6478 -0.6578 -0.6732
 2354TIP3   OH228476   6.609   1.608  16.761  0.1017 -0.3937 -0.5057
 2354TIP3    H128477   6.661   1.625  16.839 -1.0152 -2.6631  0.8314
 2354TIP3    H228478   6.518   1.622  16.789 -0.2417  0.8246 -2.0375
 2355TIP3   OH228479   0.963   0.854  16.573 -0.8513 -0.4655  0.2576
 2355TIP3    H128480   1.057   0.870  16.589 -1.2025  1.2596  0.8199
 2355TIP3    H228481   0.960   0.819  16.484  0.4572 -2.2502  0.8493
 2356TIP3   OH228482   0.791   0.158   4.339  0.1219 -0.5060  0.8823
 2356TIP3    H128483   0.724   0.223   4.357 -0.2663 -0.5234 -0.3528
 2356TIP3    H228484   0.755   0.076   4.372 -0.8946 -0.6775 -0.5658
 2357TIP3   OH228485   4.280   3.986   4.354  0.1516  0.2038 -0.0322
 2357TIP3    H128486   4.268   3.896   4.325  1.0443 -0.0686  0.4171
 2357TIP3    H228487   4.289   4.037   4.273  0.1611 -0.1799 -0.2709
 2358TIP3   OH228488   1.313   0.755  12.815  0.2642  0.4369  0.6403
 2358TIP3    H128489   1.319   0.799  12.730 -1.8125 -0.9598 -0.3188
 2358TIP3    H228490   1.399   0.716  12.828  0.6715  0.8079 -0.7776
 2359TIP3   OH228491   4.777   1.669  16.842 -0.4463 -0.1586  0.0787
 2359TIP3    H128492   4.692   1.713  16.841  0.2029  1.1738 -1.2295
 2359TIP3    H228493   4.781   1.625  16.757 -0.2762 -1.1207  0.5843
 2360TIP3   OH228494   4.484   4.128   0.037  0.4729  0.4813 -0.0009
 2360TIP3    H128495   4.549   4.153   0.103 -0.6734  3.2610  0.2299
 2360TIP3    H228496   4.467   4.209  -0.012 -1.3178 -0.6431 -1.3720
 2361TIP3   OH228497   1.595   4.020   1.136  0.4738  0.2701 -0.9502
 2361TIP3    H128498   1.545   4.046   1.213  1.3668 -2.0001  0.4940
 2361TIP3    H228499   1.682   4.058   1.151  0.7809 -0.5513 -0.5530
 2362TIP3   OH228500   4.014   0.584  16.061  0.3175 -0.1249 -0.5632
 2362TIP3    H128501   4.095   0.631  16.080  0.0714 -0.1872  0.7289
 2362TIP3    H228502   3.947   0.633  16.108  0.2313 -2.4586  1.9648
 2363TIP3   OH228503   3.928   5.079   3.379  0.3628  0.3884 -0.3050
 2363TIP3    H128504   3.992   5.038   3.321  0.4801 -0.8620  0.6850
 2363TIP3    H228505   3.967   5.075   3.466 -0.7529  0.2406  0.2059
 2364TIP3   OH228506   1.069   4.601  14.916 -0.5497 -0.0812  0.0552
 2364TIP3    H128507   1.058   4.560  14.830 -0.6834  1.1875 -0.5527
 2364TIP3    H228508   1.129   4.674  14.900 -1.1965  0.6493  0.8836
 2365TIP3   OH228509   1.171   1.331   2.159  0.1493  0.7707 -0.1366
 2365TIP3    H128510   1.260   1.303   2.179  0.5272  0.3763 -2.1272
 2365TIP3    H228511   1.133   1.259   2.109 -1.2506  1.0059  0.5207
 2366TIP3   OH228512   3.773   3.054  16.269 -0.0993 -0.1182  0.2452
 2366TIP3    H128513   3.835   3.122  16.243  0.1010 -0.3225  0.1821
 2366TIP3    H228514   3.795   3.036  16.361 -0.5526  0.3302  0.4478
 2367TIP3   OH228515   4.225   1.941  12.128 -0.1142 -0.4389 -0.2543
 2367TIP3    H128516   4.242   1.857  12.086 -0.8473 -0.2460 -0.9786
 2367TIP3    H228517   4.131   1.955  12.115 -0.1071  0.2194  0.3660
 2368TIP3   OH228518   0.586   0.869   0.327  0.0440 -0.3005  0.3574
 2368TIP3    H128519   0.669   0.916   0.323 -0.9272  1.4276 -0.2763
 2368TIP3    H228520   0.584   0.832   0.415  1.2805  0.0017  0.5315
 2369TIP3   OH228521   0.958   2.664   3.717 -0.1524  0.1007 -0.2027
 2369TIP3    H128522   0.868   2.675   3.749  0.6550  0.9403  1.9960
 2369TIP3    H228523   0.950   2.666   3.622 -2.5163 -0.4007 -0.0775
 2370TIP3   OH228524   4.695   0.135  15.514 -0.7376  0.0425 -0.3010
 2370TIP3    H128525   4.785   0.165  15.505 -0.7264 -0.3928 -2.1172
 2370TIP3    H228526   4.672   0.152  15.606  1.2975 -0.1710  0.2933
 2371TIP3   OH228527   0.405   6.126  14.786  0.2280  0.3001  0.1073
 2371TIP3    H128528   0.487   6.149  14.740 -0.1949 -0.3403 -1.0168
 2371TIP3    H228529   0.432   6.111  14.877  1.2265  0.8936 -0.0732
 2372TIP3   OH228530   3.794   4.347  12.039 -0.1845  0.0680  0.2025
 2372TIP3    H128531   3.757   4.272  11.991 -1.2820 -0.0400  1.1625
 2372TIP3    H228532   3.868   4.310  12.087  0.6796  0.0965 -1.0539
 2373TIP3   OH228533   3.766   6.163  15.412  0.0682  0.0556 -0.1283
 2373TIP3    H128534   3.710   6.200  15.481 -1.9469 -0.2042 -1.5071
 2373TIP3    H228535   3.854   6.162  15.450 -0.7385  1.0669  1.9582
 2374TIP3   OH228536   2.750   5.742   5.493  0.2973 -0.1277  0.1739
 2374TIP3    H128537   2.757   5.782   5.580  0.2325  0.2289  0.0178
 2374TIP3    H228538   2.659   5.756   5.468  0.7128  1.3308 -0.6811
 2375TIP3   OH228539   1.765   6.179  15.556 -0.1962  0.3596  0.0841
 2375TIP3    H128540   1.789   6.168  15.648 -1.3802  0.6123  0.4404
 2375TIP3    H228541   1.774   6.091  15.519  0.4499  0.2866  0.3833
 2376TIP3   OH228542   0.771   4.963  15.164 -0.4205 -0.0508 -0.0626
 2376TIP3    H128543   0.695   4.944  15.218 -0.1065 -0.8774  0.1072
 2376TIP3    H228544   0.812   4.878  15.149  0.3004  0.3435 -0.4059
 2377TIP3   OH228545   5.471   4.696   2.931  0.6935  0.0037 -0.0627
 2377TIP3    H128546   5.458   4.602   2.921  2.4296 -0.3011  0.2630
 2377TIP3    H228547   5.491   4.708   3.023 -1.8486  1.0547  0.4512
 2378TIP3   OH228548   2.302   0.763   5.093 -0.0896  0.2596 -0.2138
 2378TIP3    H128549   2.272   0.717   5.171  3.0038 -0.7177  0.5188
 2378TIP3    H228550   2.347   0.841   5.127  1.0571 -0.0319 -1.0199
 2379TIP3   OH228551   0.418   3.992  13.449  0.1727  0.2878 -0.7657
 2379TIP3    H128552   0.375   3.907  13.452  0.2296  0.2176 -1.6238
 2379TIP3    H228553   0.459   4.002  13.535 -1.7322  0.4597  0.1824
 2380TIP3   OH228554   5.656   6.084   6.131 -0.4044 -0.5337  0.1238
 2380TIP3    H128555   5.617   6.060   6.215 -0.0957 -0.1104  0.3952
 2380TIP3    H228556   5.745   6.111   6.154 -1.2561  2.6534  0.1203
 2381TIP3   OH228557   6.276   0.586   1.389  0.0495  0.0833 -0.3563
 2381TIP3    H128558   6.186   0.603   1.360 -0.1684 -1.4367 -0.6267
 2381TIP3    H228559   6.266   0.540   1.472  0.6142  1.0824  0.2757
 2382TIP3   OH228560   6.775   3.794   5.585 -0.6102  0.0045 -0.1099
 2382TIP3    H128561   6.829   3.716   5.574 -1.9749 -0.9790 -0.0884
 2382TIP3    H228562   6.784   3.842   5.503  1.6882  0.8208  0.5343
 2383TIP3   OH228563   1.710   6.007   5.842  0.2849  0.6281 -0.0458
 2383TIP3    H128564   1.635   6.056   5.875 -0.9518  0.1157 -1.9553
 2383TIP3    H228565   1.672   5.927   5.805  1.9148 -0.2203  0.0182
 2384TIP3   OH228566   0.790   4.177   2.837 -0.3311 -0.7573  0.8219
 2384TIP3    H128567   0.753   4.249   2.786 -1.1904 -0.3503  1.9585
 2384TIP3    H228568   0.857   4.218   2.892  0.4223 -1.1494  0.2176
 2385TIP3   OH228569   3.849   3.429   4.132  0.6087 -0.4075 -0.4850
 2385TIP3    H128570   3.899   3.415   4.213  0.5327 -0.0770 -0.3812
 2385TIP3    H228571   3.903   3.489   4.081 -1.3425  3.0455  1.1980
 2386TIP3   OH228572   5.399   1.655  16.984  0.2499  0.5034  0.1713
 2386TIP3    H128573   5.312   1.687  17.007  0.8242  0.9292  1.9190
 2386TIP3    H228574   5.392   1.560  16.988 -0.3490  0.5040 -0.6146
 2387TIP3   OH228575   3.076   3.402   5.029  0.7189 -0.3311  0.4264
 2387TIP3    H128576   3.142   3.367   5.089  0.4175 -0.9797  0.3881
 2387TIP3    H228577   3.119   3.403   4.944  0.1514 -2.3606  0.0786
 2388TIP3   OH228578   5.967   0.752   6.577  0.3684 -0.2720  0.5230
 2388TIP3    H128579   6.056   0.722   6.598 -0.6270 -1.7056  3.2821
 2388TIP3    H228580   5.916   0.671   6.572 -0.9128  0.5694 -0.3248
 2389TIP3   OH228581   4.483   1.019  14.869 -0.4680  0.0604  0.4222
 2389TIP3    H128582   4.420   0.964  14.823 -1.5353  2.3066 -0.9480
 2389TIP3    H228583   4.544   0.957  14.909 -1.2467 -2.0979 -1.5062
 2390TIP3   OH228584   3.944   2.760   5.272 -0.1196  0.1577  0.4885
 2390TIP3    H128585   3.962   2.668   5.288 -3.2243 -0.7946 -0.6966
 2390TIP3    H228586   3.991   2.807   5.341  1.2148 -2.3105  1.3595
 2391TIP3   OH228587   0.615   5.504   2.181  0.0355  0.7744 -0.0710
 2391TIP3    H128588   0.679   5.473   2.246  0.3798  1.2827 -0.1640
 2391TIP3    H228589   0.594   5.426   2.129 -2.2807 -0.3234  2.2936
 2392TIP3   OH228590   4.291   5.967  16.748  0.1414  0.1113  0.0200
 2392TIP3    H128591   4.258   5.895  16.695  0.1377 -0.7637  1.1661
 2392TIP3    H228592   4.386   5.950  16.754  0.4477  1.2560 -1.2463
 2393TIP3   OH228593   3.544   0.144   0.981 -0.4656  0.1997 -0.1477
 2393TIP3    H128594   3.612   0.083   0.952  0.1833  1.3904 -1.2505
 2393TIP3    H228595   3.589   0.205   1.040 -1.2409 -0.7023  1.4428
 2394TIP3   OH228596   1.776   5.577   3.360  0.2130 -0.5576 -0.5471
 2394TIP3    H128597   1.846   5.641   3.351  0.5375 -0.9196 -0.6079
 2394TIP3    H228598   1.728   5.582   3.277 -0.0584 -0.0521 -0.3643
 2395TIP3   OH228599   3.645   4.157  14.903  0.0680 -0.1825  0.5150
 2395TIP3    H128600   3.663   4.213  14.828  1.2772 -0.0759  0.8669
 2395TIP3    H228601   3.594   4.212  14.963 -1.2593 -0.3993 -0.3845
 2396TIP3   OH228602   0.594   3.014  11.483  0.4540 -0.0939 -0.7136
 2396TIP3    H128603   0.533   3.057  11.423  1.0771 -0.3439 -1.5552
 2396TIP3    H228604   0.538   2.967  11.545 -0.3363  3.2787  1.3614
 2397TIP3   OH228605   4.837   1.487   3.417 -0.0705 -0.2867 -0.2469
 2397TIP3    H128606   4.798   1.559   3.466 -0.9631  0.9678 -2.6585
 2397TIP3    H228607   4.889   1.440   3.482  0.7047  2.6134  1.4299
 2398TIP3   OH228608   6.615   6.180   5.950 -0.4008  0.4625 -0.6297
 2398TIP3    H128609   6.584   6.134   6.028 -2.2560  1.7874 -0.4975
 2398TIP3    H228610   6.535   6.194   5.898  0.1907  2.7491 -1.0383
 2399TIP3   OH228611   3.313   0.442   2.375  0.5383  0.4917  0.6257
 2399TIP3    H128612   3.353   0.355   2.376 -0.2667 -0.0410 -2.7401
 2399TIP3    H228613   3.240   0.436   2.436  1.6212 -0.5603  1.8676
 2400TIP3   OH228614   0.508   0.867  11.550  0.2755 -0.4455  0.2308
 2400TIP3    H128615   0.521   0.788  11.602  1.1184 -0.1413  0.5013
 2400TIP3    H228616   0.593   0.910  11.550 -0.6653  1.6162  1.9827
 2401TIP3   OH228617   5.713   2.548   2.563 -0.0124  0.1564 -0.2036
 2401TIP3    H128618   5.787   2.606   2.582 -0.2119  0.6810 -0.9660
 2401TIP3    H228619   5.728   2.519   2.473 -1.4671  1.4081 -0.8895
 2402TIP3   OH228620   4.375   5.946  11.561  0.1305 -0.1294 -0.0330
 2402TIP3    H128621   4.311   5.969  11.629 -2.3542  0.0472 -2.2676
 2402TIP3    H228622   4.395   6.030  11.519 -1.7684 -0.6774 -2.2290
 2403TIP3   OH228623   2.776   5.719   0.317  0.1486 -0.1978  0.3783
 2403TIP3    H128624   2.836   5.743   0.388  0.7660  1.0928 -0.5428
 2403TIP3    H228625   2.804   5.631   0.291  0.1269 -0.5518  1.4980
 2404TIP3   OH228626   2.755   0.486  14.850  0.1669  0.0278  0.0397
 2404TIP3    H128627   2.832   0.471  14.905  0.7140 -1.2995 -1.0358
 2404TIP3    H228628   2.790   0.513  14.766 -0.5290 -0.5352 -0.4500
 2405TIP3   OH228629   1.971   2.888  13.327 -0.2829  0.2408 -0.3688
 2405TIP3    H128630   2.022   2.967  13.311  2.0696 -0.3426  2.9573
 2405TIP3    H228631   1.901   2.916  13.386  0.2359  0.0133  0.3816
 2406TIP3   OH228632   5.361   4.961  13.815  0.2533 -0.2422  0.0460
 2406TIP3    H128633   5.303   4.996  13.748 -0.3828  1.6172  1.4841
 2406TIP3    H228634   5.410   4.892  13.771  1.1693  2.0844 -2.8144
 2407TIP3   OH228635   1.287   2.645   5.770  0.0959  0.3266  0.7329
 2407TIP3    H128636   1.193   2.629   5.777 -0.0822 -0.2426 -1.7990
 2407TIP3    H228637   1.294   2.722   5.714  1.0836 -0.8690 -0.8879
 2408TIP3   OH228638   5.997   3.586  11.511 -0.0687  0.3287 -0.0515
 2408TIP3    H128639   5.977   3.493  11.506  0.6040  0.0918  1.2083
 2408TIP3    H228640   6.080   3.595  11.463 -0.3975  0.3710 -0.6138
 2409TIP3   OH228641   2.368   3.234   5.302  0.0604  0.3715 -0.2459
 2409TIP3    H128642   2.437   3.167   5.307 -1.4672 -1.3926 -1.4548
 2409TIP3    H228643   2.355   3.247   5.208 -0.3356  1.6915 -0.0216
 2410TIP3   OH228644   0.762   0.290   0.557 -0.1425  0.4881 -0.0979
 2410TIP3    H128645   0.836   0.285   0.618  0.1604  0.9802 -0.4094
 2410TIP3    H228646   0.697   0.344   0.602 -0.1800  0.3142  0.0532
 2411TIP3   OH228647   0.055   4.597  16.017  0.1779  0.2310 -0.5450
 2411TIP3    H128648  -0.011   4.658  16.051  0.9360  0.6350  0.2354
 2411TIP3    H228649   0.090   4.641  15.939 -0.2020  0.1914 -0.7400
 2412TIP3   OH228650   4.325   1.175  12.019  0.1498 -0.6890 -0.7287
 2412TIP3    H128651   4.314   1.155  11.926 -0.6212  0.2265 -0.8415
 2412TIP3    H228652   4.379   1.253  12.021 -1.4466  0.4612 -0.5059
 2413TIP3   OH228653   4.351   5.611   2.084 -0.0342  0.0390  0.4406
 2413TIP3    H128654   4.348   5.541   2.019  1.6305 -1.7495  2.1382
 2413TIP3    H228655   4.443   5.612   2.114 -0.0814  2.7444  0.7326
 2414TIP3   OH228656   5.243   5.560  14.207  0.0359  0.2382 -0.4633
 2414TIP3    H128657   5.165   5.529  14.162  0.8799  0.8574 -2.4468
 2414TIP3    H228658   5.316   5.519  14.161  0.9294  0.5063  0.6689
 2415TIP3   OH228659   1.730   2.332  17.027 -0.2930  0.2077  0.8278
 2415TIP3    H128660   1.708   2.243  16.998 -2.4426  0.7312  0.6185
 2415TIP3    H228661   1.816   2.349  16.990 -0.6059 -1.1499 -0.6542
 2416TIP3   OH228662   0.413   2.383  15.350  0.1807 -0.1832 -0.1990
 2416TIP3    H128663   0.434   2.391  15.443  0.5091 -0.2491 -0.2669
 2416TIP3    H228664   0.489   2.338  15.312  0.0502 -0.1507 -0.5000
 2417TIP3   OH228665   4.790   5.544  13.268  0.5926 -0.2024 -0.2728
 2417TIP3    H128666   4.741   5.532  13.349  0.8662 -1.9984 -0.3335
 2417TIP3    H228667   4.881   5.552  13.297  0.4050  2.4229 -0.2108
 2418TIP3   OH228668   5.613   4.913  12.810  0.2950 -0.0007  0.4541
 2418TIP3    H128669   5.606   4.997  12.855 -0.5179  0.1490  0.0585
 2418TIP3    H228670   5.553   4.855  12.857 -1.7269  0.5545 -1.3041
 2419TIP3   OH228671   2.915   0.589   5.253  0.6209  0.7383  0.1702
 2419TIP3    H128672   2.883   0.638   5.177 -2.1850  0.4444  1.0200
 2419TIP3    H228673   2.979   0.647   5.294  0.0379  2.1484 -0.8199
 2420TIP3   OH228674   4.860   6.527  12.440  0.1079  0.0978  0.1139
 2420TIP3    H128675   4.772   6.546  12.471 -0.1718  1.2094 -1.2296
 2420TIP3    H228676   4.850   6.511  12.346  1.4492  1.4125 -0.3031
 2421TIP3   OH228677   1.345   3.797  11.859  0.2477 -0.5517 -0.1648
 2421TIP3    H128678   1.346   3.859  11.786 -1.2183 -0.0434  0.2009
 2421TIP3    H228679   1.393   3.721  11.826  0.5703  0.0963 -1.2612
 2422TIP3   OH228680   4.630   0.288   0.170  0.1200  0.2928 -0.4433
 2422TIP3    H128681   4.663   0.199   0.162  1.0795  0.7284 -1.6777
 2422TIP3    H228682   4.593   0.292   0.258 -2.6471 -2.1974 -1.2814
 2423TIP3   OH228683   0.979   2.428   5.181 -0.2010  0.4127  0.0092
 2423TIP3    H128684   1.019   2.508   5.145  1.3951  0.3891  1.5738
 2423TIP3    H228685   1.054   2.371   5.201 -1.1251 -0.3597  1.4351
 2424TIP3   OH228686   2.794   5.887  16.867 -0.5413 -0.0080  0.1703
 2424TIP3    H128687   2.715   5.901  16.815  0.2429  1.3404 -0.7164
 2424TIP3    H228688   2.846   5.826  16.816 -0.1257  0.6935 -0.2615
 2425TIP3   OH228689   4.598   2.941  11.094  0.2376 -0.4218  0.4471
 2425TIP3    H128690   4.610   2.847  11.088 -0.2970 -0.4316 -0.7473
 2425TIP3    H228691   4.685   2.978  11.076  0.2568 -0.6670  0.0380
 2426TIP3   OH228692   3.763   6.344  10.774 -0.0113 -0.0096 -0.2490
 2426TIP3    H128693   3.844   6.393  10.781  1.2178 -1.8016 -1.1261
 2426TIP3    H228694   3.694   6.410  10.779  1.5528  1.9374 -2.4544
 2427TIP3   OH228695   5.620   1.580  10.836 -0.3244 -0.1257 -0.2492
 2427TIP3    H128696   5.569   1.582  10.755  2.4994  0.8255 -2.1576
 2427TIP3    H228697   5.690   1.518  10.819  0.5627  0.3833  1.3428
 2428TIP3   OH228698   3.944   0.061  13.175  0.5185 -0.0387 -0.1764
 2428TIP3    H128699   3.982   0.101  13.097  3.9145 -0.3625  1.1115
 2428TIP3    H228700   3.910  -0.023  13.145  0.9244  0.2375 -1.4739
 2429TIP3   OH228701   3.253   2.064  15.065  0.5837  0.1336  0.0327
 2429TIP3    H128702   3.222   2.117  14.991 -0.7729  1.2456  1.3143
 2429TIP3    H228703   3.178   2.060  15.123  0.7833 -2.9356  0.2017
 2430TIP3   OH228704   4.776   1.163   0.936  0.1547  0.0713 -0.2598
 2430TIP3    H128705   4.717   1.220   0.886  0.0762  0.2147 -0.0035
 2430TIP3    H228706   4.861   1.208   0.932  0.3261 -0.2900 -0.8922
 2431TIP3   OH228707   5.538   3.861  11.307  0.2021  0.0213  0.3146
 2431TIP3    H128708   5.470   3.859  11.240  0.2978 -0.8984  0.2387
 2431TIP3    H228709   5.578   3.775  11.304  1.3144  0.5232  0.4304
 2432TIP3   OH228710   4.144   1.807  14.560 -0.1894 -0.3929  0.5155
 2432TIP3    H128711   4.174   1.875  14.500  0.2940 -0.6129  0.5023
 2432TIP3    H228712   4.058   1.781  14.526 -1.1598  1.3762  1.4916
 2433TIP3   OH228713   3.679   2.371  16.114  0.3375 -0.2293 -0.3732
 2433TIP3    H128714   3.683   2.423  16.194 -1.0223  0.4970 -0.7633
 2433TIP3    H228715   3.591   2.384  16.081  0.9374 -0.3596 -2.1034
 2434TIP3   OH228716   2.210   3.181   3.210 -0.5220  0.2106 -0.2426
 2434TIP3    H128717   2.280   3.120   3.189 -1.5351 -0.9768 -0.3129
 2434TIP3    H228718   2.207   3.182   3.306 -0.3053  0.3810 -0.2386
 2435TIP3   OH228719   1.273   5.409  17.156  0.4224 -0.3187 -0.2575
 2435TIP3    H128720   1.329   5.390  17.081  0.0684 -1.9674 -0.1619
 2435TIP3    H228721   1.197   5.353  17.144  0.3139 -0.5633  1.2695
 2436TIP3   OH228722   5.880   0.645   4.454 -0.0781  0.2129 -0.4154
 2436TIP3    H128723   5.802   0.670   4.504 -0.6852 -1.6765 -0.3499
 2436TIP3    H228724   5.848   0.578   4.393  1.2603  0.3239 -1.2659
 2437TIP3   OH228725   1.430   6.586   4.161  0.5716  0.0312 -0.0644
 2437TIP3    H128726   1.461   6.663   4.208 -0.9655 -1.0634  3.0971
 2437TIP3    H228727   1.419   6.615   4.071  1.2457  3.1163  0.7323
 2438TIP3   OH228728   4.039   4.513  11.492  0.4951  0.0520  0.4294
 2438TIP3    H128729   4.049   4.419  11.503 -0.9926 -0.1297  0.4465
 2438TIP3    H228730   3.959   4.535  11.539 -0.3250  0.9697 -1.2609
 2439TIP3   OH228731   5.665   1.704  15.469  0.0411  0.4286  0.1219
 2439TIP3    H128732   5.720   1.630  15.495 -1.3069 -0.5952  0.1767
 2439TIP3    H228733   5.622   1.732  15.550 -1.2913 -0.3156 -0.3017
 2440TIP3   OH228734   6.109   3.820   4.284  0.1652 -0.1345  0.2524
 2440TIP3    H128735   6.055   3.899   4.295  1.2117  0.5832  0.3836
 2440TIP3    H228736   6.071   3.776   4.208  0.9994  1.7418 -1.3226
 2441TIP3   OH228737   3.788   5.652  12.790 -0.7203  0.7283  0.2813
 2441TIP3    H128738   3.784   5.658  12.885 -1.5141  1.1466  0.2290
 2441TIP3    H228739   3.834   5.570  12.773 -0.4617  0.7146  1.0243
 2442TIP3   OH228740   3.272   5.460   0.454 -0.4531 -0.6584 -0.0639
 2442TIP3    H128741   3.240   5.386   0.506  1.9456 -1.1935  0.7989
 2442TIP3    H228742   3.262   5.536   0.511 -0.8938 -0.6895 -0.0994
 2443TIP3   OH228743   0.075   0.757   0.735  0.6072 -0.0238 -0.3005
 2443TIP3    H128744  -0.002   0.800   0.698  1.1815  0.4008 -1.0266
 2443TIP3    H228745   0.062   0.664   0.717 -1.0184 -0.3245  1.9446
 2444TIP3   OH228746   4.822   5.258  14.835  0.1500 -0.4288  0.6466
 2444TIP3    H128747   4.820   5.164  14.849  0.2995 -0.2640  1.9314
 2444TIP3    H228748   4.743   5.290  14.879 -0.1570 -0.0068 -0.2044
 2445TIP3   OH228749   5.643   4.451   0.362  0.2373  0.6240 -0.1478
 2445TIP3    H128750   5.736   4.465   0.345  0.0083  1.1525 -1.0210
 2445TIP3    H228751   5.603   4.537   0.351 -0.1609  0.7238  1.7086
 2446TIP3   OH228752   4.226   0.048  13.357  0.0441  0.3250 -0.3592
 2446TIP3    H128753   4.203   0.139  13.380 -1.7938  0.1861 -1.4065
 2446TIP3    H228754   4.146   0.013  13.318  0.6692 -1.8268  0.1807
 2447TIP3   OH228755   5.209   0.559  15.879  0.2155  0.1685 -0.7177
 2447TIP3    H128756   5.228   0.477  15.834 -0.9198  0.0468 -0.9992
 2447TIP3    H228757   5.115   0.557  15.894 -0.0335  1.9327 -1.7671
 2448TIP3   OH228758   1.579   3.364   4.250  0.2355 -0.5996 -0.5971
 2448TIP3    H128759   1.588   3.406   4.164 -1.6617  1.0183 -0.0782
 2448TIP3    H228760   1.529   3.285   4.233  0.1222 -0.4403 -1.0262
 2449TIP3   OH228761   4.323   2.173  14.553 -0.1850  0.2513 -0.2327
 2449TIP3    H128762   4.293   2.232  14.622 -1.2293  0.7614 -1.0838
 2449TIP3    H228763   4.262   2.099  14.556 -0.1611  0.2168 -0.5202
 2450TIP3   OH228764   5.129   3.143   0.610 -0.3505 -0.4118  0.1140
 2450TIP3    H128765   5.041   3.105   0.608 -0.2242 -0.6883 -1.0044
 2450TIP3    H228766   5.174   3.102   0.536  0.1308  1.1327 -0.4820
 2451TIP3   OH228767   6.140   5.601   4.467  0.2923 -0.0136 -0.0588
 2451TIP3    H128768   6.195   5.523   4.460 -0.0194 -0.0792 -3.6276
 2451TIP3    H228769   6.199   5.673   4.444 -0.2017  0.3630 -0.1615
 2452TIP3   OH228770   5.861   3.660  11.733  0.1373  0.1958 -0.1268
 2452TIP3    H128771   5.838   3.572  11.763  3.6098 -0.2528  1.8006
 2452TIP3    H228772   5.892   3.648  11.644 -1.2255 -0.1571 -0.5708
 2453TIP3   OH228773   6.064   5.757   5.633 -0.4064 -0.0084  0.4353
 2453TIP3    H128774   6.110   5.823   5.687  0.7071 -0.3962 -0.0033
 2453TIP3    H228775   6.075   5.675   5.682 -0.2894 -0.1714  0.1382
 2454TIP3   OH228776   4.016   0.918  11.853  0.3678 -0.3610  0.3550
 2454TIP3    H128777   3.929   0.958  11.849 -0.1930 -1.4140  1.5335
 2454TIP3    H228778   4.046   0.934  11.942  0.5931 -1.5964  0.5165
 2455TIP3   OH228779   4.200   6.070   2.354 -0.4160 -0.5690 -0.6864
 2455TIP3    H128780   4.169   6.128   2.284 -0.3214  0.7921  0.3611
 2455TIP3    H228781   4.199   5.983   2.314  0.8387  0.2925 -2.7923
 2456TIP3   OH228782   1.573   1.874  16.732  0.1050  0.0793 -0.4019
 2456TIP3    H128783   1.540   1.816  16.664  1.3149 -0.6898 -0.3717
 2456TIP3    H228784   1.557   1.962  16.698  2.4503 -0.2381 -2.6666
 2457TIP3   OH228785   2.570   5.608  16.831 -0.5373  0.5702  0.0776
 2457TIP3    H128786   2.500   5.673  16.823  0.5357  1.7685  0.1267
 2457TIP3    H228787   2.572   5.586  16.924 -0.3991  1.0335  0.1833
 2458TIP3   OH228788   5.638   4.402  13.318  0.0397 -0.0002 -0.0484
 2458TIP3    H128789   5.654   4.354  13.238  1.0509  1.1655 -0.5767
 2458TIP3    H228790   5.703   4.472  13.318 -0.3614  0.4204  1.4659
 2459TIP3   OH228791   5.603   3.618  13.197 -0.2465 -0.2887  0.3474
 2459TIP3    H128792   5.538   3.670  13.244 -0.9354  0.4046 -1.2821
 2459TIP3    H228793   5.559   3.535  13.180  0.3932 -0.9599  1.8258
 2460TIP3   OH228794   2.134   3.512   1.775 -0.1122 -0.5066 -0.4136
 2460TIP3    H128795   2.082   3.512   1.856 -0.1662  1.8067 -0.3701
 2460TIP3    H228796   2.072   3.538   1.707  0.3402 -0.6382 -0.8796
 2461TIP3   OH228797   1.278   5.302   5.035  0.4407 -0.1158  0.3457
 2461TIP3    H128798   1.217   5.342   5.097 -0.2061  0.1207 -0.4209
 2461TIP3    H228799   1.227   5.292   4.954  0.8103 -1.8189  0.2865
 2462TIP3   OH228800   1.038   4.524   1.308  0.3177  0.7232  0.7461
 2462TIP3    H128801   1.095   4.599   1.326  0.8018  0.1320  1.7704
 2462TIP3    H228802   1.089   4.470   1.248 -0.5778  1.8379 -1.0846
 2463TIP3   OH228803   2.625   4.531  15.557 -0.2032  0.6788  0.3892
 2463TIP3    H128804   2.597   4.547  15.467  0.6746  0.1485  0.0150
 2463TIP3    H228805   2.544   4.507  15.602 -1.0573  3.1315  0.3051
 2464TIP3   OH228806   4.899   3.862   0.407  0.3958  0.6946 -0.0631
 2464TIP3    H128807   4.851   3.781   0.389 -1.8300  2.1781 -1.2839
 2464TIP3    H228808   4.982   3.851   0.361  0.0474 -0.8023 -0.3855
 2465TIP3   OH228809   4.497   2.059  16.947  0.7634  0.2897  0.5557
 2465TIP3    H128810   4.549   2.120  16.999  0.7399 -0.1203  1.0645
 2465TIP3    H228811   4.412   2.055  16.991  0.1308  1.2614 -0.4888
 2466TIP3   OH228812   4.438   5.133   1.593  0.1348 -0.5423  0.3698
 2466TIP3    H128813   4.496   5.117   1.519  0.9831 -2.0759  1.3161
 2466TIP3    H228814   4.402   5.220   1.577  0.4049 -0.7676 -1.7489
 2467TIP3   OH228815   0.815   2.870   1.853 -0.1325  0.2505 -0.2603
 2467TIP3    H128816   0.802   2.856   1.759 -0.0699 -0.1880 -0.2073
 2467TIP3    H228817   0.907   2.848   1.867 -0.1277  0.3698 -0.1057
 2468TIP3   OH228818   5.377   1.591  12.714  0.3950  0.3193  0.4403
 2468TIP3    H128819   5.425   1.648  12.775 -1.1315  2.3015 -0.1242
 2468TIP3    H228820   5.336   1.651  12.652  1.3622 -1.5791 -2.2256
 2469TIP3   OH228821   4.088   1.318   1.211  0.0742 -0.4018  0.5222
 2469TIP3    H128822   4.064   1.225   1.216  0.3158 -0.6751 -1.8874
 2469TIP3    H228823   4.131   1.326   1.126 -1.4370  2.2430 -0.1082
 2470TIP3   OH228824   6.759   6.194  12.857  0.4412 -0.1596  0.3064
 2470TIP3    H128825   6.735   6.103  12.877  1.2220 -0.2173  1.0477
 2470TIP3    H228826   6.837   6.187  12.802 -0.5783  0.0468 -1.2297
 2471TIP3   OH228827   3.186   4.608   5.574  0.0167 -0.1715  0.2619
 2471TIP3    H128828   3.145   4.556   5.643  1.3570 -0.6561  0.7198
 2471TIP3    H228829   3.142   4.580   5.494 -0.3430 -0.8756  0.6998
 2472TIP3   OH228830   2.280   0.929  16.523 -0.1537 -0.4541 -0.2250
 2472TIP3    H128831   2.326   0.882  16.453  1.0516  0.6892 -0.2351
 2472TIP3    H228832   2.308   0.885  16.604  1.4869  0.5755 -0.1779
 2473TIP3   OH228833   6.610   0.346   1.857  0.1963 -0.0004  0.2659
 2473TIP3    H128834   6.637   0.286   1.787 -1.1813 -1.1937  0.7197
 2473TIP3    H228835   6.688   0.399   1.874  1.0738 -0.8241 -1.0056
 2474TIP3   OH228836   4.081   5.735   0.947 -0.7082  0.0026  0.1094
 2474TIP3    H128837   4.100   5.730   0.854 -0.5323 -0.0430  0.1466
 2474TIP3    H228838   4.030   5.656   0.966 -0.4205 -0.1835  0.1247
 2475TIP3   OH228839   4.712   5.816   2.460 -0.0578  0.0974  0.0267
 2475TIP3    H128840   4.772   5.741   2.457  4.7791  3.4925 -0.1479
 2475TIP3    H228841   4.701   5.834   2.553  0.7687  0.4728  0.0648
 2476TIP3   OH228842   4.239   4.281   5.648 -0.3394 -0.0560  1.1111
 2476TIP3    H128843   4.310   4.234   5.603 -1.4668  0.3761 -1.2617
 2476TIP3    H228844   4.196   4.331   5.579 -3.4973 -0.9380  2.2940
 2477TIP3   OH228845   3.553   5.332  16.797  0.4596  0.0706 -0.6589
 2477TIP3    H128846   3.564   5.406  16.857 -1.2713  0.2772 -0.5566
 2477TIP3    H228847   3.469   5.348  16.754  0.8882 -0.9281 -1.9568
 2478TIP3   OH228848   3.751   5.926  13.627 -0.2058  0.5388 -0.3293
 2478TIP3    H128849   3.691   5.983  13.676 -1.6873  0.9996 -2.5287
 2478TIP3    H228850   3.712   5.839  13.635  1.7589 -0.1932  2.5681
 2479TIP3   OH228851   3.575   4.346  16.560 -0.3146  0.4943  0.6848
 2479TIP3    H128852   3.525   4.376  16.635  0.3637  1.0781  0.9127
 2479TIP3    H228853   3.608   4.259  16.585 -1.2937  0.0539  0.4848
 2480TIP3   OH228854   4.172   2.594  11.023 -0.3502  0.0873 -0.0233
 2480TIP3    H128855   4.209   2.674  11.060 -1.2460  0.7449 -0.5254
 2480TIP3    H228856   4.244   2.554  10.975  0.1340  0.5242  0.3311
 2481TIP3   OH228857   1.396   6.513   3.343 -0.3500  0.2194  0.2366
 2481TIP3    H128858   1.379   6.588   3.401 -1.0217  2.0241 -2.1258
 2481TIP3    H228859   1.309   6.479   3.322 -0.1548  0.0219 -0.2556
 2482TIP3   OH228860   4.785   4.234   2.872 -1.3247  0.1625 -0.3036
 2482TIP3    H128861   4.792   4.278   2.788  0.2642 -0.0791 -0.3233
 2482TIP3    H228862   4.864   4.260   2.920 -1.9069 -0.1756  0.8834
 2483TIP3   OH228863   5.448   1.322   0.806 -0.3755  0.4055 -0.2447
 2483TIP3    H128864   5.411   1.328   0.718  1.6034  0.4148 -1.1238
 2483TIP3    H228865   5.420   1.236   0.838  0.2473 -0.3036 -1.5552
 2484TIP3   OH228866   2.031   0.655  14.588 -0.2055 -0.2833 -0.1477
 2484TIP3    H128867   2.107   0.658  14.645  0.1194 -0.3134 -0.5781
 2484TIP3    H228868   2.056   0.597  14.517 -1.0333 -1.1900  0.2768
 2485TIP3   OH228869   6.543   3.931   5.648  0.0698 -0.2299  0.6600
 2485TIP3    H128870   6.610   3.888   5.595  0.6004  2.2126 -0.8443
 2485TIP3    H228871   6.591   3.973   5.719  0.5850  3.0165 -1.3950
 2486TIP3   OH228872   6.767   2.162  15.453  0.4063 -0.2383 -0.6737
 2486TIP3    H128873   6.782   2.250  15.420  0.4992 -0.9785 -2.7790
 2486TIP3    H228874   6.822   2.106  15.398  0.6496 -1.5835  0.8716
 2487TIP3   OH228875   4.734   4.322  14.842 -0.2617 -0.2755  0.1291
 2487TIP3    H128876   4.706   4.242  14.797  0.0365  0.7867 -2.0893
 2487TIP3    H228877   4.827   4.329  14.821  1.0562 -1.8426  4.3870
 2488TIP3   OH228878   5.089   4.027   5.017  0.2578  0.1193 -0.4715
 2488TIP3    H128879   5.014   4.002   4.963  0.9429 -1.7805 -0.6552
 2488TIP3    H228880   5.063   4.004   5.106  0.9633 -1.6413 -0.6639
 2489TIP3   OH228881   3.393   3.415   0.808  0.1549 -0.0951 -0.1306
 2489TIP3    H128882   3.391   3.350   0.878 -0.8218 -0.4924 -0.5087
 2489TIP3    H228883   3.306   3.456   0.811  0.8614  1.4599  0.3323
 2490TIP3   OH228884   4.014   1.858   5.786  0.2156  0.2417  0.0722
 2490TIP3    H128885   3.943   1.838   5.725  1.1003 -0.5545 -0.7219
 2490TIP3    H228886   4.032   1.775   5.830  0.0342  0.6553  0.9717
 2491TIP3   OH228887   6.734   2.465  17.145 -0.6951 -0.5249 -0.1208
 2491TIP3    H128888   6.812   2.410  17.137 -0.0630  0.4481 -0.8756
 2491TIP3    H228889   6.671   2.425  17.085 -0.3080 -0.5344 -0.5268
 2492TIP3   OH228890   2.957   0.088  10.812  0.2699  0.3401 -0.3136
 2492TIP3    H128891   2.971   0.058  10.722  0.8131 -0.1308 -0.0753
 2492TIP3    H228892   3.042   0.078  10.854 -0.3004 -0.6831  0.6264
 2493TIP3   OH228893   0.776   4.951  14.016 -0.0615 -0.0580  0.0119
 2493TIP3    H128894   0.757   4.923  14.105 -1.3333  0.6354 -0.0071
 2493TIP3    H228895   0.737   5.038  14.010  0.9956  0.3770 -0.8878
 2494TIP3   OH228896   3.105   4.029   1.977 -0.4377  0.0371  0.2965
 2494TIP3    H128897   3.178   4.013   2.037  0.2751 -1.0028 -0.7950
 2494TIP3    H228898   3.096   3.947   1.928 -0.8283  0.9314 -1.1873
 2495TIP3   OH228899   1.115   5.814  12.102 -0.3924 -0.2533  0.1365
 2495TIP3    H128900   1.095   5.790  12.192  0.1641  0.1971  0.3953
 2495TIP3    H228901   1.105   5.909  12.100 -0.5195 -0.2729 -0.3109
 2496TIP3   OH228902   4.421   0.576  13.369  0.1056  0.4576  0.1232
 2496TIP3    H128903   4.370   0.553  13.291  0.3233  1.6422 -0.3889
 2496TIP3    H228904   4.390   0.516  13.436 -0.4217 -0.2748 -0.7558
 2497TIP3   OH228905   6.475   4.035   0.918  0.2869  0.1842  0.3768
 2497TIP3    H128906   6.521   3.953   0.932  2.6993  1.2719 -0.7099
 2497TIP3    H228907   6.531   4.102   0.958 -0.8655  1.4824 -0.0775
 2498TIP3   OH228908   3.930   1.318  15.272 -0.2478  0.4035 -0.0669
 2498TIP3    H128909   4.025   1.309  15.272 -0.2727 -0.6350  2.3295
 2498TIP3    H228910   3.909   1.352  15.359 -1.9798  2.3614 -1.1595
 2499TIP3   OH228911   1.408   3.270   4.737  0.0381  0.6135  0.2728
 2499TIP3    H128912   1.447   3.357   4.734  1.1780  0.2362  2.2502
 2499TIP3    H228913   1.417   3.243   4.829 -0.2550 -1.5946 -0.2912
 2500TIP3   OH228914   2.851   2.633  16.807  0.1029  0.2565  0.3192
 2500TIP3    H128915   2.860   2.728  16.803  0.6015  0.2131  0.3372
 2500TIP3    H228916   2.770   2.618  16.856  0.3152  0.6628  0.8003
 2501TIP3   OH228917   4.546   2.725  11.444  0.5657  0.0086  0.6060
 2501TIP3    H128918   4.511   2.636  11.438  1.4188 -0.2657 -0.5346
 2501TIP3    H228919   4.490   2.767  11.510 -1.5851 -0.5598 -0.7519
 2502TIP3   OH228920   2.134   1.645   4.327  0.4382 -0.2806 -0.2462
 2502TIP3    H128921   2.221   1.665   4.291  0.0687 -0.7176 -1.4358
 2502TIP3    H228922   2.140   1.670   4.419  1.8516 -0.3744 -0.2889
 2503TIP3   OH228923   0.886   0.162  14.119 -0.0724  0.6010  0.1936
 2503TIP3    H128924   0.907   0.089  14.178  1.5867  0.3377 -0.6772
 2503TIP3    H228925   0.937   0.145  14.040  0.7813  2.9835  0.1507
 2504TIP3   OH228926   6.737   0.308   1.099  0.1784  0.0931 -0.1073
 2504TIP3    H128927   6.695   0.337   1.180  0.0100 -0.7729  0.1261
 2504TIP3    H228928   6.774   0.387   1.060  0.6617  0.4461  1.0508
 2505TIP3   OH228929   1.011   0.172   0.994 -0.5147 -0.1527  0.1359
 2505TIP3    H128930   0.927   0.216   0.992 -0.8380 -0.7472  0.2995
 2505TIP3    H228931   1.032   0.163   1.087  0.1038  0.6831  0.0844
 2506TIP3   OH228932   3.966   4.549   1.740 -0.1169 -0.1296  0.2977
 2506TIP3    H128933   4.003   4.465   1.766  2.0886  0.9230  0.7926
 2506TIP3    H228934   3.941   4.591   1.822 -1.0706 -0.2151  0.0635
 2507TIP3   OH228935   6.100   0.564   3.193 -0.6961 -0.6536  1.0159
 2507TIP3    H128936   6.010   0.541   3.217 -0.7701  0.0987  1.5210
 2507TIP3    H228937   6.109   0.655   3.222 -0.0894 -0.3998  0.0790
 2508TIP3   OH228938   4.360   3.921  12.189  0.6008  0.6109  0.3487
 2508TIP3    H128939   4.375   3.986  12.258 -0.1840 -0.0505  1.1718
 2508TIP3    H228940   4.365   3.837  12.234 -1.0242  0.2000 -0.1630
 2509TIP3   OH228941   5.897   3.660  15.116 -0.3936  0.0688 -0.1508
 2509TIP3    H128942   5.812   3.702  15.104 -0.8856 -0.9791 -0.3965
 2509TIP3    H228943   5.886   3.572  15.080  0.3484 -0.5985  1.1857
 2510TIP3   OH228944   1.974   2.357  13.644  0.5911 -0.0897 -0.1969
 2510TIP3    H128945   2.004   2.448  13.647  2.4590 -0.6950  1.5353
 2510TIP3    H228946   1.903   2.352  13.708  0.1688  0.2318 -0.6331
 2511TIP3   OH228947   1.247   2.885  13.637  0.4007  0.6447  0.1273
 2511TIP3    H128948   1.249   2.814  13.573  0.5095 -1.3200  2.2011
 2511TIP3    H228949   1.154   2.897  13.657  0.4702  0.1060  0.7943
 2512TIP3   OH228950   4.379   3.544  15.971 -0.0353  0.1648  0.3194
 2512TIP3    H128951   4.344   3.497  16.047 -1.0335 -0.1589 -0.3175
 2512TIP3    H228952   4.410   3.628  16.007 -1.1113  0.2992  0.9900
 2513TIP3   OH228953   6.062   4.446  13.684 -0.3191 -0.2041  0.3748
 2513TIP3    H128954   6.050   4.541  13.679 -1.3594 -0.2172  1.8160
 2513TIP3    H228955   6.089   4.420  13.596 -1.0207  1.3058 -0.3238
 2514TIP3   OH228956   3.697   5.440   1.173 -0.3214  0.0275 -0.4595
 2514TIP3    H128957   3.634   5.387   1.223  0.8983 -1.5199 -0.4628
 2514TIP3    H228958   3.670   5.429   1.082  0.7173 -1.8270 -0.6025
 2515TIP3   OH228959   2.527   4.003   1.721 -0.3278 -0.8216  0.4516
 2515TIP3    H128960   2.603   3.945   1.718  1.2743  1.1191  1.7659
 2515TIP3    H228961   2.545   4.071   1.656 -2.4776 -1.9808 -1.5292
 2516TIP3   OH228962   1.445   2.842  15.306  0.6659  0.4043 -0.0932
 2516TIP3    H128963   1.441   2.890  15.223  0.4784 -0.8897 -0.8662
 2516TIP3    H228964   1.354   2.829  15.330  0.7199  1.0275  0.4925
 2517TIP3   OH228965   4.743   3.945   6.450  0.2150  0.3261  0.1876
 2517TIP3    H128966   4.775   3.934   6.361 -0.3921  2.3048 -0.3094
 2517TIP3    H228967   4.821   3.938   6.505  1.0794  2.0814 -0.7607
 2518TIP3   OH228968   5.478   6.547  12.979  0.1067 -0.0934 -0.6110
 2518TIP3    H128969   5.502   6.496  12.901  0.2276  0.5441 -0.9917
 2518TIP3    H228970   5.434   6.483  13.036 -0.0266 -0.5523 -1.2150
 2519TIP3   OH228971   2.597   5.293  16.244 -0.5162 -0.7013  0.2358
 2519TIP3    H128972   2.590   5.322  16.335 -1.5726 -1.6031  0.4621
 2519TIP3    H228973   2.564   5.203  16.245  1.6107 -1.5556 -0.6413
 2520TIP3   OH228974   0.815   3.862  16.496 -0.0826  0.0261 -0.3507
 2520TIP3    H128975   0.790   3.839  16.585  1.6740 -0.1868  0.1157
 2520TIP3    H228976   0.806   3.957  16.492 -0.3116  0.0201 -0.0032
 2521TIP3   OH228977   0.350   5.858  13.526 -0.4690 -0.2020  0.3599
 2521TIP3    H128978   0.354   5.771  13.567 -1.5687  0.1429  1.2364
 2521TIP3    H228979   0.257   5.876  13.515 -0.2262  0.2838 -1.1397
 2522TIP3   OH228980   1.999   0.550   0.849  0.3031 -0.5713 -0.4352
 2522TIP3    H128981   1.979   0.561   0.757  1.8598  0.4674 -0.6770
 2522TIP3    H228982   1.972   0.632   0.890 -1.0015 -1.2779  0.1683
 2523TIP3   OH228983   3.698   6.498  15.029  0.0633  0.8792  0.7408
 2523TIP3    H128984   3.694   6.406  15.055 -0.7216  0.3933 -0.9337
 2523TIP3    H228985   3.725   6.544  15.108 -0.8564 -0.6304  2.0108
 2524TIP3   OH228986   3.847   4.722   4.196 -0.3649  0.0455  0.3958
 2524TIP3    H128987   3.936   4.746   4.224 -0.7283 -0.4464  2.1343
 2524TIP3    H228988   3.841   4.628   4.213 -0.9956 -0.0588 -0.3747
 2525TIP3   OH228989   0.335   4.697  14.711  0.1696  0.2880 -0.1215
 2525TIP3    H128990   0.271   4.755  14.670  1.3632  1.4627 -0.4031
 2525TIP3    H228991   0.366   4.641  14.640  1.2908  1.4554 -0.6038
 2526TIP3   OH228992   4.277   2.404  15.656 -0.4179  0.0773 -0.1578
 2526TIP3    H128993   4.356   2.450  15.684 -0.0340  0.0817 -1.2124
 2526TIP3    H228994   4.231   2.466  15.599 -1.3138  0.1630  0.6310
 2527TIP3   OH228995   3.981   2.250   3.289  0.6360 -0.0054 -0.0188
 2527TIP3    H128996   4.076   2.257   3.302  1.1760 -0.6436 -2.9178
 2527TIP3    H228997   3.948   2.339   3.301  1.8021  0.4540 -0.1029
 2528TIP3   OH228998   6.003   3.921  14.841  0.3363 -0.0432  0.3989
 2528TIP3    H128999   5.969   3.913  14.930  0.8091 -2.2078  0.4452
 2528TIP3    H229000   5.927   3.946  14.788 -0.8296 -2.3592  0.8719
 2529TIP3   OH229001   6.703   5.779  13.434 -0.1448 -0.4042  0.4939
 2529TIP3    H129002   6.638   5.822  13.490  0.4155  1.2600 -0.0769
 2529TIP3    H229003   6.748   5.718  13.493 -0.4232  0.3871  1.5507
 2530TIP3   OH229004   0.422   0.745  10.732  0.3541  0.5708 -0.1692
 2530TIP3    H129005   0.516   0.731  10.746  0.2010  1.1746  1.8197
 2530TIP3    H229006   0.413   0.841  10.730  0.1175  0.5823 -3.4293
 2531TIP3   OH229007   1.041   3.226  13.560  0.5825  0.0021 -0.9446
 2531TIP3    H129008   1.135   3.207  13.557  0.3695 -1.0789 -1.3715
 2531TIP3    H229009   0.999   3.142  13.539 -0.4977  0.2346  0.1993
 2532TIP3   OH229010   5.748   1.707  12.235  0.3292  0.2814  1.0612
 2532TIP3    H129011   5.838   1.705  12.202  0.0156 -2.8279  0.0268
 2532TIP3    H229012   5.700   1.763  12.173  1.1046  0.0263  0.2129
 2533TIP3   OH229013   2.715   3.024   2.886  0.1063  0.4208  0.1345
 2533TIP3    H129014   2.727   3.110   2.845 -0.3456 -0.2919 -1.5974
 2533TIP3    H229015   2.801   3.002   2.921  0.7201  0.7648 -1.0850
 2534TIP3   OH229016   3.363   3.096  13.293 -0.2588 -0.7294  0.6279
 2534TIP3    H129017   3.435   3.155  13.270 -0.7408  0.2228  1.4644
 2534TIP3    H229018   3.296   3.154  13.331 -1.1790 -1.6873  0.4932
 2535TIP3   OH229019   0.051   2.704   4.156 -0.2784  1.0821  0.0709
 2535TIP3    H129020   0.088   2.775   4.104  1.3231 -0.0424 -0.3981
 2535TIP3    H229021   0.084   2.719   4.245 -0.6804  1.4105  0.1683
 2536TIP3   OH229022   0.629   4.311   6.090  0.7055 -0.3131 -0.3430
 2536TIP3    H129023   0.591   4.355   6.166  1.9246  0.4404 -0.1405
 2536TIP3    H229024   0.704   4.262   6.126  0.4330 -1.1190 -0.8483
 2537TIP3   OH229025   5.857   3.221   1.133  0.2658 -0.0242 -1.0870
 2537TIP3    H129026   5.824   3.285   1.197 -0.8552 -0.4007 -1.2643
 2537TIP3    H229027   5.810   3.241   1.052  0.4943 -0.5560 -1.3576
 2538TIP3   OH229028   3.321   0.902  13.985 -0.7723 -0.1016  0.4986
 2538TIP3    H129029   3.389   0.969  13.981 -0.7800 -0.0359  1.3651
 2538TIP3    H229030   3.367   0.824  14.016 -1.0069 -0.1678  0.6803
 2539TIP3   OH229031   5.600   0.571  12.477 -0.3831  0.7698 -0.0826
 2539TIP3    H129032   5.634   0.508  12.541  0.4580  2.4338  1.1909
 2539TIP3    H229033   5.672   0.584  12.416 -1.2319 -0.9185 -1.5366
 2540TIP3   OH229034   4.616   2.193  14.186  0.6410 -0.4464  0.4386
 2540TIP3    H129035   4.688   2.174  14.126 -0.7741  0.4445 -1.6700
 2540TIP3    H229036   4.542   2.142  14.152 -0.4956  0.9134  0.7552
 2541TIP3   OH229037   1.852   6.290   3.685  0.5914  0.0925  0.1484
 2541TIP3    H129038   1.914   6.319   3.751  0.1778 -0.6459  0.8843
 2541TIP3    H229039   1.797   6.226   3.730  0.7321 -0.9449 -1.0871
 2542TIP3   OH229040   2.123   0.313   2.463 -0.6320  0.0682  0.6617
 2542TIP3    H129041   2.066   0.381   2.427 -3.3154 -1.7726  1.1960
 2542TIP3    H229042   2.158   0.267   2.386 -0.4957  0.6747  0.3510
 2543TIP3   OH229043   0.878   5.512   1.387  0.7037  0.3575 -0.3591
 2543TIP3    H129044   0.871   5.459   1.308 -0.7640  1.2926 -0.8984
 2543TIP3    H229045   0.972   5.525   1.399  0.9458  1.0095 -2.5444
 2544TIP3   OH229046   5.890   3.523   3.452  0.6538  0.3814  0.2579
 2544TIP3    H129047   5.841   3.505   3.371  0.1719  1.9678  0.1713
 2544TIP3    H229048   5.932   3.439   3.473 -0.6422 -0.5501 -0.6558
 2545TIP3   OH229049   1.489   6.177   4.452  0.4659  0.4122  0.7659
 2545TIP3    H129050   1.407   6.131   4.433 -0.0661  1.3513  0.7143
 2545TIP3    H229051   1.469   6.269   4.436  2.1662  0.4765 -1.4430
 2546TIP3   OH229052   3.194   5.615   2.232 -0.7891 -0.0785 -0.0904
 2546TIP3    H129053   3.203   5.542   2.171 -0.4205  0.1425 -0.3066
 2546TIP3    H229054   3.110   5.600   2.276 -1.6366  0.3611 -1.4720
 2547TIP3   OH229055   2.245   2.105   5.652 -0.1608  0.2840 -0.3336
 2547TIP3    H129056   2.283   2.187   5.684 -2.0548  1.0653  0.0598
 2547TIP3    H229057   2.309   2.073   5.588  1.3080  1.3003  0.5531
 2548TIP3   OH229058   1.835   4.949   6.444  0.0584  0.3016 -0.5130
 2548TIP3    H129059   1.910   5.003   6.471  0.9650 -0.7292 -0.8921
 2548TIP3    H229060   1.864   4.859   6.458 -1.6701 -0.1043  0.7471
 2549TIP3   OH229061   4.767   2.438  11.863 -0.2827  0.5514 -0.4800
 2549TIP3    H129062   4.694   2.499  11.850 -1.8989 -1.3874 -0.9088
 2549TIP3    H229063   4.726   2.352  11.869  1.6251 -0.2963  3.1151
 2550TIP3   OH229064   0.706   2.613   5.786 -0.3600 -0.2736 -0.0351
 2550TIP3    H129065   0.617   2.582   5.800 -0.5512 -0.0646 -0.7646
 2550TIP3    H229066   0.699   2.708   5.785 -0.1904 -0.2635 -0.4854
 2551TIP3   OH229067   5.516   4.820  14.918 -0.1680  0.1568 -0.7954
 2551TIP3    H129068   5.572   4.770  14.977  0.4689  2.1237  0.3784
 2551TIP3    H229069   5.577   4.861  14.856 -0.4684  0.9839 -0.5494
 2552TIP3   OH229070   0.284   0.432   1.160 -0.0832  0.5027  0.5536
 2552TIP3    H129071   0.240   0.425   1.245 -0.0033  0.9363  0.6318
 2552TIP3    H229072   0.214   0.419   1.096 -0.0653 -0.2745  0.6883
 2553TIP3   OH229073   4.266   6.770   6.735 -0.7136 -0.4115 -0.7172
 2553TIP3    H129074   4.355   6.785   6.768 -0.2511  1.8591 -2.6922
 2553TIP3    H229075   4.261   6.676   6.721  1.1934 -0.6621 -0.0407
 2554TIP3   OH229076   2.475   2.257   1.735  0.1601  0.3571  0.3421
 2554TIP3    H129077   2.520   2.298   1.661 -0.2060 -0.4827 -0.3594
 2554TIP3    H229078   2.503   2.308   1.811 -0.2125  1.8481 -0.4864
 2555TIP3   OH229079   5.194   6.720   3.953  0.1674 -0.2508  0.0345
 2555TIP3    H129080   5.274   6.691   3.910  0.4630 -0.7621  0.9057
 2555TIP3    H229081   5.127   6.659   3.922  0.1848 -0.0303 -0.4346
 2556TIP3   OH229082   3.415   4.371   0.868  0.0718  0.4258 -0.1044
 2556TIP3    H129083   3.385   4.336   0.783  1.0873  0.0325 -0.3133
 2556TIP3    H229084   3.497   4.324   0.885  0.9359  1.9818  0.1202
 2557TIP3   OH229085   3.678   0.774   6.571  0.2234  0.2990 -0.0016
 2557TIP3    H129086   3.604   0.752   6.514 -0.1371 -0.3700  0.7040
 2557TIP3    H229087   3.753   0.732   6.531  0.1784  0.7720 -0.5891
 2558TIP3   OH229088   0.579   1.325   5.981  0.0871  0.0783 -0.4895
 2558TIP3    H129089   0.647   1.273   6.024  0.3453  0.8920  0.1120
 2558TIP3    H229090   0.600   1.416   6.005 -2.2082  0.2375  1.1847
 2559TIP3   OH229091   3.121   6.785  15.381  0.5341 -0.0268  0.3220
 2559TIP3    H129092   3.173   6.834  15.317  3.7675 -0.9254  2.0332
 2559TIP3    H229093   3.090   6.852  15.442 -1.6580  0.6924 -1.4475
 2560TIP3   OH229094   3.158   3.934  10.938 -0.0566  0.0336  0.0710
 2560TIP3    H129095   3.118   3.931  10.850 -1.3841  0.6867  0.6252
 2560TIP3    H229096   3.197   4.021  10.944 -1.2292  0.5490  0.6262
 2561TIP3   OH229097   6.153   3.734  16.289 -0.1237  0.1189  0.3703
 2561TIP3    H129098   6.241   3.766  16.312  1.3534 -2.9766 -0.3953
 2561TIP3    H229099   6.149   3.741  16.194  0.0579 -1.3630  0.2304
 2562TIP3   OH229100   5.786   0.034   2.234 -0.1758 -0.2359 -0.0100
 2562TIP3    H129101   5.758  -0.026   2.164 -0.7681  0.0533 -0.0329
 2562TIP3    H229102   5.706   0.049   2.285  0.4536 -1.1749  1.2889
 2563TIP3   OH229103   3.025   0.088  12.566  0.0695 -0.2047 -0.3520
 2563TIP3    H129104   2.963   0.144  12.613  1.5264  0.2816  1.0975
 2563TIP3    H229105   3.102   0.144  12.552  1.2258 -1.5485  0.3487
 2564TIP3   OH229106   2.938   4.369  16.805  0.6413  0.0029 -0.2666
 2564TIP3    H129107   2.980   4.417  16.734  0.4715 -0.7237 -0.8653
 2564TIP3    H229108   2.852   4.410  16.815 -0.4759 -1.6536 -2.3852
 2565TIP3   OH229109   5.065   6.487  16.031 -0.2785 -0.7159  0.5134
 2565TIP3    H129110   5.057   6.580  16.053 -0.1864 -0.5361 -0.2041
 2565TIP3    H229111   5.155   6.465  16.055  0.1460 -0.2629 -0.6081
 2566TIP3   OH229112   0.911   3.513  13.907 -0.3668  0.0061  0.6756
 2566TIP3    H129113   0.918   3.418  13.901  0.3801  0.1228 -0.9007
 2566TIP3    H229114   0.978   3.538  13.971  1.1889 -0.3898 -0.7027
 2567TIP3   OH229115   0.439   4.145   4.284  0.1853 -0.1420  0.4223
 2567TIP3    H129116   0.478   4.224   4.244  1.4385  0.1422  2.1122
 2567TIP3    H229117   0.379   4.179   4.350 -0.9920 -0.6176 -0.3802
 2568TIP3   OH229118   5.360   0.775   1.399 -0.3710  0.5517  0.2007
 2568TIP3    H129119   5.283   0.721   1.381 -0.3506  0.3242  0.7613
 2568TIP3    H229120   5.358   0.788   1.494  0.3539  0.4355  0.2375
 2569TIP3   OH229121   3.953   1.843   4.938 -0.6398 -0.3734  0.2348
 2569TIP3    H129122   3.959   1.893   5.019 -1.0344 -0.7528  0.5031
 2569TIP3    H229123   3.877   1.880   4.893 -0.0684  0.2391 -0.2482
 2570TIP3   OH229124   0.565   6.543   0.991 -0.0582  0.4389 -0.5236
 2570TIP3    H129125   0.597   6.632   1.007 -1.0979  1.1027 -1.9771
 2570TIP3    H229126   0.471   6.548   1.008  0.1319 -0.8821  1.2520
 2571TIP3   OH229127   6.053   0.918  12.636 -0.1460  0.1736  0.5734
 2571TIP3    H129128   6.030   0.971  12.712 -1.9916 -1.4604  1.2617
 2571TIP3    H229129   6.041   0.827  12.666 -0.4413 -0.5240 -1.4935
 2572TIP3   OH229130   4.533   3.214  12.786 -0.3078 -0.2232  0.3448
 2572TIP3    H129131   4.468   3.162  12.739  0.8377  0.2118 -1.8219
 2572TIP3    H229132   4.574   3.268  12.719  2.4179 -0.6009  1.5761
 2573TIP3   OH229133   6.760   5.108   4.694  0.6876 -0.2196 -0.1851
 2573TIP3    H129134   6.844   5.100   4.649  1.1514  1.9405  0.2150
 2573TIP3    H229135   6.778   5.082   4.784  0.5590 -1.1573 -0.4157
 2574TIP3   OH229136   0.994   1.312   1.364  0.2448  0.2206  0.3754
 2574TIP3    H129137   0.928   1.266   1.416 -1.4392 -0.7098 -2.3416
 2574TIP3    H229138   0.987   1.403   1.392  0.0495 -0.3425  2.3193
 2575TIP3   OH229139   1.466   3.140   4.216  0.5010  0.4799 -0.2375
 2575TIP3    H129140   1.467   3.071   4.150  1.2018  1.0251 -0.8208
 2575TIP3    H229141   1.375   3.168   4.220  0.0224 -1.0778  0.6764
 2576TIP3   OH229142   5.128   2.465  16.016  0.2431  0.4651  0.1479
 2576TIP3    H129143   5.094   2.552  16.037  1.9267  1.2674 -0.2956
 2576TIP3    H229144   5.206   2.455  16.072  0.6931 -0.3015 -0.5839
 2577TIP3   OH229145   6.147   2.453   3.823 -0.2279  0.0815 -0.2557
 2577TIP3    H129146   6.234   2.456   3.783  0.1556  1.0033  0.6174
 2577TIP3    H229147   6.142   2.533   3.875 -1.6442  0.0871 -0.3781
 2578TIP3   OH229148   3.641   1.189   0.390  0.3212 -0.2076  0.1590
 2578TIP3    H129149   3.668   1.100   0.410  2.0063 -0.1696 -1.6473
 2578TIP3    H229150   3.546   1.183   0.376  0.0527 -1.2702  2.0580
 2579TIP3   OH229151   6.162   3.815   5.423  0.3940 -0.4266  0.1776
 2579TIP3    H129152   6.192   3.753   5.356 -0.1058 -1.0204  0.4896
 2579TIP3    H229153   6.086   3.772   5.463  0.8904 -0.2418  1.3675
 2580TIP3   OH229154   4.757   2.018   0.651  0.0947 -0.4482 -0.1901
 2580TIP3    H129155   4.790   1.965   0.579 -0.7066 -0.4474 -0.5699
 2580TIP3    H229156   4.807   2.099   0.646  0.8992 -0.9294  0.0188
 2581TIP3   OH229157   0.953   6.511  13.893 -0.1553  0.2540  0.3518
 2581TIP3    H129158   0.930   6.419  13.902 -0.3586  0.1030 -1.3537
 2581TIP3    H229159   0.918   6.537  13.808  1.5306  1.3945 -0.0522
 2582TIP3   OH229160   4.288   5.897   3.780 -0.5336  0.0762  0.4053
 2582TIP3    H129161   4.307   5.911   3.687 -0.8977 -1.1536  0.1278
 2582TIP3    H229162   4.371   5.867   3.817 -0.1527  1.3780  0.6908
 2583TIP3   OH229163   1.839   3.832  11.029 -0.1376  0.1955  0.2585
 2583TIP3    H129164   1.782   3.908  11.015  0.7031  0.8371  0.2568
 2583TIP3    H229165   1.778   3.760  11.045 -0.9991  0.6156 -0.8892
 2584TIP3   OH229166   6.359   1.576   4.297 -0.6849  0.3387 -0.4825
 2584TIP3    H129167   6.386   1.600   4.209  2.0617 -1.6095 -0.3111
 2584TIP3    H229168   6.336   1.484   4.291 -0.5042  0.1908  0.8357
 2585TIP3   OH229169   0.861   0.065   3.736 -0.4335  0.2924  0.0344
 2585TIP3    H129170   0.871   0.114   3.654  3.1592  1.1332  0.8021
 2585TIP3    H229171   0.866   0.132   3.804 -0.4890 -0.6718  0.9986
 2586TIP3   OH229172   3.711   1.700   3.245 -0.1781 -0.1947 -0.0576
 2586TIP3    H129173   3.636   1.749   3.278  0.5333  0.5342  0.5142
 2586TIP3    H229174   3.774   1.702   3.317  0.3686 -0.8497 -0.5102
 2587TIP3   OH229175   3.264   1.651   5.105  0.4872 -0.0868 -0.1744
 2587TIP3    H129176   3.292   1.740   5.084  1.3274 -0.4269 -0.5309
 2587TIP3    H229177   3.174   1.661   5.135  1.3615  1.1946  2.2465
 2588TIP3   OH229178   4.842   4.974   4.530  0.1102  0.4871  0.0589
 2588TIP3    H129179   4.774   4.923   4.485 -0.6607  1.9078 -0.4279
 2588TIP3    H229180   4.806   4.993   4.616  0.5579 -0.0801  0.3844
 2589TIP3   OH229181   6.798   3.359  14.686  0.1557 -0.0736  0.1760
 2589TIP3    H129182   6.831   3.445  14.711 -0.5957  0.4294 -0.5376
 2589TIP3    H229183   6.735   3.337  14.754 -0.1118  0.2175  0.0221
 2590TIP3   OH229184   6.483   3.174  15.615  0.1596  0.2067  0.2618
 2590TIP3    H129185   6.508   3.243  15.677 -0.5010  0.9821 -0.3242
 2590TIP3    H229186   6.420   3.121  15.663  0.7325 -0.0455  0.7457
 2591TIP3   OH229187   4.815   3.362   4.766 -0.5823 -0.0077  0.0618
 2591TIP3    H129188   4.892   3.362   4.822  0.0196 -2.8435 -0.6180
 2591TIP3    H229189   4.749   3.315   4.815 -1.3684  0.9558 -0.0436
 2592TIP3   OH229190   1.200   3.992  12.687 -0.3408  0.0287 -0.1039
 2592TIP3    H129191   1.186   4.085  12.701  1.7310  0.4798 -0.7042
 2592TIP3    H229192   1.243   3.986  12.602  1.0842 -1.2867  0.6385
 2593TIP3   OH229193   3.339   4.661   4.104 -0.0917  0.2483  0.2669
 2593TIP3    H129194   3.298   4.700   4.181 -2.4130 -0.7197 -0.3870
 2593TIP3    H229195   3.342   4.732   4.040 -0.5431  0.4067  0.4153
 2594TIP3   OH229196   6.059   3.060   2.299  0.4743 -0.2657  0.0259
 2594TIP3    H129197   6.042   3.056   2.393  0.8137 -2.0614  0.0344
 2594TIP3    H229198   6.105   3.144   2.287 -0.2397  0.3408  1.3259
 2595TIP3   OH229199   5.326   1.219  13.731 -0.2826  0.3153  0.2741
 2595TIP3    H129200   5.317   1.284  13.661  2.2155  0.1172 -0.3482
 2595TIP3    H229201   5.310   1.135  13.688 -1.0091  0.3506  0.4779
 2596TIP3   OH229202   5.693   3.405  11.763  0.5013  0.3030 -0.0756
 2596TIP3    H129203   5.612   3.358  11.779  0.2027  0.8489  0.0232
 2596TIP3    H229204   5.749   3.341  11.718  0.0428 -0.0886 -0.0995
 2597TIP3   OH229205   1.440   5.888  13.888 -0.3058 -0.7439 -0.3162
 2597TIP3    H129206   1.380   5.963  13.890 -0.4959 -0.8990  1.4560
 2597TIP3    H229207   1.425   5.848  13.802 -1.0491  0.5509 -0.8260
 2598TIP3   OH229208   0.037   6.027  13.635 -0.2993 -0.5977  0.0838
 2598TIP3    H129209  -0.011   6.080  13.571  0.1075 -1.6857 -1.1679
 2598TIP3    H229210  -0.029   5.969  13.672 -0.0574 -1.9642 -1.5006
 2599TIP3   OH229211   4.750   0.521  12.532  0.1284  0.3034  0.1254
 2599TIP3    H129212   4.823   0.583  12.532  1.6708 -1.4230  0.4706
 2599TIP3    H229213   4.697   0.546  12.607  1.1222  0.7765  0.6969
 2600TIP3   OH229214   4.818   2.672   5.650  0.3783  0.3579  0.1243
 2600TIP3    H129215   4.884   2.714   5.706  1.5700 -1.2443 -0.0211
 2600TIP3    H229216   4.784   2.600   5.703 -1.3531  1.1869  0.2189
 2601TIP3   OH229217   5.475   6.700   1.547 -0.3215 -0.0567  0.2778
 2601TIP3    H129218   5.413   6.627   1.543 -0.3690 -0.0483  0.8062
 2601TIP3    H229219   5.437   6.761   1.610 -0.0521  0.2097  0.1858
 2602TIP3   OH229220   1.835   2.157   1.280 -1.3512  0.0289 -0.2442
 2602TIP3    H129221   1.782   2.192   1.210 -1.9144  0.4075  0.3613
 2602TIP3    H229222   1.816   2.213   1.356 -1.9767 -1.3169  0.6381
 2603TIP3   OH229223   4.534   4.859   1.455 -0.4432  0.5274  0.1551
 2603TIP3    H129224   4.454   4.860   1.402 -0.5129  2.6396  0.2260
 2603TIP3    H229225   4.594   4.802   1.407 -1.3640  0.3831 -0.8635
 2604TIP3   OH229226   4.072   2.753  12.825  0.0473  0.0450  0.7751
 2604TIP3    H129227   4.148   2.711  12.864  0.2751  0.3923  0.7040
 2604TIP3    H229228   4.104   2.790  12.743 -0.6866 -1.6759 -0.3237
 2605TIP3   OH229229   3.570   3.969  16.872 -0.4819  0.3520  0.3925
 2605TIP3    H129230   3.538   3.879  16.880  0.1698 -0.0067 -0.8959
 2605TIP3    H229231   3.639   3.975  16.938 -0.2560 -0.2150  0.2130
 2606TIP3   OH229232   3.869   6.529   5.395 -0.7327 -1.1052 -0.1118
 2606TIP3    H129233   3.844   6.484   5.476 -1.5650  1.8245  1.4137
 2606TIP3    H229234   3.787   6.559   5.358 -0.1951 -0.6709 -0.9727
 2607TIP3   OH229235   2.636   4.707  16.376  0.0055  0.5020 -0.4511
 2607TIP3    H129236   2.595   4.693  16.291  1.8693  0.8039 -1.4553
 2607TIP3    H229237   2.702   4.774  16.361  1.4257 -0.5141  0.8611
 2608TIP3   OH229238   2.903   2.841   1.867 -0.6094  0.2447 -0.2905
 2608TIP3    H129239   2.864   2.754   1.871  0.2110 -0.1379 -0.2169
 2608TIP3    H229240   2.842   2.898   1.912 -1.6258 -0.1109 -1.1801
 2609TIP3   OH229241   2.840   4.766  11.422  0.4509  0.3993 -0.2527
 2609TIP3    H129242   2.813   4.678  11.397  0.4893 -0.1544  1.5470
 2609TIP3    H229243   2.767   4.822  11.395  1.2993  0.1982 -3.3419
 2610TIP3   OH229244   3.771   5.089   1.402 -0.6033 -0.0763  0.0289
 2610TIP3    H129245   3.708   5.159   1.391  0.7585  1.0068 -1.3128
 2610TIP3    H229246   3.849   5.132   1.436  0.3488 -0.8434 -1.0834
 2611TIP3   OH229247   6.437   3.357  13.674 -0.0014 -0.6733 -0.4275
 2611TIP3    H129248   6.517   3.306  13.660 -0.1174 -0.7355 -0.8638
 2611TIP3    H229249   6.369   3.311  13.624 -0.1779 -0.2906 -0.5460
 2612TIP3   OH229250   4.226   0.993  15.128  0.0188  0.1926 -0.1594
 2612TIP3    H129251   4.280   0.993  15.207  0.6338  3.9714 -0.3867
 2612TIP3    H229252   4.268   0.930  15.070  0.1532 -1.9192  2.0785
 2613TIP3   OH229253   0.103   3.006  13.634 -0.3676 -0.3800 -0.1138
 2613TIP3    H129254   0.114   2.951  13.712  0.2726  1.2834  1.0320
 2613TIP3    H229255   0.165   3.078  13.646 -2.1713  1.3931 -0.8069
 2614TIP3   OH229256   5.440   1.286  14.115 -0.0316  0.6118 -0.0328
 2614TIP3    H129257   5.530   1.256  14.128 -0.5484 -1.4791 -0.8746
 2614TIP3    H229258   5.434   1.366  14.167  2.3304  0.8766 -0.0456
 2615TIP3   OH229259   0.687   3.750   5.794 -0.1951  0.1610 -0.6829
 2615TIP3    H129260   0.637   3.765   5.714 -1.1429 -2.9811 -0.8110
 2615TIP3    H229261   0.628   3.700   5.850  1.1565  0.5721  1.2093
 2616TIP3   OH229262   1.140   6.205   5.045 -0.8767  0.0948  0.3219
 2616TIP3    H129263   1.233   6.225   5.030 -0.9761 -0.8460 -1.8931
 2616TIP3    H229264   1.096   6.236   4.966 -2.6991  1.7827  1.9005
 2617TIP3   OH229265   6.471   0.902  15.350 -0.0387 -0.2169  0.1256
 2617TIP3    H129266   6.376   0.900  15.342  0.0873 -1.5680 -1.9462
 2617TIP3    H229267   6.502   0.853  15.274  2.3325  0.4021  0.6113
 2618TIP3   OH229268   6.196   3.665  11.358  0.3116 -0.0267  0.5304
 2618TIP3    H129269   6.256   3.728  11.319 -0.5524  0.1426 -0.5591
 2618TIP3    H229270   6.135   3.642  11.288  0.5231 -1.9856  0.9255
 2619TIP3   OH229271   0.629   5.132   0.890 -0.1816 -0.0691 -0.0133
 2619TIP3    H129272   0.684   5.090   0.956  0.7036  0.7015 -0.2356
 2619TIP3    H229273   0.679   5.210   0.864 -2.6222  2.3845  1.9265
 2620TIP3   OH229274   4.070   2.010   2.959 -0.0940  0.9101 -0.0063
 2620TIP3    H129275   4.063   1.954   3.037  1.0228  0.1811 -0.4030
 2620TIP3    H229276   3.986   2.054   2.954 -0.2937  0.7591  1.4581
 2621TIP3   OH229277   4.312   3.676  13.854  0.2262  0.6900 -0.2824
 2621TIP3    H129278   4.372   3.623  13.802  0.4256 -0.4002  0.9881
 2621TIP3    H229279   4.343   3.666  13.944 -1.7350  0.2099  0.4047
 2622TIP3   OH229280   5.648   1.753  16.470  0.2816  0.3616 -0.2170
 2622TIP3    H129281   5.598   1.724  16.394  0.9308 -0.6844 -0.2652
 2622TIP3    H229282   5.582   1.780  16.534 -0.5162 -2.7718  0.4588
 2623TIP3   OH229283   1.369   2.906   4.075 -0.1515 -0.1746 -0.2947
 2623TIP3    H129284   1.384   2.976   4.011  0.9959 -1.7734 -1.8623
 2623TIP3    H229285   1.283   2.926   4.112  0.5770  2.6422  0.1292
 2624TIP3   OH229286   0.573   5.564   5.903  0.0110  0.1060  0.2289
 2624TIP3    H129287   0.600   5.640   5.851 -0.3481  0.0514 -0.0427
 2624TIP3    H229288   0.492   5.593   5.946 -1.4300 -0.8592 -1.6655
 2625TIP3   OH229289   0.505   6.596   3.165  0.0226  0.2764 -0.4400
 2625TIP3    H129290   0.583   6.566   3.118 -0.1643  0.9127 -1.1785
 2625TIP3    H229291   0.472   6.669   3.113 -1.1680 -0.0813 -0.2365
 2626TIP3   OH229292   2.084   1.749   0.181 -0.3085 -0.0262  0.1079
 2626TIP3    H129293   2.055   1.825   0.130 -1.9262 -0.9215 -0.3778
 2626TIP3    H229294   2.032   1.752   0.261 -1.0429 -1.0843 -0.3034
 2627TIP3   OH229295   2.185   0.563   3.028 -0.2139  0.4774  0.1076
 2627TIP3    H129296   2.174   0.542   3.121  0.3436  1.5386  0.4369
 2627TIP3    H229297   2.206   0.480   2.987  2.2156  0.3432  1.4061
 2628TIP3   OH229298   4.317   4.292   5.112  0.4487 -0.2682 -0.3065
 2628TIP3    H129299   4.365   4.224   5.160  0.9066 -0.9610 -1.7017
 2628TIP3    H229300   4.228   4.288   5.147  1.2876  0.8846  2.1641
 2629TIP3   OH229301   1.384   5.821   3.741 -0.2432 -0.1722 -0.0407
 2629TIP3    H129302   1.438   5.900   3.740 -0.6925  0.1372 -0.6273
 2629TIP3    H229303   1.441   5.752   3.708  0.0967 -0.0564  0.3006
 2630TIP3   OH229304   4.003   3.611   0.216 -0.4307 -0.0749 -0.0753
 2630TIP3    H129305   3.924   3.558   0.202 -1.5816  1.6055 -0.2734
 2630TIP3    H229306   4.049   3.608   0.132 -0.7006 -0.4203 -0.2139
 2631TIP3   OH229307   2.810   3.019  14.811  0.4428  0.5190 -0.4825
 2631TIP3    H129308   2.776   2.950  14.754 -1.4836 -0.0263  1.2226
 2631TIP3    H229309   2.904   3.021  14.793  0.5175 -2.3298 -0.8166
 2632TIP3   OH229310   4.277   5.259   4.360 -0.5850  0.1452 -0.3609
 2632TIP3    H129311   4.242   5.302   4.282 -0.3687 -2.0464 -1.7427
 2632TIP3    H229312   4.349   5.205   4.327  0.1388 -0.1074  1.5264
 2633TIP3   OH229313   2.012   1.480  12.672 -0.1496  0.1697 -0.0226
 2633TIP3    H129314   2.045   1.554  12.620 -0.6365  0.4999  0.1362
 2633TIP3    H229315   2.078   1.468  12.741 -0.1898  0.6019  0.0896
 2634TIP3   OH229316   3.639   4.520   5.327  0.5620 -0.4971  0.5775
 2634TIP3    H129317   3.546   4.498   5.331  0.2825  0.5207  0.0489
 2634TIP3    H229318   3.658   4.555   5.414  0.5072 -0.9227  0.7619
 2635TIP3   OH229319   5.897   3.659  10.326  0.0780 -0.2565 -0.2161
 2635TIP3    H129320   5.944   3.732  10.366 -0.6930  1.4755 -2.2905
 2635TIP3    H229321   5.931   3.581  10.372  3.6563  0.9973 -0.3825
 2636TIP3   OH229322   3.753   4.963   2.596 -0.3844 -0.2514  0.0236
 2636TIP3    H129323   3.753   4.899   2.524  1.0078  1.3413 -1.4883
 2636TIP3    H229324   3.846   4.982   2.611 -0.7600  2.1449 -0.3104
 2637TIP3   OH229325   1.026   1.186   6.290 -1.0074 -0.1654  0.1678
 2637TIP3    H129326   1.066   1.133   6.359 -2.6756  0.3821  1.6237
 2637TIP3    H229327   1.091   1.254   6.272 -1.4072  1.0624  2.9000
 2638TIP3   OH229328   6.704   3.536   6.190  0.1908 -0.2343  0.0573
 2638TIP3    H129329   6.668   3.459   6.235  1.5222 -0.3678  0.9356
 2638TIP3    H229330   6.627   3.583   6.158 -0.6522 -2.1701 -0.9338
 2639TIP3   OH229331   1.719   0.377  16.177 -0.2303 -0.6240  0.0111
 2639TIP3    H129332   1.755   0.431  16.106  0.6223 -2.2972 -0.8793
 2639TIP3    H229333   1.650   0.325  16.136 -2.3186  0.9858  1.2520
 2640TIP3   OH229334   2.586   1.492   2.713 -0.7133 -0.5884 -0.2538
 2640TIP3    H129335   2.544   1.408   2.693 -0.9842 -0.5658  0.2159
 2640TIP3    H229336   2.655   1.500   2.647 -2.0623 -0.1549 -1.6642
 2641TIP3   OH229337   5.726   5.112  11.192 -0.0637 -0.0029  0.0986
 2641TIP3    H129338   5.666   5.045  11.158 -1.4892  2.1635 -1.9246
 2641TIP3    H229339   5.809   5.065  11.202 -0.2585 -1.5895 -3.8011
 2642TIP3   OH229340   1.674   1.224   0.075  0.4889 -0.6827  0.0895
 2642TIP3    H129341   1.587   1.201   0.042  0.4255 -0.6249  0.2189
 2642TIP3    H229342   1.682   1.176   0.157 -0.5128  1.4332  1.4870
 2643TIP3   OH229343   5.386   1.526  12.325 -0.2601 -0.0177  0.5714
 2643TIP3    H129344   5.429   1.441  12.315 -2.2054 -1.0855  0.7213
 2643TIP3    H229345   5.425   1.580  12.257  0.7925 -1.1240  0.2488
 2644TIP3   OH229346   6.201   4.250  14.017 -0.6101  0.2140  0.4257
 2644TIP3    H129347   6.106   4.256  14.012 -0.6110  1.1627  1.2482
 2644TIP3    H229348   6.232   4.339  14.000  0.1395 -0.0964  0.0986
 2645TIP3   OH229349   0.021   3.488   0.434 -0.0452  0.0184  0.3089
 2645TIP3    H129350  -0.046   3.421   0.417 -2.0031  2.0310 -0.4268
 2645TIP3    H229351   0.092   3.465   0.375  0.0742 -2.3084  1.2379
 2646TIP3   OH229352   3.383   5.902   3.548  0.2448  0.3918 -0.0257
 2646TIP3    H129353   3.312   5.858   3.595  0.2465 -0.6202 -0.9387
 2646TIP3    H229354   3.457   5.841   3.553  0.3339  0.4021 -1.0833
 2647TIP3   OH229355   3.425   4.446   4.293 -0.5387 -0.4498 -0.1675
 2647TIP3    H129356   3.391   4.511   4.231  1.1882 -0.8162 -1.5975
 2647TIP3    H229357   3.425   4.364   4.243  2.0362 -0.5286 -0.1599
 2648TIP3   OH229358   1.745   6.123  16.667 -0.2628 -0.0130  0.4294
 2648TIP3    H129359   1.778   6.034  16.660 -0.4563 -0.0573  0.0585
 2648TIP3    H229360   1.814   6.171  16.713 -1.0331 -0.8113  2.5442
 2649TIP3   OH229361   4.694   3.229  17.106 -0.5732  0.0542 -0.3267
 2649TIP3    H129362   4.691   3.248  17.199  0.4713 -0.9054 -0.0803
 2649TIP3    H229363   4.611   3.185  17.087  0.4141 -2.3958  0.7746
 2650TIP3   OH229364   6.334   1.901   5.380  0.2331 -0.1616 -0.1349
 2650TIP3    H129365   6.328   1.847   5.301  2.1247  1.6908 -1.6566
 2650TIP3    H229366   6.269   1.969   5.367 -0.8178 -0.9226  0.8917
 2651TIP3   OH229367   6.167   2.354   4.949  0.2707  0.5397 -0.1722
 2651TIP3    H129368   6.184   2.380   5.040 -1.4700  0.4366  0.2097
 2651TIP3    H229369   6.182   2.434   4.899  0.1359  0.8944  0.3415
 2652TIP3   OH229370   0.262   2.730  12.790  0.2164  1.0804  0.2658
 2652TIP3    H129371   0.321   2.663  12.756  0.1216  0.3173  1.5594
 2652TIP3    H229372   0.251   2.709  12.882 -1.2637  1.8140  0.2920
 2653TIP3   OH229373   6.232   0.361   4.167  0.3893 -0.4078  0.1916
 2653TIP3    H129374   6.183   0.373   4.248  0.4032  0.3164  0.0972
 2653TIP3    H229375   6.286   0.440   4.159 -1.0836  0.5087 -1.5404
 2654TIP3   OH229376   4.579   0.023   1.018  0.8817  0.0527 -0.1936
 2654TIP3    H129377   4.580   0.066   1.104 -1.9070  1.2514 -0.6688
 2654TIP3    H229378   4.539  -0.062   1.034 -2.0100  1.2271 -0.5642
 2655TIP3   OH229379   5.982   5.967   6.504  0.4057 -0.0805 -0.2581
 2655TIP3    H129380   5.966   5.872   6.505  0.5767 -0.1069 -0.0148
 2655TIP3    H229381   6.076   5.975   6.488  0.3344  0.0560 -0.6255
 2656TIP3   OH229382   4.229   1.625  13.000  0.3461 -0.0382 -0.1244
 2656TIP3    H129383   4.285   1.697  13.028 -0.7108  0.5543  0.5649
 2656TIP3    H229384   4.210   1.643  12.908  1.2777 -0.2511 -0.3650
 2657TIP3   OH229385   3.066   2.211  16.462 -0.2958 -0.0139 -0.2845
 2657TIP3    H129386   3.050   2.300  16.492 -0.3262 -0.5573  1.4648
 2657TIP3    H229387   3.154   2.212  16.425  0.3579  0.4282  1.2096
 2658TIP3   OH229388   5.842   0.714   1.097  0.7072 -0.2209 -0.5593
 2658TIP3    H129389   5.884   0.673   1.172  0.6798 -2.1041 -1.5182
 2658TIP3    H229390   5.749   0.714   1.119  0.7777 -0.0064 -0.2531
 2659TIP3   OH229391   4.650   4.755   5.735 -0.2325 -0.4215 -0.1232
 2659TIP3    H129392   4.731   4.750   5.685 -0.9712 -1.4260 -1.2758
 2659TIP3    H229393   4.660   4.688   5.803 -0.1356 -0.6146 -0.3267
 2660TIP3   OH229394   6.124   6.412  16.198  0.1618 -1.0012 -0.2028
 2660TIP3    H129395   6.133   6.499  16.237 -2.9533 -0.8330  0.3352
 2660TIP3    H229396   6.128   6.351  16.271 -0.1162 -1.1148 -0.2807
 2661TIP3   OH229397   4.604   5.394  14.935  0.2297  0.1807  0.0507
 2661TIP3    H129398   4.512   5.380  14.954  0.0505 -0.1343 -0.9929
 2661TIP3    H229399   4.648   5.387  15.020 -0.9195  2.3637  0.8971
 2662TIP3   OH229400   1.930   6.360   0.823 -0.0352 -0.2319  0.0738
 2662TIP3    H129401   1.836   6.380   0.822  0.2281  1.1667  0.2051
 2662TIP3    H229402   1.943   6.313   0.905 -0.5507 -0.0314  0.2791
 2663TIP3   OH229403   0.942   1.384  14.827 -0.4279  0.4374  0.3865
 2663TIP3    H129404   0.989   1.326  14.767 -0.6621 -0.0833  0.6975
 2663TIP3    H229405   0.905   1.452  14.771 -0.3180  0.1731 -0.0102
 2664TIP3   OH229406   4.560   4.035  13.381  0.8044  0.2375  0.4834
 2664TIP3    H129407   4.503   4.021  13.306  0.3846 -0.2668  0.8849
 2664TIP3    H229408   4.555   3.953  13.431  0.2925  0.9112  1.5749
 2665TIP3   OH229409   4.513   4.204  11.875  0.3535  0.0569  0.0199
 2665TIP3    H129410   4.593   4.152  11.882 -0.0241 -0.6537 -0.7048
 2665TIP3    H229411   4.521   4.270  11.944  1.9336  0.5190 -0.5731
 2666TIP3   OH229412   3.684   2.174  15.545 -0.3183 -0.2664 -0.4679
 2666TIP3    H129413   3.722   2.169  15.457 -1.4575 -2.7640 -0.8967
 2666TIP3    H229414   3.759   2.158  15.603  0.0145 -1.1089 -1.1058
 2667TIP3   OH229415   2.608   3.866  12.205 -0.2378 -0.1427  0.2101
 2667TIP3    H129416   2.553   3.884  12.281  1.8659  1.3923  1.4818
 2667TIP3    H229417   2.547   3.833  12.138 -2.2720 -0.8900  2.2884
 2668TIP3   OH229418   4.357   4.801   5.322 -0.1024  0.9542  0.1450
 2668TIP3    H129419   4.452   4.814   5.325 -0.2763  2.1764  1.3632
 2668TIP3    H229420   4.346   4.707   5.310  1.2671  0.7853  0.0677
 2669TIP3   OH229421   1.993   0.420   1.383  0.0621  0.2826 -0.0007
 2669TIP3    H129422   2.072   0.379   1.348 -0.9699 -0.8996 -1.0628
 2669TIP3    H229423   1.986   0.385   1.472  0.7528  0.4510  0.1279
 2670TIP3   OH229424   2.598   3.952   0.271 -0.1665  0.3134  0.0672
 2670TIP3    H129425   2.676   3.906   0.302  1.5754  2.0370 -1.4745
 2670TIP3    H229426   2.572   4.008   0.344 -0.8163 -1.2240  1.0644
 2671TIP3   OH229427   5.592   4.162  13.419  0.3846 -0.5322  0.5121
 2671TIP3    H129428   5.588   4.255  13.397 -1.7974 -0.7160 -0.0988
 2671TIP3    H229429   5.682   4.137  13.398  1.0022  1.4006  0.6303
 2672TIP3   OH229430   3.603   2.363   5.405  0.0445  0.2617 -0.1373
 2672TIP3    H129431   3.564   2.404   5.328 -2.2902 -1.4029  0.0419
 2672TIP3    H229432   3.547   2.287   5.423  1.3612 -0.2449  2.3394
 2673TIP3   OH229433   5.254   1.887   1.870  0.3604  0.1453 -0.0910
 2673TIP3    H129434   5.250   1.958   1.805 -0.7403 -0.4614 -0.7271
 2673TIP3    H229435   5.186   1.910   1.933  0.4543 -0.0075  0.0632
 2674TIP3   OH229436   2.801   6.568   3.781 -0.2328  0.6076  0.1080
 2674TIP3    H129437   2.889   6.546   3.813  0.8127  0.1799 -2.7548
 2674TIP3    H229438   2.785   6.657   3.815  1.2770  0.6719  0.7322
 2675TIP3   OH229439   3.815   6.633   1.177 -0.4572 -0.1052  0.1509
 2675TIP3    H129440   3.737   6.603   1.223 -1.1682 -0.7267 -1.3748
 2675TIP3    H229441   3.865   6.683   1.242 -0.8617 -1.8322  1.8736
 2676TIP3   OH229442   4.500   2.495   2.890  0.0221  0.0789  0.1404
 2676TIP3    H129443   4.439   2.475   2.819 -0.6934 -1.8705  1.2503
 2676TIP3    H229444   4.587   2.480   2.852 -0.3572 -1.1014 -0.2908
 2677TIP3   OH229445   4.147   3.580   1.491 -0.3436  0.2779 -0.3139
 2677TIP3    H129446   4.141   3.591   1.586  0.3790 -0.6896 -0.1383
 2677TIP3    H229447   4.219   3.518   1.479 -0.0411  0.8395 -1.5322
 2678TIP3   OH229448   1.205   4.262   4.392 -0.0962  0.3575  0.0290
 2678TIP3    H129449   1.204   4.176   4.350 -2.5907  0.5569 -0.4887
 2678TIP3    H229450   1.290   4.266   4.436  0.1034 -2.3711  0.0954
 2679TIP3   OH229451   3.155   2.175   4.113  0.4283  0.0070  0.7043
 2679TIP3    H129452   3.211   2.098   4.117  0.8963  0.3734  1.2364
 2679TIP3    H229453   3.066   2.140   4.123  0.7149 -0.3589  2.1734
 2680TIP3   OH229454   1.192   6.748   4.431 -0.6133 -0.3414  0.9116
 2680TIP3    H129455   1.112   6.737   4.380  0.7970 -2.6003 -1.0231
 2680TIP3    H229456   1.238   6.820   4.387 -1.5630  1.0770  2.1299
 2681TIP3   OH229457   2.309   2.618  15.223  0.4167 -0.4131  0.7045
 2681TIP3    H129458   2.375   2.582  15.282  1.0037  0.4074  0.5562
 2681TIP3    H229459   2.266   2.687  15.274  1.0718  0.4510  0.1329
 2682TIP3   OH229460   3.831   1.696  11.561 -0.4096  0.7572  0.0839
 2682TIP3    H129461   3.781   1.774  11.539 -1.1001  0.1740 -0.4812
 2682TIP3    H229462   3.922   1.717  11.539 -0.4573  1.6784  0.7164
 2683TIP3   OH229463   2.126   0.157   5.548  0.1234 -0.0861  0.2712
 2683TIP3    H129464   2.137   0.107   5.630  1.3864  0.4770  0.4707
 2683TIP3    H229465   2.058   0.221   5.569  1.3642  0.9355  1.3446
 2684TIP3   OH229466   1.395   0.056  13.637  0.0295 -0.0888 -0.0097
 2684TIP3    H129467   1.360   0.124  13.579  0.8758 -0.2820 -0.7603
 2684TIP3    H229468   1.383   0.091  13.725 -0.2933  0.6724 -0.3493
 2685TIP3   OH229469   3.974   1.854  11.141  0.3765  0.3873 -0.2485
 2685TIP3    H129470   3.989   1.806  11.060 -0.5737 -0.4407  0.0524
 2685TIP3    H229471   3.882   1.841  11.160  0.3871  1.2956  0.5207
 2686TIP3   OH229472   4.566   4.143  13.638 -0.0088  0.2039 -0.1523
 2686TIP3    H129473   4.537   4.115  13.551 -1.2111  0.9487 -0.0253
 2686TIP3    H229474   4.516   4.223  13.655  0.1829  0.0585  1.2411
 2687TIP3   OH229475   0.671   4.037   1.898  0.3538  0.0834 -0.4164
 2687TIP3    H129476   0.625   4.105   1.849 -0.7499  0.3515  0.9246
 2687TIP3    H229477   0.607   4.007   1.963  0.9214 -2.0123 -0.7448
 2688TIP3   OH229478   2.978   5.021   3.239 -0.0864  0.5311  0.1500
 2688TIP3    H129479   3.033   4.975   3.302 -0.6088 -1.4904 -0.8128
 2688TIP3    H229480   2.966   5.108   3.277 -0.5030 -0.6448  2.8961
 2689TIP3   OH229481   6.289   5.684  16.992  0.2650  0.2061  0.2576
 2689TIP3    H129482   6.288   5.752  16.925 -0.9341  0.0209  0.0663
 2689TIP3    H229483   6.200   5.682  17.027  0.1253 -1.5754 -0.0812
 2690TIP3   OH229484   0.955   5.007  12.164  0.3140  0.5934  0.2629
 2690TIP3    H129485   0.868   4.987  12.199  0.0435  0.2956 -0.5583
 2690TIP3    H229486   0.942   5.010  12.070  1.3739 -0.3187  0.0758
 2691TIP3   OH229487   0.694   2.686   6.640  1.0738 -0.3812 -0.0563
 2691TIP3    H129488   0.751   2.759   6.618  0.3103  0.2230 -0.0592
 2691TIP3    H229489   0.618   2.697   6.583  0.3772 -0.4418  0.8424
 2692TIP3   OH229490   2.053   3.178  13.312  0.4046  0.7080 -0.5702
 2692TIP3    H129491   1.995   3.237  13.359 -0.6370  0.2383 -1.2385
 2692TIP3    H229492   2.131   3.171  13.368  0.0002  1.6756  0.1267
 2693TIP3   OH229493   0.982   0.706  16.340 -0.1822 -0.0815 -0.0624
 2693TIP3    H129494   1.009   0.634  16.397  0.2111  0.8750  0.9923
 2693TIP3    H229495   1.020   0.685  16.255  0.0895 -1.0155  0.2733
 2694TIP3   OH229496   5.560   2.921   0.976 -0.6652 -0.8361  0.1613
 2694TIP3    H129497   5.466   2.903   0.978 -0.5602 -1.3864  0.4373
 2694TIP3    H229498   5.579   2.959   1.062 -0.6804 -0.4722  0.0057
 2695TIP3   OH229499   1.470   3.386   5.427  0.0245 -0.0696  0.0635
 2695TIP3    H129500   1.510   3.448   5.488 -1.4177  0.4932  0.4706
 2695TIP3    H229501   1.481   3.301   5.470  0.6692  0.0801  0.2109
 2696TIP3   OH229502   5.379   1.369  17.042  0.3548  0.0602  0.4173
 2696TIP3    H129503   5.299   1.359  16.989 -0.0732  2.3572  0.5245
 2696TIP3    H229504   5.400   1.280  17.070 -1.7028 -0.7176 -0.2906
 2697TIP3   OH229505   4.573   4.691   6.117  0.4535  0.4014 -0.8709
 2697TIP3    H129506   4.651   4.643   6.087  0.5681 -0.0075  0.0541
 2697TIP3    H229507   4.500   4.646   6.075  0.6414  0.1082 -0.8875
 2698TIP3   OH229508   6.602   2.161   0.836  0.5476  0.0316  0.4272
 2698TIP3    H129509   6.685   2.207   0.845  0.5301  0.1332  0.0807
 2698TIP3    H229510   6.536   2.228   0.855  0.5648 -0.4131  2.2720
 2699TIP3   OH229511   0.326   1.652   1.170  0.3067 -0.7211 -0.0112
 2699TIP3    H129512   0.306   1.732   1.122  0.8337 -0.4963  0.1342
 2699TIP3    H229513   0.302   1.581   1.111  0.2946 -0.4474 -0.3325
 2700TIP3   OH229514   5.222   3.974  15.659  1.0533 -0.0216 -0.0588
 2700TIP3    H129515   5.249   4.018  15.578  0.4830  1.4202  0.5142
 2700TIP3    H229516   5.147   3.921  15.633  1.2548 -0.0540 -0.5930
 2701TIP3   OH229517   1.877   4.986  15.106 -0.1728  0.1670  0.1286
 2701TIP3    H129518   1.888   4.936  15.187  0.8158 -1.5798 -1.0257
 2701TIP3    H229519   1.912   5.073  15.126 -0.8145  0.0600  1.8257
 2702TIP3   OH229520   0.036   0.011  16.740 -0.3973  0.3281 -0.2472
 2702TIP3    H129521   0.049   0.106  16.737  1.5948  0.0669 -1.2897
 2702TIP3    H229522  -0.058   0.000  16.728 -0.7327  2.1888  0.3501
 2703TIP3   OH229523   2.430   5.367  16.464  0.3764  0.4179  0.5184
 2703TIP3    H129524   2.379   5.414  16.398  1.8038  1.9239  0.4291
 2703TIP3    H229525   2.393   5.395  16.548  0.0928  0.3513  0.4145
 2704TIP3   OH229526   5.241   6.727  12.037  0.4946  0.4312  0.1455
 2704TIP3    H129527   5.320   6.673  12.044  2.0167  2.5461  0.7945
 2704TIP3    H229528   5.215   6.743  12.128 -1.1374 -0.7992 -0.0746
 2705TIP3   OH229529   1.224   1.059  13.892  0.4358  0.1870 -0.2430
 2705TIP3    H129530   1.223   1.005  13.971  0.2020 -0.2924 -0.5657
 2705TIP3    H229531   1.139   1.041  13.850  0.4688  0.6033 -0.4896
 2706TIP3   OH229532   1.919   2.369   3.103 -0.2120  0.6030  0.1096
 2706TIP3    H129533   1.977   2.379   3.028 -1.1679  2.9270 -0.4149
 2706TIP3    H229534   1.843   2.423   3.082 -1.8353 -1.0007  1.5022
 2707TIP3   OH229535   4.940   5.697   3.948 -0.0432 -0.1008 -0.6167
 2707TIP3    H129536   5.031   5.670   3.942  0.3432  0.1542  2.4522
 2707TIP3    H229537   4.892   5.617   3.968  0.0346  0.2000  0.9553
 2708TIP3   OH229538   2.781   0.005  13.174 -0.0445 -0.0681  0.1179
 2708TIP3    H129539   2.720   0.047  13.235  0.5449  0.7933  0.1317
 2708TIP3    H229540   2.867   0.020  13.213  0.4277  1.2698 -1.3662
 2709TIP3   OH229541   1.386   1.253  12.179 -0.5005  0.1823 -0.1721
 2709TIP3    H129542   1.438   1.176  12.155  0.7765  0.3051  1.9964
 2709TIP3    H229543   1.439   1.327  12.151 -0.1391  0.2878  0.7544
 2710TIP3   OH229544   4.881   2.415  15.837 -0.2884  0.7711  0.1527
 2710TIP3    H129545   4.852   2.360  15.910 -0.6451 -2.4983 -2.2140
 2710TIP3    H229546   4.964   2.452  15.866 -0.0097 -1.0714  1.9347
 2711TIP3   OH229547   2.436   1.894  13.027  0.4940 -0.7129  0.1219
 2711TIP3    H129548   2.398   1.970  13.070  3.5493  0.9343  0.1159
 2711TIP3    H229549   2.378   1.821  13.052 -1.2886  1.1952  1.9042
 2712TIP3   OH229550   3.359   5.788   4.167 -0.1183 -0.1466  0.2424
 2712TIP3    H129551   3.398   5.873   4.146 -2.4710  0.8661 -0.3261
 2712TIP3    H229552   3.352   5.788   4.263 -1.0710  0.7928  0.1887
 2713TIP3   OH229553   2.342   2.533   3.356  0.0155  0.8712  0.2791
 2713TIP3    H129554   2.266   2.479   3.378  1.1539 -1.0177 -0.1992
 2713TIP3    H229555   2.312   2.589   3.284 -0.8190 -0.1071 -0.1593
 2714TIP3   OH229556   0.295   6.213  13.062 -0.2737 -0.0865  0.2627
 2714TIP3    H129557   0.363   6.247  13.121 -1.3242  1.1282  0.8255
 2714TIP3    H229558   0.297   6.272  12.987 -0.0625 -0.6315 -0.1648
 2715TIP3   OH229559   0.405   4.412  14.803 -0.1709  0.7809  0.3197
 2715TIP3    H129560   0.459   4.481  14.764  0.4200 -0.7193 -1.6593
 2715TIP3    H229561   0.320   4.421  14.760 -0.5146  1.0609  1.0289
 2716TIP3   OH229562   5.311   4.007  13.252  0.0700  0.6736 -0.1541
 2716TIP3    H129563   5.299   3.937  13.188  2.2993 -0.8546  0.9590
 2716TIP3    H229564   5.349   4.079  13.202  0.4101  0.0399 -0.8254
 2717TIP3   OH229565   6.044   6.713  16.092 -0.9054 -0.1498  0.3675
 2717TIP3    H129566   5.966   6.666  16.061 -1.9284  0.8144  1.3779
 2717TIP3    H229567   6.009   6.795  16.127  0.7128  0.8535 -0.2835
 2718TIP3   OH229568   1.578   1.817   1.127  0.2120  0.3932  0.1590
 2718TIP3    H129569   1.527   1.791   1.051  1.5029  2.0911 -1.3777
 2718TIP3    H229570   1.512   1.840   1.193 -0.9317 -1.0343 -0.4269
 2719TIP3   OH229571   2.526   2.487  15.342 -0.1746  0.1811  0.6980
 2719TIP3    H129572   2.543   2.471  15.435  0.1554 -1.0370  0.4391
 2719TIP3    H229573   2.581   2.562  15.320  1.9621 -1.2516  0.8236
 2720TIP3   OH229574   6.205   2.154  11.905  0.3598  0.0242  0.4526
 2720TIP3    H129575   6.203   2.065  11.870 -0.6323 -0.2106  1.0598
 2720TIP3    H229576   6.226   2.144  11.997  0.5085  0.4438  0.4687
 2721TIP3   OH229577   0.581   1.291  11.471  0.3887 -0.2466 -0.1606
 2721TIP3    H129578   0.556   1.364  11.528  0.0034 -0.1082 -0.5059
 2721TIP3    H229579   0.673   1.274  11.493 -0.1520 -1.2033  1.6218
 2722TIP3   OH229580   2.937   0.935  13.775  0.2377 -0.0527 -0.5619
 2722TIP3    H129581   2.937   0.865  13.840  1.0110  0.2843 -0.1790
 2722TIP3    H229582   2.889   1.007  13.817  1.1456  0.3349 -0.1481
 2723TIP3   OH229583   4.308   5.194  11.811 -0.5056 -0.2600  0.3554
 2723TIP3    H129584   4.386   5.248  11.819 -1.6111  1.4164  0.2960
 2723TIP3    H229585   4.305   5.143  11.892  1.8967 -2.1967 -0.6288
 2724TIP3   OH229586   0.548   3.741  13.312  0.6749  0.1616  0.5091
 2724TIP3    H129587   0.587   3.655  13.296 -2.1072 -1.1555  0.1459
 2724TIP3    H229588   0.488   3.727  13.385 -0.7436  1.4735 -0.3461
 2725TIP3   OH229589   6.536   1.116  12.638  0.2616  0.3842 -0.5282
 2725TIP3    H129590   6.456   1.097  12.589  0.7274  1.7072 -1.8892
 2725TIP3    H229591   6.506   1.154  12.720 -0.5309  0.8066 -1.0002
 2726TIP3   OH229592   3.688   0.376   5.779  0.4362  0.1170 -0.0998
 2726TIP3    H129593   3.596   0.401   5.772  0.4781  0.3794  0.2518
 2726TIP3    H229594   3.691   0.315   5.853  1.0347  2.6304  2.0838
 2727TIP3   OH229595   0.452   5.938   3.735 -0.3127 -0.2836  0.2171
 2727TIP3    H129596   0.383   5.974   3.791 -1.3984 -1.6460 -0.1944
 2727TIP3    H229597   0.494   6.016   3.697 -1.0612  0.6005  1.1271
 2728TIP3   OH229598   0.188   4.693   3.370 -0.2255 -0.2495  0.1099
 2728TIP3    H129599   0.250   4.763   3.351  0.5219 -0.2165  2.4466
 2728TIP3    H229600   0.139   4.724   3.445 -1.7568 -1.1318 -0.4840
 2729TIP3   OH229601   3.623   1.653  13.123 -0.3130  0.1987  0.3061
 2729TIP3    H129602   3.534   1.675  13.096 -1.0677 -0.7775  1.8718
 2729TIP3    H229603   3.670   1.737  13.120 -1.0207  0.5661 -1.3899
 2730TIP3   OH229604   2.650   3.365  14.693  0.3264 -0.6494 -0.7746
 2730TIP3    H129605   2.671   3.420  14.769  0.5382 -0.2270 -1.1331
 2730TIP3    H229606   2.735   3.334  14.662  0.4542  1.0053 -2.1874
 2731TIP3   OH229607   6.381   2.554  11.611 -0.3398 -0.4615 -0.4884
 2731TIP3    H129608   6.409   2.465  11.592  0.2332 -0.0615 -1.6082
 2731TIP3    H229609   6.290   2.558  11.580 -0.6380 -0.8762  0.3081
 2732TIP3   OH229610   3.554   6.270  15.873 -0.1684  0.0895  0.3655
 2732TIP3    H129611   3.488   6.289  15.940 -0.9989 -0.6222 -0.2303
 2732TIP3    H229612   3.519   6.196  15.824  0.1514  0.9256 -1.2140
 2733TIP3   OH229613   6.351   2.973  14.863  0.4365 -0.4339 -0.0552
 2733TIP3    H129614   6.305   3.033  14.922  1.6405 -0.2832  0.7642
 2733TIP3    H229615   6.308   2.985  14.778 -0.4721  0.3083  0.4950
 2734TIP3   OH229616   3.321   5.869   3.201 -0.1681 -0.4470 -0.3306
 2734TIP3    H129617   3.237   5.858   3.246  0.0882  0.3484  0.3566
 2734TIP3    H229618   3.383   5.821   3.255  0.2020  0.7945  0.3858
 2735TIP3   OH229619   2.738   0.148   5.409  0.3292 -0.2116  0.2165
 2735TIP3    H129620   2.825   0.185   5.395  0.5814 -0.4386  1.1384
 2735TIP3    H229621   2.735   0.070   5.353  0.3989  0.2671 -0.4644
 2736TIP3   OH229622   6.039   0.132  11.357 -0.0341  0.6582  0.9682
 2736TIP3    H129623   6.024   0.100  11.268 -2.1411  0.8453  1.2063
 2736TIP3    H229624   6.133   0.145  11.362 -0.0237  2.3360 -1.8130
 2737TIP3   OH229625   2.568   2.652  14.545  0.9581 -0.1860 -0.8246
 2737TIP3    H129626   2.552   2.603  14.463  1.2090 -2.4286  0.3865
 2737TIP3    H229627   2.493   2.629  14.601  1.6072  0.0187  0.1441
 2738TIP3   OH229628   0.351   4.314   4.035  0.1373  0.2604  0.3633
 2738TIP3    H129629   0.382   4.236   3.989 -0.9767  0.6781 -1.1907
 2738TIP3    H229630   0.257   4.301   4.044 -0.1471  1.5917 -0.3506
 2739TIP3   OH229631   4.192   6.572   2.623  0.5572 -0.2080 -0.4339
 2739TIP3    H129632   4.160   6.483   2.614 -1.7157  0.6748 -1.8552
 2739TIP3    H229633   4.152   6.603   2.705 -0.6226  0.2412 -1.1635
 2740TIP3   OH229634   4.674   5.569  16.957  0.9260 -0.5389  0.3720
 2740TIP3    H129635   4.581   5.562  16.939  1.1852  0.0202 -1.3434
 2740TIP3    H229636   4.685   5.530  17.044 -1.1609  0.9776  1.4073
 2741TIP3   OH229637   6.068   1.178   4.334 -0.3318  0.5365 -0.0738
 2741TIP3    H129638   6.044   1.109   4.272 -1.0306  1.0489 -0.3895
 2741TIP3    H229639   6.163   1.181   4.331 -0.3672  0.8937 -1.5010
 2742TIP3   OH229640   6.586   2.499  15.974  0.3336  0.1916 -0.2735
 2742TIP3    H129641   6.632   2.416  15.985 -0.7729 -0.5783 -1.3427
 2742TIP3    H229642   6.509   2.478  15.922 -0.0522  1.8667 -0.4322
 2743TIP3   OH229643   3.297   5.212   3.469 -0.9243 -0.2075 -0.1800
 2743TIP3    H129644   3.325   5.245   3.384 -1.2148  2.5907  0.7060
 2743TIP3    H229645   3.296   5.117   3.459  2.4182 -0.1660 -2.2116
 2744TIP3   OH229646   6.746   0.971  11.540 -0.0521  0.0291  0.3017
 2744TIP3    H129647   6.839   0.989  11.554  0.1236 -0.0848 -0.6410
 2744TIP3    H229648   6.706   1.057  11.527 -0.0275  0.0632  0.4590
 2745TIP3   OH229649   6.106   6.594  11.316  0.0262  0.3978  0.0541
 2745TIP3    H129650   6.034   6.597  11.253  1.1687  0.5870 -1.2695
 2745TIP3    H229651   6.185   6.588  11.263  0.9249 -1.7593  1.4988
 2746TIP3   OH229652   1.989   4.398  16.917  0.6312  0.6596  0.4701
 2746TIP3    H129653   2.054   4.358  16.860  1.3139  0.6580  1.2381
 2746TIP3    H229654   2.026   4.482  16.943 -0.0599  1.0537  0.2134
 2747TIP3   OH229655   4.417   3.460   4.281  0.1740  0.0286 -0.0788
 2747TIP3    H129656   4.375   3.419   4.206 -1.3047 -0.1188  0.7841
 2747TIP3    H229657   4.403   3.554   4.268  2.8987  0.3031 -1.6692
 2748TIP3   OH229658   6.185   2.287   4.427  0.4012  0.2714 -0.0022
 2748TIP3    H129659   6.239   2.279   4.349  1.9362  1.7505  0.8446
 2748TIP3    H229660   6.219   2.364   4.473 -0.1688 -0.7477  2.3186
 2749TIP3   OH229661   6.397   3.298   2.256  0.7480  0.0790 -0.0302
 2749TIP3    H129662   6.426   3.209   2.239  1.4844  0.7549 -2.7957
 2749TIP3    H229663   6.435   3.320   2.341  2.2462 -1.5477 -0.2353
 2750TIP3   OH229664   5.749   4.063   5.167 -0.5026  0.2454 -0.5370
 2750TIP3    H129665   5.756   4.128   5.236  3.0227  0.5999 -1.0445
 2750TIP3    H229666   5.771   4.110   5.087  3.3640 -1.5803 -0.7712
 2751TIP3   OH229667   0.143   1.882   3.658  0.3555 -0.0438 -0.2839
 2751TIP3    H129668   0.189   1.832   3.726  1.0756  0.3942 -0.4467
 2751TIP3    H229669   0.089   1.944   3.707 -2.3073 -2.3854  0.0319
 2752TIP3   OH229670   3.455   5.698   6.045 -0.2878  0.0678 -0.4561
 2752TIP3    H129671   3.381   5.688   5.986 -1.0451 -0.7016  0.5863
 2752TIP3    H229672   3.492   5.610   6.053  1.0852  0.5218 -1.3571
 2753TIP3   OH229673   0.836   6.580  13.012  0.5069 -0.1109  0.6118
 2753TIP3    H129674   0.810   6.508  13.070 -0.4823 -0.8770 -0.7230
 2753TIP3    H229675   0.911   6.620  13.057  0.9823 -1.8486  1.5051
 2754TIP3   OH229676   4.184   2.655   2.729 -0.2378  0.3960  0.2398
 2754TIP3    H129677   4.171   2.634   2.822 -0.3966  2.3369  0.7043
 2754TIP3    H229678   4.139   2.738   2.717 -1.0048 -0.2635 -1.8356
 2755TIP3   OH229679   5.394   5.619   2.222  0.1281 -0.3170 -0.0153
 2755TIP3    H129680   5.381   5.588   2.133 -0.4318 -1.8154  0.5637
 2755TIP3    H229681   5.307   5.613   2.262  0.3704  0.3597  0.6323
 2756TIP3   OH229682   0.757   5.091   4.992 -0.2526  0.5406  0.1287
 2756TIP3    H129683   0.752   5.131   5.079  0.7913  1.5147 -0.2342
 2756TIP3    H229684   0.742   5.164   4.932  0.4511  0.1467 -0.5365
 2757TIP3   OH229685   0.906   2.923  12.936  0.3381 -0.4344  0.1609
 2757TIP3    H129686   0.877   2.832  12.935  0.7250 -0.8900  5.2383
 2757TIP3    H229687   0.838   2.969  12.986  1.1825  1.6388 -0.5072
 2758TIP3   OH229688   0.879   2.414   0.211  0.1585 -0.4470  0.6165
 2758TIP3    H129689   0.854   2.366   0.132  1.5091  0.7307 -0.5798
 2758TIP3    H229690   0.970   2.439   0.196 -0.2749  1.8382  1.4921
 2759TIP3   OH229691   6.152   1.834  15.961  0.3008  0.1055 -0.2436
 2759TIP3    H129692   6.106   1.831  16.044 -0.4819  2.0590 -0.5433
 2759TIP3    H229693   6.241   1.804  15.981  0.1804  0.7391  1.3345
 2760TIP3   OH229694   5.337   6.049   2.504 -0.6907  0.2237 -0.6189
 2760TIP3    H129695   5.289   6.126   2.533  1.0163  1.2116 -0.2860
 2760TIP3    H229696   5.274   6.000   2.451 -2.4399  0.7646  0.8646
 2761TIP3   OH229697   2.143   0.818   1.111 -0.3662  0.2735  0.1952
 2761TIP3    H129698   2.220   0.761   1.114  1.4126  2.5378  0.4580
 2761TIP3    H229699   2.162   0.887   1.174 -1.2474  2.4882 -1.8064
 2762TIP3   OH229700   4.334   0.638  15.351 -0.2821 -0.5154  0.1149
 2762TIP3    H129701   4.273   0.703  15.386  0.7728  0.7006 -0.2544
 2762TIP3    H229702   4.279   0.581  15.297 -1.2046  0.1376  0.3390
 2763TIP3   OH229703   2.098   3.014   5.088  0.0050 -0.0125  0.6988
 2763TIP3    H129704   2.034   2.960   5.134 -0.7934  0.1155 -0.2247
 2763TIP3    H229705   2.163   2.952   5.055 -1.0359 -0.4868 -0.5618
 2764TIP3   OH229706   3.036   3.842  11.162  0.3665  0.1341  0.5524
 2764TIP3    H129707   3.073   3.908  11.103 -0.5478 -0.5426 -0.8370
 2764TIP3    H229708   3.077   3.860  11.246  1.4943  1.3410 -0.2037
 2765TIP3   OH229709   4.589   0.424  12.308 -0.0885 -0.3701 -0.2097
 2765TIP3    H129710   4.649   0.445  12.378 -0.8624  1.0926  0.0504
 2765TIP3    H229711   4.503   0.453  12.339 -0.2264  1.8150 -2.3309
 2766TIP3   OH229712   1.070   6.001   0.109 -0.2955 -0.2178  0.0571
 2766TIP3    H129713   1.067   5.983   0.015 -3.0700  1.8042 -0.3846
 2766TIP3    H229714   0.995   5.954   0.145 -0.4592  0.6494  0.8973
 2767TIP3   OH229715   2.233   2.014  14.156 -0.1122 -0.1404 -0.3994
 2767TIP3    H129716   2.246   1.977  14.244  1.5920 -1.3897 -1.1135
 2767TIP3    H229717   2.139   2.030  14.150 -0.5046 -1.6193  1.0540
 2768TIP3   OH229718   2.329   4.475  16.501 -0.1596  0.5090  0.0438
 2768TIP3    H129719   2.383   4.407  16.542 -1.1190 -0.9583 -1.0388
 2768TIP3    H229720   2.362   4.480  16.411 -0.7083  0.8220 -0.1401
 2769TIP3   OH229721   2.885   2.960   4.804  0.1289  0.0936 -0.1566
 2769TIP3    H129722   2.873   2.940   4.711  1.8646  2.6583 -1.0532
 2769TIP3    H229723   2.970   2.924   4.826  0.0501  0.1335  0.2280
 2770TIP3   OH229724   4.287   5.754  14.374  0.0360  0.0585  0.5729
 2770TIP3    H129725   4.273   5.714  14.288 -1.7041  1.1368  0.3145
 2770TIP3    H229726   4.378   5.734  14.395  0.6875  0.2856 -1.8006
 2771TIP3   OH229727   1.897   3.502  12.329 -0.0644 -0.6767  0.0703
 2771TIP3    H129728   1.862   3.545  12.408  1.5888  2.0774 -0.5394
 2771TIP3    H229729   1.833   3.523  12.261 -0.2904 -0.9638  0.1943
 2772TIP3   OH229730   6.394   2.523  11.200 -0.2542  0.0712 -0.1260
 2772TIP3    H129731   6.434   2.445  11.163 -0.3337  0.0757 -0.2228
 2772TIP3    H229732   6.300   2.510  11.185 -0.2453  0.3204 -0.4037
 2773TIP3   OH229733   1.964   0.244  14.367  0.3234 -0.2695 -0.3859
 2773TIP3    H129734   1.951   0.220  14.459 -0.0182 -0.9718 -0.6079
 2773TIP3    H229735   2.045   0.200  14.342  1.6215  1.6755  0.1588
 2774TIP3   OH229736   2.086   5.054   5.838  0.1245  0.2892  0.0212
 2774TIP3    H129737   2.092   4.958   5.839  1.5469  0.3548  1.3880
 2774TIP3    H229738   2.152   5.080   5.774  0.3081  0.3796  0.2472
 2775TIP3   OH229739   0.581   3.945  12.598  0.4641 -0.6386 -0.4022
 2775TIP3    H129740   0.624   3.901  12.671 -0.6928 -1.4571 -0.1835
 2775TIP3    H229741   0.495   3.903  12.592 -0.2021  0.7495 -0.9978
 2776TIP3   OH229742   4.552   4.603  10.950  0.1437  0.1214  0.1709
 2776TIP3    H129743   4.531   4.574  10.862  0.4470  1.3296 -0.3204
 2776TIP3    H229744   4.610   4.535  10.984 -1.5795 -1.3880  0.2208
 2777TIP3   OH229745   0.313   5.405   1.402 -0.4525  0.1974  0.1306
 2777TIP3    H129746   0.337   5.415   1.494 -1.6054  0.0283  0.4610
 2777TIP3    H229747   0.397   5.409   1.355  0.2784 -0.8547  1.2729
 2778TIP3   OH229748   1.732   5.858   4.009  0.5535 -0.6363  0.3408
 2778TIP3    H129749   1.684   5.831   4.087  1.7436 -1.6165  0.7661
 2778TIP3    H229750   1.719   5.788   3.946 -0.1408  0.0027 -0.2421
 2779TIP3   OH229751   2.839   6.190  16.773  0.5583  0.5426  0.5382
 2779TIP3    H129752   2.823   6.096  16.783 -3.1077  0.6109 -2.4520
 2779TIP3    H229753   2.894   6.197  16.695  1.6905  0.9206  1.3414
 2780TIP3   OH229754   4.880   5.198  11.935  0.2920  0.1923  0.5527
 2780TIP3    H129755   4.797   5.215  11.892  0.3932 -0.8812 -0.0955
 2780TIP3    H229756   4.932   5.276  11.920  0.5072 -0.3378 -1.7329
 2781TIP3   OH229757   4.370   5.033  16.371  0.3169 -0.1360  0.3805
 2781TIP3    H129758   4.319   5.063  16.296  0.5319  0.4113  0.4548
 2781TIP3    H229759   4.390   4.941  16.351 -1.6807 -0.7344  0.8890
 2782TIP3   OH229760   3.296   5.097  16.050  0.1709  0.1078  0.6009
 2782TIP3    H129761   3.209   5.115  16.086 -0.5907  0.4812 -1.2730
 2782TIP3    H229762   3.329   5.183  16.024  0.6597 -0.1435  0.3721
 2783TIP3   OH229763   4.626   2.854   3.437 -0.0931 -0.0717  0.6592
 2783TIP3    H129764   4.587   2.939   3.457  0.0439  0.0235  0.5284
 2783TIP3    H229765   4.663   2.865   3.349 -1.9424 -0.9254 -0.2656
 2784TIP3   OH229766   3.379   2.160  14.037  0.0183  0.1051 -0.0674
 2784TIP3    H129767   3.353   2.136  14.126 -0.8398  1.2665  0.0238
 2784TIP3    H229768   3.304   2.137  13.983  0.4396 -0.3631 -0.4592
 2785TIP3   OH229769   1.159   0.835  12.165 -0.6402  0.5584  0.0439
 2785TIP3    H129770   1.113   0.919  12.164 -2.0013 -0.1446  1.0499
 2785TIP3    H229771   1.105   0.778  12.220  0.5073 -0.8438 -0.2166
 2786TIP3   OH229772   5.202   2.298   4.489  0.1430 -0.1417  0.0461
 2786TIP3    H129773   5.230   2.218   4.534 -2.2121 -0.6835  0.7196
 2786TIP3    H229774   5.253   2.300   4.409  0.9536 -1.8234  0.4754
 2787TIP3   OH229775   3.951   4.854  11.978 -0.0340  0.3157  0.3675
 2787TIP3    H129776   3.923   4.941  11.951 -1.9882 -0.9409 -2.1090
 2787TIP3    H229777   3.879   4.796  11.953  2.2418 -2.3563 -0.5758
 2788TIP3   OH229778   3.354   3.415  11.503 -0.2090 -0.2750  0.4637
 2788TIP3    H129779   3.362   3.327  11.464  0.2554 -0.4904  1.0439
 2788TIP3    H229780   3.381   3.404  11.594 -0.9367  0.3073  0.7629
 2789TIP3   OH229781   4.633   5.080  14.583  0.1492  0.1379  0.0400
 2789TIP3    H129782   4.611   5.000  14.535  0.1156  0.5818 -0.7018
 2789TIP3    H229783   4.610   5.061  14.674 -0.3337 -0.5197 -0.2126
 2790TIP3   OH229784   5.937   2.489  11.956  0.1424  0.8821  0.4040
 2790TIP3    H129785   6.029   2.514  11.946  0.8619 -1.7639 -0.7044
 2790TIP3    H229786   5.917   2.506  12.048  2.2657  0.0396  1.0872
 2791TIP3   OH229787   1.381   4.012   2.238  0.4289 -0.2947 -0.4758
 2791TIP3    H129788   1.306   3.970   2.196  1.6677 -1.6777 -1.4078
 2791TIP3    H229789   1.352   4.026   2.329 -0.5186 -2.0381 -0.4484
 2792TIP3   OH229790   3.775   0.023  16.445  0.0979 -0.6480  0.3399
 2792TIP3    H129791   3.861  -0.015  16.427  0.4406 -0.6331  1.7802
 2792TIP3    H229792   3.736  -0.037  16.509 -0.4915 -0.0642  0.5372
 2793TIP3   OH229793   1.799   6.686  14.838 -0.3370  0.6645  0.0852
 2793TIP3    H129794   1.712   6.672  14.801 -0.4606  1.1969  0.1716
 2793TIP3    H229795   1.851   6.722  14.765  1.3363 -4.3558 -1.6618
 2794TIP3   OH229796   4.859   1.495   5.559 -0.6531  0.3132 -0.3422
 2794TIP3    H129797   4.887   1.505   5.650  1.4429 -0.2930 -0.8782
 2794TIP3    H229798   4.827   1.405   5.553 -3.3127  1.1027  0.3527
 2795TIP3   OH229799   0.188   3.021   4.653 -0.1198 -0.1082  0.0215
 2795TIP3    H129800   0.137   3.071   4.589 -0.1864  1.5763  1.2988
 2795TIP3    H229801   0.273   3.066   4.656  0.0458 -0.4547  0.7678
 2796TIP3   OH229802   5.379   5.125  11.632 -0.3587 -0.5024  0.2177
 2796TIP3    H129803   5.408   5.197  11.577  0.9346 -3.1012 -2.8845
 2796TIP3    H229804   5.285   5.118  11.617 -0.3419  0.0310 -0.1276
 2797TIP3   OH229805   4.555   5.717   1.601  0.0997  0.0681 -0.4084
 2797TIP3    H129806   4.594   5.649   1.655 -1.2159  0.7460  1.5386
 2797TIP3    H229807   4.606   5.796   1.621  0.4001  0.0762 -1.1630
 2798TIP3   OH229808   3.440   1.639  14.871 -0.6829  0.1090 -0.3523
 2798TIP3    H129809   3.483   1.562  14.834 -2.0550 -0.6553 -0.4265
 2798TIP3    H229810   3.445   1.705  14.803 -0.1034 -0.1329 -0.5521
 2799TIP3   OH229811   6.082   1.027   0.140 -0.0338  0.2987  0.0959
 2799TIP3    H129812   6.174   0.997   0.142 -0.7203 -1.9943  1.3024
 2799TIP3    H229813   6.067   1.064   0.226 -0.0758  1.3229 -0.3397
 2800TIP3   OH229814   0.375   1.579   0.492 -0.0440  0.4791  0.3282
 2800TIP3    H129815   0.354   1.637   0.418  0.3746  1.1871  0.7552
 2800TIP3    H229816   0.317   1.504   0.480 -0.1036  0.6645 -0.6244
 2801TIP3   OH229817   0.648   4.694   0.941  0.0766  0.5126  0.2664
 2801TIP3    H129818   0.743   4.706   0.939  0.0306  0.7881 -0.6871
 2801TIP3    H229819   0.618   4.724   0.855 -0.7023 -1.1240 -0.0647
 2802TIP3   OH229820   2.820   3.349  13.461 -0.1969  0.1233 -0.3928
 2802TIP3    H129821   2.733   3.319  13.487 -0.4862  0.7820 -0.5878
 2802TIP3    H229822   2.854   3.393  13.539  0.7108 -1.6918  0.2988
 2803TIP3   OH229823   4.555   2.240   2.121  0.5668  0.4090 -0.5943
 2803TIP3    H129824   4.544   2.146   2.112  0.0816  0.5083 -1.0228
 2803TIP3    H229825   4.481   2.269   2.174  1.8685  0.2469  1.4349
 2804TIP3   OH229826   6.159   3.526   0.432 -0.2766 -0.1336  0.1949
 2804TIP3    H129827   6.169   3.621   0.429 -0.6651 -0.1093 -1.9619
 2804TIP3    H229828   6.243   3.493   0.464  0.2313  0.8844 -0.0623
 2805TIP3   OH229829   5.201   0.235  12.095 -0.6073  0.0084  0.2387
 2805TIP3    H129830   5.246   0.266  12.173  1.2489  0.9526 -1.1476
 2805TIP3    H229831   5.170   0.147  12.119  2.8630 -1.1606  0.9864
 2806TIP3   OH229832   1.004   3.394  16.906  0.2646 -0.2781 -0.3563
 2806TIP3    H129833   1.004   3.426  16.996 -1.6024 -0.3121 -0.3107
 2806TIP3    H229834   1.004   3.298  16.915 -1.1485 -0.2984 -0.3333
 2807TIP3   OH229835   2.433   0.583  15.430  0.2175 -0.0888  0.3413
 2807TIP3    H129836   2.399   0.669  15.406  0.0074 -0.6420 -1.5858
 2807TIP3    H229837   2.381   0.557  15.506 -1.2082  0.6215 -0.3416
 2808TIP3   OH229838   5.656   0.996  16.417 -1.0684 -0.5065  0.0870
 2808TIP3    H129839   5.748   0.978  16.433 -0.9487 -0.0827 -0.1301
 2808TIP3    H229840   5.642   0.971  16.326 -0.6671  1.3934 -0.5320
 2809TIP3   OH229841   1.054   4.363   4.178 -0.6202 -0.0696 -0.0942
 2809TIP3    H129842   1.104   4.391   4.254  1.0205  0.5080 -1.3466
 2809TIP3    H229843   1.036   4.270   4.194 -1.1327  0.2562  1.4044
 2810TIP3   OH229844   4.987   1.445  15.801  0.5983  0.1876 -0.1404
 2810TIP3    H129845   4.950   1.488  15.878 -0.8532 -1.5047  0.1726
 2810TIP3    H229846   5.036   1.371  15.836  0.2111 -0.4046 -0.8186
 2811TIP3   OH229847   5.519   5.948   4.376  0.6777 -0.1792  0.4235
 2811TIP3    H129848   5.517   5.966   4.470  0.5150  1.5170  0.1207
 2811TIP3    H229849   5.606   5.977   4.348  0.9480 -1.2283  0.1370
 2812TIP3   OH229850   6.444   2.464   4.246 -0.1486 -0.4874  0.2013
 2812TIP3    H129851   6.454   2.457   4.341 -1.6646  1.1600  0.5172
 2812TIP3    H229852   6.534   2.466   4.213  0.4101 -0.2606  1.6537
 2813TIP3   OH229853   3.593   0.069  13.781 -0.3304 -0.8491 -0.1642
 2813TIP3    H129854   3.669   0.093  13.835 -1.0902  0.5708  0.3203
 2813TIP3    H229855   3.624  -0.004  13.728  1.9441  0.7025 -1.1597
 2814TIP3   OH229856   4.576   2.444   3.343 -0.4125 -0.5020 -0.5375
 2814TIP3    H129857   4.610   2.396   3.418  0.5239 -0.0525 -0.6667
 2814TIP3    H229858   4.487   2.411   3.332  0.2353 -2.2783 -0.6909
 2815TIP3   OH229859   0.186   1.604  13.454 -0.3391  0.5545 -0.5736
 2815TIP3    H129860   0.164   1.684  13.406  0.2955  0.8539 -0.3699
 2815TIP3    H229861   0.262   1.627  13.507  0.0866 -0.2905 -0.7973
 2816TIP3   OH229862   4.332   3.068   3.061 -0.9792 -0.0480  0.6309
 2816TIP3    H129863   4.257   3.128   3.056  0.4929  1.8599  0.0560
 2816TIP3    H229864   4.298   2.991   3.107 -3.0587  1.0744  1.1250
 2817TIP3   OH229865   6.521   4.812  13.932 -0.4753 -0.6011 -0.2512
 2817TIP3    H129866   6.484   4.873  13.868  2.4467 -0.4380 -1.9271
 2817TIP3    H229867   6.570   4.867  13.992 -2.9932 -0.7789  2.1575
 2818TIP3   OH229868   0.214   4.476  11.841  0.0181  0.5497  0.1816
 2818TIP3    H129869   0.270   4.465  11.918 -1.1954  2.6329  1.4745
 2818TIP3    H229870   0.149   4.406  11.848  0.3935  0.2443  0.6374
 2819TIP3   OH229871   2.680   6.487  13.931  0.6417  0.1840 -0.6678
 2819TIP3    H129872   2.732   6.444  13.998 -3.1640 -2.1090  1.1939
 2819TIP3    H229873   2.656   6.571  13.969  1.7165  0.6184 -0.9248
 2820TIP3   OH229874   6.319   5.579   2.159  0.2797 -0.2951  0.3876
 2820TIP3    H129875   6.235   5.590   2.205 -0.8485  3.6625 -2.1040
 2820TIP3    H229876   6.381   5.630   2.210  0.1854  0.1087  0.1013
 2821TIP3   OH229877   6.028   3.302  10.888 -0.3547 -0.1748 -0.2769
 2821TIP3    H129878   6.007   3.390  10.918 -1.3201 -0.0671 -1.2071
 2821TIP3    H229879   6.105   3.313  10.833  1.3342 -0.3519  1.9113
 2822TIP3   OH229880   6.734   3.004  16.738  0.0193  0.6805  0.7463
 2822TIP3    H129881   6.685   2.946  16.679  0.1897  0.4538  0.8225
 2822TIP3    H229882   6.711   3.092  16.710  2.3866  0.6458 -1.6651
 2823TIP3   OH229883   5.855   1.051   4.593  0.0519  0.1910 -0.1827
 2823TIP3    H129884   5.933   1.097   4.624  1.0915 -2.3349  1.2282
 2823TIP3    H229885   5.882   1.012   4.510  0.2644 -0.5522  0.2285
 2824TIP3   OH229886   4.700   5.700  16.692  0.2716  0.6560 -0.2011
 2824TIP3    H129887   4.754   5.635  16.647 -1.7972 -1.8564  0.6415
 2824TIP3    H229888   4.701   5.673  16.784 -2.1100  0.6264 -0.1111
 2825TIP3   OH229889   0.698   2.587   1.959  0.6146 -0.0554 -0.1016
 2825TIP3    H129890   0.781   2.608   1.917  3.1954 -1.6479  3.7718
 2825TIP3    H229891   0.686   2.656   2.024 -0.9573 -0.0840 -0.3167
 2826TIP3   OH229892   0.375   5.642   6.064  0.0755  0.4537 -0.1842
 2826TIP3    H129893   0.286   5.659   6.033 -0.0405  1.0095  0.4332
 2826TIP3    H229894   0.364   5.619   6.156  0.4614 -0.7168 -0.4222
 2827TIP3   OH229895   5.631   0.129   3.949  0.3458  0.0313 -0.0370
 2827TIP3    H129896   5.595   0.047   3.914 -0.4363  0.6638 -0.7558
 2827TIP3    H229897   5.720   0.106   3.974 -0.0402 -1.1815  0.3053
 2828TIP3   OH229898   4.083   4.442  14.129 -0.1084  0.0697 -0.6786
 2828TIP3    H129899   4.028   4.496  14.073 -0.0074  0.9722  0.0629
 2828TIP3    H229900   4.151   4.502  14.162 -0.7967 -0.1367  1.2593
 2829TIP3   OH229901   0.888   2.450   3.166 -0.4457 -0.3044 -0.1384
 2829TIP3    H129902   0.814   2.389   3.172 -0.2736 -0.4521  0.5061
 2829TIP3    H229903   0.850   2.536   3.184 -0.3075 -0.4898  1.1281
 2830TIP3   OH229904   1.147   5.000   5.337 -0.0640 -0.0292  0.1954
 2830TIP3    H129905   1.135   4.906   5.339  0.2649 -0.1098  3.3152
 2830TIP3    H229906   1.072   5.035   5.384  1.4906  0.9410  2.1122
 2831TIP3   OH229907   3.078   1.494   2.880 -0.2336 -0.0650 -0.0477
 2831TIP3    H129908   3.065   1.575   2.831 -0.0944  0.3588  0.6013
 2831TIP3    H229909   3.171   1.495   2.903 -0.3629 -0.1189  0.4728
 2832TIP3   OH229910   0.548   3.304   1.769  0.2102 -0.1725 -1.3891
 2832TIP3    H129911   0.617   3.245   1.800  0.4163  0.3628 -0.7973
 2832TIP3    H229912   0.592   3.362   1.707  0.5153  0.7069 -0.3962
 2833TIP3   OH229913   1.800   3.035   4.965  0.6728  0.0924 -0.2393
 2833TIP3    H129914   1.802   2.964   5.029  1.1318  0.3087 -0.0084
 2833TIP3    H229915   1.823   2.993   4.882 -0.9424 -0.3880 -0.4745
 2834TIP3   OH229916   1.373   2.899  14.010 -0.2824  0.6748 -0.9639
 2834TIP3    H129917   1.317   2.848  14.068  1.7461  0.3495  0.8329
 2834TIP3    H229918   1.324   2.980  13.994 -1.0554  0.6246  0.9479
 2835TIP3   OH229919   1.755   4.671   4.486  0.3007 -0.2149 -0.1745
 2835TIP3    H129920   1.751   4.705   4.576  3.2388 -1.1420  0.4164
 2835TIP3    H229921   1.800   4.740   4.437  0.3295 -0.4708 -0.5123
 2836TIP3   OH229922   5.473   2.697  12.882  0.8626 -0.2682 -0.0267
 2836TIP3    H129923   5.565   2.723  12.886  0.7911 -0.2022  1.9644
 2836TIP3    H229924   5.466   2.625  12.944  0.1033 -2.1580 -2.1634
 2837TIP3   OH229925   1.874   2.982   3.761  0.9294  0.5640  0.4622
 2837TIP3    H129926   1.838   3.034   3.833  2.0365  3.0492 -0.6476
 2837TIP3    H229927   1.969   2.997   3.766  1.2858 -1.2657 -0.0325
 2838TIP3   OH229928   6.163   4.164   3.165 -0.2175 -0.7756  0.4548
 2838TIP3    H129929   6.112   4.084   3.155 -0.5399 -0.5001 -0.1425
 2838TIP3    H229930   6.186   4.189   3.076  1.3825 -1.1552  0.7325
 2839TIP3   OH229931   3.243   3.110  12.189  0.1689  0.6615 -0.3599
 2839TIP3    H129932   3.327   3.072  12.161 -0.1944 -1.4546  1.1962
 2839TIP3    H229933   3.266   3.197  12.222  1.5038  0.7126 -1.3307
 2840TIP3   OH229934   4.831   4.108   4.475 -0.0298 -0.2606 -0.4101
 2840TIP3    H129935   4.874   4.038   4.426  1.6628 -2.3433  3.5537
 2840TIP3    H229936   4.738   4.091   4.463  0.3325 -2.0432 -1.0723
 2841TIP3   OH229937   4.660   5.713  11.872  0.4419 -0.2524  0.0881
 2841TIP3    H129938   4.653   5.807  11.885  1.5167 -0.1174 -0.1929
 2841TIP3    H229939   4.615   5.695  11.790  0.9112  0.1405 -0.2596
 2842TIP3   OH229940   5.085   5.101  13.386  0.3649 -0.0906  0.2716
 2842TIP3    H129941   5.087   5.045  13.308 -0.7801  1.2205 -0.7294
 2842TIP3    H229942   5.104   5.041  13.458 -1.9493 -2.0460 -0.6085
 2843TIP3   OH229943   6.763   1.768  14.127 -0.1243 -0.0053  0.2861
 2843TIP3    H129944   6.682   1.718  14.136 -0.4125  0.5090  0.6203
 2843TIP3    H229945   6.798   1.772  14.216 -0.9355  1.7384  0.5715
 2844TIP3   OH229946   4.879   2.763   1.672 -0.2049  0.6437 -0.2324
 2844TIP3    H129947   4.937   2.816   1.618 -1.5279  2.6912  0.2714
 2844TIP3    H229948   4.925   2.755   1.756  1.7485 -2.3574 -1.3993
 2845TIP3   OH229949   2.291   3.066  16.666 -0.7541 -0.4102 -0.6641
 2845TIP3    H129950   2.286   2.997  16.599  1.9741 -1.7125  0.3323
 2845TIP3    H229951   2.383   3.069  16.691 -1.6719 -0.3738  3.4055
 2846TIP3   OH229952   6.138   0.423  11.837 -0.1040  0.5286  0.0685
 2846TIP3    H129953   6.074   0.479  11.879 -0.1509  1.9913 -1.7978
 2846TIP3    H229954   6.222   0.454  11.870 -0.2594 -1.2091  2.3043
 2847TIP3   OH229955   4.173   1.077   2.445  0.2411  0.0306 -1.0081
 2847TIP3    H129956   4.092   1.035   2.417 -0.6902  1.1939 -0.1870
 2847TIP3    H229957   4.164   1.084   2.540  1.2737  0.2623 -0.9191
 2848TIP3   OH229958   5.999   5.061  14.165  0.5015  0.4049 -0.0241
 2848TIP3    H129959   6.074   5.049  14.107  0.1622 -1.1823 -0.1657
 2848TIP3    H229960   6.036   5.054  14.253  0.5986  0.0845 -0.0880
 2849TIP3   OH229961   5.107   5.960  14.575  0.1570 -0.5326 -0.1233
 2849TIP3    H129962   5.104   5.911  14.493 -0.7891 -1.1934  0.2926
 2849TIP3    H229963   5.069   6.045  14.553 -1.2317 -1.1204 -0.1186
 2850TIP3   OH229964   5.219   1.254   4.285 -0.2881  0.0626  0.2905
 2850TIP3    H129965   5.145   1.266   4.345  0.8131  1.1402  1.4934
 2850TIP3    H229966   5.266   1.337   4.287  0.8232 -0.5142 -0.6432
 2851TIP3   OH229967   4.503   6.536   5.028 -0.4295  0.0995  0.1986
 2851TIP3    H129968   4.580   6.593   5.024  1.1801 -1.9671  0.2847
 2851TIP3    H229969   4.467   6.540   4.939  0.3855  0.3257 -0.1377
 2852TIP3   OH229970   3.431   5.395   2.673 -0.1947 -0.2447 -0.3640
 2852TIP3    H129971   3.359   5.413   2.734  0.1486 -1.0612  0.3017
 2852TIP3    H229972   3.474   5.318   2.709  0.5605 -0.2148 -1.1711
 2853TIP3   OH229973   0.310   6.189  16.368 -0.5924  0.2504 -0.6433
 2853TIP3    H129974   0.381   6.241  16.406 -1.1090  1.6334 -1.4770
 2853TIP3    H229975   0.345   6.100  16.363  0.8749  0.7915 -0.5252
 2854TIP3   OH229976   4.619   5.681  16.237 -0.5050 -0.1553  0.1660
 2854TIP3    H129977   4.591   5.772  16.243  0.5727  0.2527 -0.6637
 2854TIP3    H229978   4.710   5.682  16.267 -0.2490 -0.8238 -0.5543
 2855TIP3   OH229979   2.600   2.543  11.790  0.5300 -0.1984 -0.0454
 2855TIP3    H129980   2.642   2.625  11.763  1.0168 -0.8478 -1.3989
 2855TIP3    H229981   2.613   2.485  11.715  0.3101 -1.5516  0.9357
 2856TIP3   OH229982   5.013   6.143   4.548 -0.2526 -0.3020  0.1200
 2856TIP3    H129983   4.971   6.188   4.475 -0.0864  0.4127  0.4574
 2856TIP3    H229984   5.094   6.193   4.563 -0.7169  0.1041  1.3639
 2857TIP3   OH229985   4.594   2.274   1.036  0.2605  0.1506  0.2667
 2857TIP3    H129986   4.624   2.184   1.021 -0.3878 -0.0331  0.0468
 2857TIP3    H229987   4.633   2.299   1.120  0.7490 -0.2002  0.1469
 2858TIP3   OH229988   5.188   6.622  16.761  0.2235  0.3285  0.6522
 2858TIP3    H129989   5.164   6.651  16.850 -0.0884  0.1213  0.6342
 2858TIP3    H229990   5.212   6.703  16.716 -1.9885  0.7645  0.1785
 2859TIP3   OH229991   1.028   4.505  16.600 -0.4935 -0.0316  0.1568
 2859TIP3    H129992   0.990   4.432  16.551 -1.2523 -0.0040  0.6960
 2859TIP3    H229993   1.118   4.511  16.567 -1.4686  1.1361 -2.5595
 2860TIP3   OH229994   0.775   2.661  12.936 -0.4219 -1.1015  0.3952
 2860TIP3    H129995   0.686   2.625  12.943 -0.8306 -0.4848 -1.1968
 2860TIP3    H229996   0.814   2.616  12.862 -0.2768  0.3302 -0.4318
 2861TIP3   OH229997   4.595   5.049   5.740  0.0319 -0.3841  0.1571
 2861TIP3    H129998   4.532   5.032   5.810 -1.9241 -1.0734 -1.6448
 2861TIP3    H229999   4.645   4.967   5.732  1.4297  0.2555  1.7695
 2862TIP3   OH230000   4.108   0.545  15.217 -0.1378 -0.2447  0.1503
 2862TIP3    H130001   4.039   0.588  15.166  1.5212  0.5562 -1.5659
 2862TIP3    H230002   4.068   0.529  15.302 -2.0548  1.2731 -0.3768
 2863TIP3   OH230003   4.123   4.348  11.875 -0.6251 -0.6213 -0.4217
 2863TIP3    H130004   4.087   4.351  11.963 -0.3761 -2.0300 -0.2468
 2863TIP3    H230005   4.152   4.437  11.857 -2.9444  0.2500 -0.0509
 2864TIP3   OH230006   6.798   4.627   4.603  0.1019  0.6259  0.3606
 2864TIP3    H130007   6.738   4.645   4.530 -0.5802  2.0370  1.2406
 2864TIP3    H230008   6.741   4.622   4.680  0.7113 -1.6514  0.7403
 2865TIP3   OH230009   3.213   6.267   4.121  0.4829 -0.0624 -0.1774
 2865TIP3    H130010   3.270   6.191   4.136  0.3468  0.0632  1.0958
 2865TIP3    H230011   3.141   6.255   4.183  0.2326  0.8796 -0.2770
 2866TIP3   OH230012   6.727   1.981  14.461 -0.2525  0.3143  0.2678
 2866TIP3    H130013   6.655   2.043  14.472 -0.3718  0.5581 -1.5091
 2866TIP3    H230014   6.800   2.020  14.509 -1.0950  0.3917  1.5344
 2867TIP3   OH230015   4.632   2.252  12.938 -0.1704 -0.0847 -0.1769
 2867TIP3    H130016   4.552   2.303  12.949 -0.7332 -0.9381 -0.2446
 2867TIP3    H230017   4.668   2.246  13.027 -0.4062 -0.0541 -0.0782
 2868TIP3   OH230018   3.014   3.494  16.667 -0.6304  0.4749 -0.0218
 2868TIP3    H130019   2.986   3.456  16.751 -1.8374 -0.1646 -0.6964
 2868TIP3    H230020   3.002   3.589  16.679 -0.9660  0.3738  0.4705
 2869TIP3   OH230021   6.113   2.342   0.767 -0.5704 -0.4001 -0.4603
 2869TIP3    H130022   6.144   2.278   0.831 -1.9208 -0.8306 -0.2194
 2869TIP3    H230023   6.021   2.320   0.753 -1.0674  1.4542 -0.3842
 2870TIP3   OH230024   6.415   5.768   4.422  0.2447 -0.7400  0.1404
 2870TIP3    H130025   6.501   5.727   4.437 -0.0308 -1.7737 -0.9619
 2870TIP3    H230026   6.385   5.792   4.509  1.3002 -1.1074  0.6261
 2871TIP3   OH230027   2.842   1.492  10.971  0.3963  0.2809  0.2478
 2871TIP3    H130028   2.892   1.413  10.993 -0.6851 -0.1450  1.3218
 2871TIP3    H230029   2.879   1.521  10.887 -0.6692 -2.6978 -1.4327
 2872TIP3   OH230030   6.633   6.173   1.600  0.0845  0.2567  0.2235
 2872TIP3    H130031   6.584   6.255   1.609 -0.4405 -0.2290  2.0802
 2872TIP3    H230032   6.708   6.184   1.659 -0.2877 -0.8003  0.9131
 2873TIP3   OH230033   6.097   5.835  13.672  0.0838  0.4585 -0.2502
 2873TIP3    H130034   6.058   5.910  13.628 -0.7579  0.6116  0.7110
 2873TIP3    H230035   6.022   5.785  13.705  0.5574 -1.5913 -2.0873
 2874TIP3   OH230036   2.203   3.239   3.482 -0.1701 -0.1658 -0.0209
 2874TIP3    H130037   2.273   3.300   3.507 -2.7293  2.2617  1.9339
 2874TIP3    H230038   2.166   3.210   3.565 -3.0934  0.7296 -0.8886
 2875TIP3   OH230039   6.527   1.523  17.076 -0.1721  0.3561 -0.7593
 2875TIP3    H130040   6.608   1.555  17.036 -0.7779 -0.1404 -2.4441
 2875TIP3    H230041   6.458   1.547  17.014 -1.0483 -1.2613 -0.4611
 2876TIP3   OH230042   1.783   1.700   6.058 -0.2432  0.0122 -0.2539
 2876TIP3    H130043   1.727   1.623   6.065  0.0239 -0.1811 -0.2176
 2876TIP3    H230044   1.798   1.727   6.149 -0.6130  0.3097 -0.2802
 2877TIP3   OH230045   4.516   5.485   0.248  0.2409  0.1498  0.4120
 2877TIP3    H130046   4.460   5.407   0.247  1.4422 -0.7616  0.8522
 2877TIP3    H230047   4.468   5.548   0.301 -1.5201  0.3468 -1.2857
 2878TIP3   OH230048   0.110   0.765   1.018  0.4115  0.0830  0.2869
 2878TIP3    H130049   0.121   0.771   0.923 -1.4772  1.2350  0.0896
 2878TIP3    H230050   0.196   0.790   1.054  0.7828  0.9264 -1.1060
 2879TIP3   OH230051   0.018   5.478  15.438 -0.2722  0.0433  0.1489
 2879TIP3    H130052   0.059   5.394  15.417 -1.5174 -0.3276 -0.9364
 2879TIP3    H230053  -0.054   5.456  15.497 -0.8486  0.2701 -0.4454
 2880TIP3   OH230054   0.216   0.197   0.434  0.3733 -0.0693  0.2661
 2880TIP3    H130055   0.139   0.142   0.448  2.5963 -3.0194  2.2489
 2880TIP3    H230056   0.185   0.286   0.449 -2.1297 -1.3361  4.2142
 2881TIP3   OH230057   2.203   5.278  11.591  0.3886  0.3962 -0.5890
 2881TIP3    H130058   2.115   5.297  11.623  0.7310  1.0701 -0.0303
 2881TIP3    H230059   2.258   5.348  11.628  1.1622 -0.0388 -0.8963
 2882TIP3   OH230060   1.929   1.768  13.313 -0.2129 -0.2786  0.2950
 2882TIP3    H130061   1.981   1.793  13.390  0.4239  0.7310 -0.4354
 2882TIP3    H230062   1.940   1.673  13.307 -0.9552 -0.5074  1.9148
 2883TIP3   OH230063   5.158   3.491  14.927 -0.2586  0.6411  0.4995
 2883TIP3    H130064   5.147   3.398  14.909 -1.2511  0.8810 -0.1878
 2883TIP3    H230065   5.168   3.496  15.022 -2.9896  0.0641  0.8823
 2884TIP3   OH230066   3.024   4.184  12.332  0.4924 -0.7739 -0.4649
 2884TIP3    H130067   2.954   4.241  12.299 -1.2716 -1.0815  2.3488
 2884TIP3    H230068   2.999   4.096  12.304  0.6194 -0.6926 -0.8273
 2885TIP3   OH230069   6.461   0.447   4.456  0.1368  0.3112  0.5509
 2885TIP3    H130070   6.479   0.401   4.374 -1.0005  0.1032  0.4031
 2885TIP3    H230071   6.512   0.528   4.449  3.0656 -1.3294  1.2980
 2886TIP3   OH230072   6.703   0.787  13.184  0.4450  0.7324 -0.1698
 2886TIP3    H130073   6.686   0.698  13.155  0.7990  0.3523  0.7622
 2886TIP3    H230074   6.778   0.816  13.131  1.0654  0.0591  0.3188
 2887TIP3   OH230075   3.848   4.469  10.882 -0.5653  0.4022 -0.6264
 2887TIP3    H130076   3.823   4.381  10.852 -1.9718  0.2192  0.9598
 2887TIP3    H230077   3.927   4.490  10.831 -1.3798 -0.9017 -2.5659
 2888TIP3   OH230078   2.257   0.549   7.071  0.0029  0.5269  0.0158
 2888TIP3    H130079   2.202   0.611   7.022  0.8596  0.3551 -1.1931
 2888TIP3    H230080   2.290   0.488   7.005  2.6993  1.3751  0.4613
 2889TIP3   OH230081   0.993   0.243  11.706 -0.2370  0.1085  0.3827
 2889TIP3    H130082   0.903   0.217  11.690 -0.2157  0.1654  0.1677
 2889TIP3    H230083   0.986   0.316  11.769 -0.4329  1.0551 -0.6978
 2890TIP3   OH230084   5.665   3.644  14.319 -0.4155  1.1496  0.1480
 2890TIP3    H130085   5.739   3.665  14.374  1.6047  1.2761 -2.4425
 2890TIP3    H230086   5.665   3.711  14.251 -0.7805 -0.7209 -1.8123
 2891TIP3   OH230087   5.132   4.236  11.878 -0.0052  0.1744 -0.1329
 2891TIP3    H130088   5.211   4.220  11.826  0.8890  0.5488  1.0745
 2891TIP3    H230089   5.130   4.164  11.942  0.2479  1.0225  0.8596
 2892TIP3   OH230090   3.752   2.126   2.196 -0.2071  0.1745 -0.1534
 2892TIP3    H130091   3.824   2.073   2.231 -0.7255 -0.7483 -0.4560
 2892TIP3    H230092   3.712   2.165   2.273  1.0149  1.2573 -0.0181
 2893TIP3   OH230093   2.096   2.431   2.463  0.6884  0.3688 -0.5272
 2893TIP3    H130094   2.011   2.389   2.475  0.4798  1.2748  1.6093
 2893TIP3    H230095   2.077   2.525   2.467  1.8806  0.5828  1.1296
 2894TIP3   OH230096   2.681   0.486  10.830 -0.2629 -0.4518  0.3170
 2894TIP3    H130097   2.757   0.517  10.878  0.2817 -0.0214 -0.7828
 2894TIP3    H230098   2.636   0.566  10.801 -1.5175 -0.6936  1.5197
 2895TIP3   OH230099   1.329   1.433   1.591 -0.0105  0.3817 -0.1798
 2895TIP3    H130100   1.372   1.458   1.509  0.9215 -0.9266 -0.1250
 2895TIP3    H230101   1.256   1.494   1.600  2.2222  3.1993  0.0872
 2896TIP3   OH230102   1.531   5.036  14.937  0.3363 -0.3878  0.0281
 2896TIP3    H130103   1.576   5.045  14.853  1.2051  0.8785  0.5900
 2896TIP3    H230104   1.486   5.120  14.949  1.1665 -0.1031  1.3483
 2897TIP3   OH230105   4.549   2.696  14.319  0.1023 -0.0289  0.1931
 2897TIP3    H130106   4.640   2.673  14.333 -0.1699 -1.3276 -0.0028
 2897TIP3    H230107   4.509   2.616  14.284 -1.0870  0.5371  0.1929
 2898TIP3   OH230108   2.723   6.295  10.829 -0.2495 -0.4933 -0.4408
 2898TIP3    H130109   2.814   6.263  10.827  0.1852  0.1593  2.8438
 2898TIP3    H230110   2.728   6.384  10.795  0.1013 -0.8717 -1.4156
 2899TIP3   OH230111   4.387   5.010   4.566  0.0629  0.2531 -0.9449
 2899TIP3    H130112   4.322   4.971   4.508  1.2647 -0.1914 -2.0280
 2899TIP3    H230113   4.454   5.046   4.508  1.3500 -0.2758  0.1383
 2900TIP3   OH230114   3.636   1.315   1.594  0.2406  0.1520 -0.4649
 2900TIP3    H130115   3.639   1.319   1.690 -1.5828 -0.5461 -0.3403
 2900TIP3    H230116   3.728   1.312   1.568  0.8236  1.8042  1.1711
 2901TIP3   OH230117   6.765   3.668   2.884  0.6641  0.3488  0.1292
 2901TIP3    H130118   6.724   3.682   2.799  1.7366 -1.2182 -0.6835
 2901TIP3    H230119   6.834   3.733   2.889 -0.3877  1.4699  0.5036
 2902TIP3   OH230120   3.940   4.913   0.653  0.2306  0.6779  0.2909
 2902TIP3    H130121   3.971   4.868   0.732 -1.1601  1.7548  1.5235
 2902TIP3    H230122   4.018   4.956   0.617  1.4677 -2.0839 -0.5782
 2903TIP3   OH230123   2.965   5.384  10.296  0.0750  0.1864 -0.1287
 2903TIP3    H130124   2.875   5.399  10.324  0.2447  0.0042  0.5330
 2903TIP3    H230125   2.984   5.294  10.323  0.2815  0.0400 -0.7445
 2904TIP3   OH230126   2.552   1.598  12.310 -0.5381 -0.0611  0.0574
 2904TIP3    H130127   2.560   1.563  12.221  2.4030  1.8092 -0.5588
 2904TIP3    H230128   2.604   1.538  12.364 -1.1435 -0.4039  0.2636
 2905TIP3   OH230129   4.431   5.745  16.585  0.1105 -0.1158  0.0677
 2905TIP3    H130130   4.423   5.689  16.508  3.8059 -0.9637  0.1088
 2905TIP3    H230131   4.525   5.749  16.603 -0.2275  3.4447  2.1077
 2906TIP3   OH230132   3.958   1.654  13.191  0.2772 -0.2526  0.6360
 2906TIP3    H130133   4.006   1.572  13.179 -0.3973 -0.8400  1.8458
 2906TIP3    H230134   3.866   1.630  13.183  0.0996  0.6319 -0.2608
 2907TIP3   OH230135   1.877   3.513  14.938  0.1411 -0.2181  0.1838
 2907TIP3    H130136   1.951   3.574  14.932  0.4197 -0.3581  1.8118
 2907TIP3    H230137   1.918   3.426  14.937 -0.0116 -0.2996  0.8628
 2908TIP3   OH230138   5.649   5.014  14.518  0.2769  0.0692  0.0376
 2908TIP3    H130139   5.653   5.088  14.579  0.6083  0.7018 -0.7308
 2908TIP3    H230140   5.648   4.937  14.575 -2.1922  0.6548  0.9524
 2909TIP3   OH230141   3.760   3.470   0.227  0.0655 -0.1741  0.4197
 2909TIP3    H130142   3.684   3.463   0.168 -1.2444  0.1069  2.0080
 2909TIP3    H230143   3.759   3.387   0.276 -0.4869  0.6742  1.8920
 2910TIP3   OH230144   4.367   0.834   5.265  0.0141  0.4594  0.6940
 2910TIP3    H130145   4.275   0.824   5.287 -0.2501  0.0645 -0.5342
 2910TIP3    H230146   4.375   0.797   5.177  1.9616 -2.7618  2.0393
 2911TIP3   OH230147   2.944   1.462  14.663  0.5038  0.3122 -0.0732
 2911TIP3    H130148   2.867   1.424  14.620  0.9206 -1.6707  0.8388
 2911TIP3    H230149   2.913   1.546  14.698 -1.7619 -1.1176  1.6429
 2912TIP3   OH230150   3.136   3.132   2.228  0.0403  0.0742  0.4981
 2912TIP3    H130151   3.230   3.149   2.238 -0.0830  1.4034 -0.4851
 2912TIP3    H230152   3.132   3.044   2.189  0.7651 -1.1119  2.8914
 2913TIP3   OH230153   1.544   5.107   0.214 -0.4536  0.6070  0.2321
 2913TIP3    H130154   1.618   5.127   0.157  0.3884 -1.2071  0.6309
 2913TIP3    H230155   1.471   5.093   0.153 -0.4991  2.3265 -0.1643
 2914TIP3   OH230156   5.556   0.924   3.037  0.6839 -0.2824 -0.4271
 2914TIP3    H130157   5.526   0.980   2.965 -0.0730 -0.1078  0.0145
 2914TIP3    H230158   5.498   0.848   3.035  1.5339 -0.9417 -0.8524
 2915TIP3   OH230159   1.171   6.367  11.925 -0.2154 -0.4040 -0.3847
 2915TIP3    H130160   1.191   6.389  11.834 -1.3067 -1.9446 -1.0236
 2915TIP3    H230161   1.081   6.335  11.924  0.1307 -1.5584  1.0327
 2916TIP3   OH230162   1.386   0.754  16.758  0.1067  0.7697  0.0513
 2916TIP3    H130163   1.353   0.743  16.668 -2.9150  0.3623  1.1190
 2916TIP3    H230164   1.398   0.848  16.769 -0.6736  0.9208 -0.3883
 2917TIP3   OH230165   1.854   2.807  11.995 -0.5934  0.1296 -0.0693
 2917TIP3    H130166   1.811   2.861  11.929 -0.3451 -0.0444 -0.3755
 2917TIP3    H230167   1.947   2.822  11.981 -0.5047 -0.7460 -0.4737
 2918TIP3   OH230168   1.980   0.911  15.114 -0.0639  0.0438 -0.0757
 2918TIP3    H130169   1.896   0.873  15.088  0.2304 -0.6740  0.0076
 2918TIP3    H230170   2.045   0.847  15.087  0.4163  0.3198  0.4097
 2919TIP3   OH230171   0.420   0.964   5.825  0.7543  0.4217  0.0715
 2919TIP3    H130172   0.358   0.892   5.835 -1.1691  2.0274  0.2900
 2919TIP3    H230173   0.504   0.927   5.852  0.0425 -1.9854 -0.7496
 2920TIP3   OH230174   5.572   6.607   4.986  0.0685  0.1401 -0.0397
 2920TIP3    H130175   5.544   6.647   5.068 -0.1979  1.0284 -0.5502
 2920TIP3    H230176   5.578   6.514   5.006 -0.7859  0.2413  0.7722
 2921TIP3   OH230177   2.136   1.184  13.447  0.2427  0.3449  0.1544
 2921TIP3    H130178   2.061   1.235  13.476  0.6882  1.1641 -0.1011
 2921TIP3    H230179   2.199   1.249  13.415  0.3506 -0.4295 -1.2859
 2922TIP3   OH230180   4.862   3.088  11.314 -0.1923 -0.4053  0.7166
 2922TIP3    H130181   4.889   3.046  11.233  0.7581  0.8850  0.3459
 2922TIP3    H230182   4.821   3.017  11.365 -1.3598 -1.1093 -1.1030
 2923TIP3   OH230183   2.701   4.742   2.979 -0.0068 -0.4149  0.6627
 2923TIP3    H130184   2.750   4.756   3.059 -0.1772 -2.0187  1.0797
 2923TIP3    H230185   2.610   4.756   3.004  0.0693  1.0033  0.2570
 2924TIP3   OH230186   0.836   0.196  12.544 -0.4153 -0.0607 -0.3823
 2924TIP3    H130187   0.783   0.185  12.623  0.2963  1.1068  0.2823
 2924TIP3    H230188   0.834   0.290  12.527  1.9796  0.1359  0.0747
 2925TIP3   OH230189   1.641   1.854  11.083  0.4198 -0.2789 -0.1523
 2925TIP3    H130190   1.656   1.889  11.171  2.2582 -2.0720  0.3238
 2925TIP3    H230191   1.693   1.910  11.026  0.0652  0.2447  0.0275
 2926TIP3   OH230192   1.062   5.485   3.200  0.5086 -0.5662  0.6626
 2926TIP3    H130193   1.108   5.451   3.123 -0.9075 -1.2599  0.0889
 2926TIP3    H230194   1.056   5.411   3.259 -1.6563 -1.0795 -0.1437
 2927TIP3   OH230195   2.196   1.134   0.306  0.1495 -0.0388 -0.7153
 2927TIP3    H130196   2.206   1.212   0.251  0.9902 -0.5290 -1.2859
 2927TIP3    H230197   2.210   1.166   0.395 -0.7658  0.6822 -0.8117
 2928TIP3   OH230198   2.424   1.930   6.798 -0.3780 -0.5578 -0.0231
 2928TIP3    H130199   2.445   2.004   6.742  1.4817 -2.1667 -1.6287
 2928TIP3    H230200   2.349   1.888   6.757 -1.5098  0.4322  0.9549
 2929TIP3   OH230201   2.902   5.298   2.691 -0.4535  0.4900 -0.3151
 2929TIP3    H130202   2.830   5.358   2.677 -1.2907 -0.5124 -0.4014
 2929TIP3    H230203   2.957   5.341   2.757  1.0558  3.1088 -3.0419
 2930TIP3   OH230204   6.029   0.356   0.988  0.2922  0.5505  0.0620
 2930TIP3    H130205   6.067   0.323   1.069  1.3627  0.3516 -0.5081
 2930TIP3    H230206   5.987   0.279   0.949  2.4193 -0.1231 -1.0545
 2931TIP3   OH230207   0.054   2.202   1.908  0.4244 -0.2258  0.0478
 2931TIP3    H130208   0.101   2.129   1.948 -1.7277 -1.4652  0.4652
 2931TIP3    H230209   0.037   2.173   1.818  1.7269  0.8625 -0.5851
 2932TIP3   OH230210   2.639   3.025  13.551  0.2413 -0.6414  0.0408
 2932TIP3    H130211   2.702   3.035  13.479 -1.1935 -0.1246 -1.1884
 2932TIP3    H230212   2.595   3.110  13.557 -1.2162 -1.3601  0.0138
 2933TIP3   OH230213   1.473   4.446   3.178  0.4663 -0.0599  0.7611
 2933TIP3    H130214   1.492   4.357   3.207 -0.8059 -1.6253 -2.6111
 2933TIP3    H230215   1.546   4.468   3.120  0.5770  0.9816  1.2745
 2934TIP3   OH230216   3.828   0.868  11.079  0.4593  0.4924  0.2145
 2934TIP3    H130217   3.904   0.809  11.076 -0.1497 -0.3796  1.1629
 2934TIP3    H230218   3.781   0.850  10.998  0.9514  0.6085 -0.1010
 2935TIP3   OH230219   4.477   3.919  16.353  0.0249  0.0728 -0.4630
 2935TIP3    H130220   4.491   3.988  16.418  0.2303  0.7170 -1.1848
 2935TIP3    H230221   4.510   3.955  16.271  0.1214 -0.8786 -0.8622
 2936TIP3   OH230222   4.248   6.461  11.563  0.4510  0.1802  0.6366
 2936TIP3    H130223   4.293   6.527  11.511 -0.3632  1.6904  1.7468
 2936TIP3    H230224   4.168   6.505  11.593  0.4991 -0.8882  2.4745
 2937TIP3   OH230225   1.843   0.128   1.010 -0.2120 -0.2235  0.5711
 2937TIP3    H130226   1.857   0.117   1.103  0.1507 -1.1138  0.4181
 2937TIP3    H230227   1.906   0.196   0.984 -0.2785 -0.0126  0.9632
 2938TIP3   OH230228   5.172   6.064   4.116  0.0870 -0.2011  0.1592
 2938TIP3    H130229   5.179   5.984   4.167 -0.1636 -1.2778 -1.4052
 2938TIP3    H230230   5.137   6.035   4.031  1.5727  1.3013 -1.0434
 2939TIP3   OH230231   3.393   6.780   1.614  0.0456  0.2891  0.3894
 2939TIP3    H130232   3.390   6.729   1.695 -2.5546  0.9416  0.8160
 2939TIP3    H230233   3.366   6.868   1.641 -0.0293  0.7290 -1.0624
 2940TIP3   OH230234   4.370   5.384   4.596 -0.2207 -0.1779 -0.1063
 2940TIP3    H130235   4.446   5.347   4.642 -1.2246 -0.8776  1.0770
 2940TIP3    H230236   4.307   5.311   4.593 -0.0250 -0.3344 -3.1430
 2941TIP3   OH230237   2.195   2.049   3.064 -0.3695  0.1399  0.5175
 2941TIP3    H130238   2.272   2.094   3.097 -0.4290  0.5054  0.1707
 2941TIP3    H230239   2.174   1.983   3.131 -0.7315  1.1188  1.3818
 2942TIP3   OH230240   6.610   4.889  14.190 -0.0695  0.6063  0.2368
 2942TIP3    H130241   6.557   4.968  14.199 -1.7427 -0.4005 -0.3321
 2942TIP3    H230242   6.586   4.835  14.266  0.5318  0.3473  0.2484
 2943TIP3   OH230243   2.486   1.473  10.512 -0.4007 -0.3687 -0.0707
 2943TIP3    H130244   2.435   1.396  10.487  0.2514 -0.4926 -1.0648
 2943TIP3    H230245   2.423   1.532  10.553 -1.3134 -0.5706 -1.1471
 2944TIP3   OH230246   4.551   5.945  16.887  0.0903  0.5763 -0.5655
 2944TIP3    H130247   4.595   5.877  16.938 -0.4120 -0.5109 -1.5205
 2944TIP3    H230248   4.593   6.027  16.914 -1.4642  0.3644  3.0197
 2945TIP3   OH230249   6.004   3.563  11.136 -0.1268  0.3356  0.2468
 2945TIP3    H130250   6.071   3.497  11.156  1.4311  1.8302  0.2122
 2945TIP3    H230251   5.935   3.514  11.092  0.5925 -1.4088  0.9540
 2946TIP3   OH230252   5.978   0.052  12.880  0.5322  0.1455  0.1149
 2946TIP3    H130253   5.902   0.005  12.914 -0.2764 -0.5131 -2.4220
 2946TIP3    H230254   6.002   0.112  12.951 -1.4437 -0.6423  1.5426
 2947TIP3   OH230255   1.942   1.158   5.571 -0.2138  0.2898  0.3869
 2947TIP3    H130256   1.902   1.210   5.640 -0.0654 -1.0258  1.4957
 2947TIP3    H230257   2.006   1.103   5.616 -1.0444 -1.5512 -0.5857
 2948TIP3   OH230258   6.531   1.773   3.303  0.0102  0.2689  0.0897
 2948TIP3    H130259   6.528   1.685   3.343  1.7161  0.3398  0.4313
 2948TIP3    H230260   6.570   1.759   3.217 -0.1472  0.6340 -0.0422
 2949TIP3   OH230261   4.998   3.568  14.202 -0.2281 -0.2542 -0.8939
 2949TIP3    H130262   5.047   3.574  14.284  2.9931 -0.3526 -2.6620
 2949TIP3    H230263   4.967   3.657  14.185  0.1550  0.0132 -0.2095
 2950TIP3   OH230264   4.240   0.537   4.958  0.5438 -0.3444 -0.1371
 2950TIP3    H130265   4.235   0.441   4.949 -0.4500 -0.2068 -1.2821
 2950TIP3    H230266   4.153   0.562   4.989  1.3300  0.0496  1.9203
 2951TIP3   OH230267   4.216   3.875   1.938 -0.8275  0.0587  0.1565
 2951TIP3    H130268   4.258   3.958   1.962  2.2950 -1.4361  0.3377
 2951TIP3    H230269   4.152   3.899   1.871  0.3758  2.5472 -0.2135
 2952TIP3   OH230270   5.241   0.848   5.230 -0.0189  0.4928 -0.5820
 2952TIP3    H130271   5.310   0.874   5.291  1.3368  0.2208 -1.9337
 2952TIP3    H230272   5.161   0.887   5.265  0.1760 -1.7177  2.7317
 2953TIP3   OH230273   6.185   2.489  16.748 -0.5241  0.5948  0.3251
 2953TIP3    H130274   6.249   2.421  16.729 -3.0569 -1.4395 -1.6169
 2953TIP3    H230275   6.127   2.451  16.813 -0.5319  1.9453  1.1536
 2954TIP3   OH230276   4.186   5.965   1.988  0.0287 -0.0574  0.1480
 2954TIP3    H130277   4.091   5.976   1.976 -0.0081  0.6021  0.9452
 2954TIP3    H230278   4.215   5.921   1.909 -0.9790 -0.4380 -0.0263
 2955TIP3   OH230279   3.512   3.435  15.537  0.3889 -0.4624  0.1274
 2955TIP3    H130280   3.438   3.384  15.504  0.3540  1.1900 -2.6821
 2955TIP3    H230281   3.589   3.388  15.504  0.6616 -1.7171  2.3474
 2956TIP3   OH230282   0.255   1.679  15.599  0.2054  0.0143  0.1657
 2956TIP3    H130283   0.317   1.736  15.553 -0.8411  0.1800 -1.0902
 2956TIP3    H230284   0.194   1.651  15.531 -0.1949 -1.3907  1.0707
 2957TIP3   OH230285   0.435   5.138  15.169  0.4416 -0.7173  0.5529
 2957TIP3    H130286   0.379   5.213  15.154 -0.0575 -0.9535  1.1816
 2957TIP3    H230287   0.497   5.139  15.096 -0.3957 -0.4692 -0.1689
 2958TIP3   OH230288   3.874   2.912  12.273 -0.1609 -0.1145 -0.7343
 2958TIP3    H130289   3.961   2.931  12.308 -0.2943  1.8528 -1.3196
 2958TIP3    H230290   3.814   2.954  12.335 -0.6347 -0.4805 -0.9373
 2959TIP3   OH230291   4.873   3.794   3.502  0.5506 -0.5528 -0.4897
 2959TIP3    H130292   4.826   3.720   3.463  0.9652 -1.0625 -0.0341
 2959TIP3    H230293   4.950   3.804   3.447  1.8876 -2.1897  0.9589
 2960TIP3   OH230294   5.251   2.473   2.910  0.1757  0.4762  0.3983
 2960TIP3    H130295   5.208   2.559   2.915  0.2267  0.4840  0.7702
 2960TIP3    H230296   5.200   2.425   2.845 -0.8428  0.2471  1.3212
 2961TIP3   OH230297   5.263   4.730   5.235 -0.2626  0.8186 -0.3232
 2961TIP3    H130298   5.174   4.759   5.216 -1.5972 -1.4668  1.6952
 2961TIP3    H230299   5.258   4.696   5.325  2.1650 -1.1490 -0.8092
 2962TIP3   OH230300   2.850   5.214   5.952 -0.0733  0.2663 -0.0701
 2962TIP3    H130301   2.934   5.216   5.997  0.2126 -0.3535 -0.5661
 2962TIP3    H230302   2.789   5.178   6.017  0.3824 -0.8459 -0.2318
 2963TIP3   OH230303   4.070   0.441  11.513 -0.3610  0.2086 -0.0554
 2963TIP3    H130304   4.144   0.405  11.562  0.3651 -0.9081 -1.8814
 2963TIP3    H230305   4.085   0.535  11.513 -0.1248  0.1998  1.3946
 2964TIP3   OH230306   2.007   0.481  11.584 -0.1336 -0.3107  0.2327
 2964TIP3    H130307   1.994   0.489  11.490  1.5523 -1.3352 -0.1332
 2964TIP3    H230308   2.102   0.476  11.595 -0.3355 -1.4301  1.8576
 2965TIP3   OH230309   5.035   0.048   1.611 -0.6563  0.0459  0.1974
 2965TIP3    H130310   5.086   0.094   1.678  0.1645 -0.7077  0.0971
 2965TIP3    H230311   5.045  -0.045   1.632  0.5244 -0.2742 -1.6066
 2966TIP3   OH230312   3.129   0.326   0.784 -0.1789  0.1137  0.1734
 2966TIP3    H130313   3.161   0.291   0.701  2.3363  0.3499  0.9480
 2966TIP3    H230314   3.064   0.392   0.759 -1.5455 -1.7332 -1.4455
 2967TIP3   OH230315   6.684   4.166   1.570 -0.1065  0.0025 -0.2786
 2967TIP3    H130316   6.734   4.093   1.605 -1.0443 -1.1652 -1.2356
 2967TIP3    H230317   6.602   4.126   1.539 -0.8586  1.5399 -0.3868
 2968TIP3   OH230318   3.368   2.724   0.620  0.2449 -0.3712 -0.0246
 2968TIP3    H130319   3.440   2.662   0.631  0.2647 -0.3094  0.1954
 2968TIP3    H230320   3.365   2.741   0.526 -0.2784 -1.3220 -0.1934
 2969TIP3   OH230321   3.606   4.648   1.730 -0.4946 -0.0559 -0.7754
 2969TIP3    H130322   3.529   4.644   1.673 -0.5084  0.7023 -0.8288
 2969TIP3    H230323   3.680   4.659   1.670 -0.6353  2.1378 -0.6429
 2970TIP3   OH230324   6.763   0.529  13.880  0.5383  0.6878 -0.1235
 2970TIP3    H130325   6.792   0.443  13.850  0.8410 -0.3454  2.8299
 2970TIP3    H230326   6.669   0.529  13.865  0.6425  0.1696 -0.8410
 2971TIP3   OH230327   1.833   3.735   0.771  0.5952  0.1288 -0.6126
 2971TIP3    H130328   1.744   3.752   0.742  0.6628  1.4719 -0.1098
 2971TIP3    H230329   1.853   3.806   0.832  1.6067 -0.7886  0.1779
 2972TIP3   OH230330   0.938   5.883  11.132  0.2197  0.1892  0.6432
 2972TIP3    H130331   0.953   5.885  11.038 -0.1960  0.3347  0.5787
 2972TIP3    H230332   1.014   5.836  11.167 -0.5101 -1.5046  0.0529
 2973TIP3   OH230333   1.616   2.597   2.998  0.4825  0.2858  0.2981
 2973TIP3    H130334   1.642   2.628   3.085 -0.8037  0.8116  0.5212
 2973TIP3    H230335   1.592   2.505   3.011  0.3298  0.3532  0.5044
 2974TIP3   OH230336   6.239   0.647   4.376  0.1336 -0.2484  0.1434
 2974TIP3    H130337   6.316   0.644   4.320  0.4992  0.3152  0.6025
 2974TIP3    H230338   6.164   0.650   4.316  0.4741 -0.6994 -0.3026
 2975TIP3   OH230339   6.607   6.596  15.613  0.8704  0.2689  0.0847
 2975TIP3    H130340   6.514   6.571  15.607  1.4409 -1.7386 -3.0470
 2975TIP3    H230341   6.608   6.669  15.675 -2.4315 -1.1621  2.1251
 2976TIP3   OH230342   4.108   0.657   4.169  0.0448 -0.2321  0.5068
 2976TIP3    H130343   4.079   0.604   4.094 -0.3540  2.4797 -1.3835
 2976TIP3    H230344   4.204   0.650   4.166  0.2492  1.8962 -2.0434
 2977TIP3   OH230345   6.245   2.530  14.613 -0.1580 -0.5036 -0.4709
 2977TIP3    H130346   6.184   2.569  14.551  1.1739  0.0862 -1.4438
 2977TIP3    H230347   6.254   2.596  14.683 -0.2386 -0.3718 -0.5855
 2978TIP3   OH230348   0.149   6.171   2.619  0.1454 -0.2580 -0.3109
 2978TIP3    H130349   0.133   6.262   2.593 -0.5184 -0.8837 -2.3219
 2978TIP3    H230350   0.102   6.160   2.702  0.4316  1.2810  0.0794
 2979TIP3   OH230351   6.319   0.682  11.528 -0.1831  0.5500  0.2705
 2979TIP3    H130352   6.400   0.721  11.494  0.7836 -1.0503  0.6383
 2979TIP3    H230353   6.307   0.723  11.613 -0.5225  1.7886 -0.3493
 2980TIP3   OH230354   6.765   2.047   2.765  0.1371  0.1171 -0.4154
 2980TIP3    H130355   6.823   2.106   2.812 -1.5152  1.2209  0.3253
 2980TIP3    H230356   6.783   2.064   2.672 -1.3999  3.0322 -0.2795
 2981TIP3   OH230357   0.704   0.545   1.256 -0.1702 -0.2884 -0.2709
 2981TIP3    H130358   0.652   0.474   1.294  0.1202 -0.3762 -0.0317
 2981TIP3    H230359   0.642   0.616   1.242 -0.2181 -0.1394  0.6682
 2982TIP3   OH230360   0.591   0.784  13.123 -0.9357  0.6918  0.0403
 2982TIP3    H130361   0.560   0.746  13.041 -1.2826  2.8620 -0.9099
 2982TIP3    H230362   0.530   0.752  13.189 -1.4549 -0.0433 -0.7680
 2983TIP3   OH230363   2.947   5.798   5.055  0.3709  0.5170  0.0096
 2983TIP3    H130364   2.933   5.823   5.147  1.3970  1.4472 -0.0605
 2983TIP3    H230365   2.859   5.795   5.017 -0.0732  0.0318  1.0377
 2984TIP3   OH230366   6.408   6.387  14.178  0.0628  0.6600  0.0316
 2984TIP3    H130367   6.351   6.404  14.103 -0.0904  0.0262  0.0074
 2984TIP3    H230368   6.358   6.417  14.253 -0.7130 -0.7979  0.1140
 2985TIP3   OH230369   5.934   6.617   5.493 -0.1681  0.3110 -0.1802
 2985TIP3    H130370   5.967   6.689   5.547 -1.4887  1.3070 -0.6637
 2985TIP3    H230371   5.867   6.576   5.547 -0.5158  0.4314 -0.5195
 2986TIP3   OH230372   2.498   0.988  14.669 -0.3556 -0.4150 -0.4470
 2986TIP3    H130373   2.491   1.083  14.674  0.6970 -0.3302 -0.3460
 2986TIP3    H230374   2.412   0.959  14.639 -0.7827  0.5419 -0.1924
 2987TIP3   OH230375   5.132   6.193   1.272 -0.5117 -0.4072 -0.7179
 2987TIP3    H130376   5.177   6.159   1.195  1.7121  0.4624  0.1295
 2987TIP3    H230377   5.198   6.195   1.341 -1.8993  0.7600  0.6693
 2988TIP3   OH230378   3.303   2.858  11.001  0.1755 -0.7389 -0.6164
 2988TIP3    H130379   3.228   2.799  11.008  0.9255 -1.5851  0.7334
 2988TIP3    H230380   3.314   2.871  10.907 -1.4788 -0.8201 -0.8457
 2989TIP3   OH230381   0.276   1.292  14.328  0.3690  0.2741 -0.3329
 2989TIP3    H130382   0.366   1.308  14.356 -0.1260 -0.4526  1.9032
 2989TIP3    H230383   0.269   1.196  14.324 -0.4548  0.3082  0.0813
 2990TIP3   OH230384   0.293   4.094   2.450 -0.1129 -0.3808  0.2788
 2990TIP3    H130385   0.232   4.091   2.376  1.0111 -0.9481 -0.6591
 2990TIP3    H230386   0.330   4.182   2.448 -1.2514  0.1450  1.1741
 2991TIP3   OH230387   2.732   3.489  12.070  0.0035 -0.4862  0.5540
 2991TIP3    H130388   2.722   3.475  11.976  1.3880 -0.7492  0.4202
 2991TIP3    H230389   2.826   3.507  12.082 -0.3502  0.7684  1.7381
 2992TIP3   OH230390   3.462   2.997   6.557  0.0465  0.0397 -0.1705
 2992TIP3    H130391   3.471   3.037   6.471 -1.3756  0.4590 -0.1555
 2992TIP3    H230392   3.515   2.918   6.553 -0.3506 -0.1818 -1.5968
 2993TIP3   OH230393   2.140   2.475  16.496 -0.4605 -0.5583 -0.5730
 2993TIP3    H130394   2.083   2.407  16.461 -0.6058 -0.4978 -0.4570
 2993TIP3    H230395   2.138   2.545  16.431  2.0501 -1.8283 -2.2114
 2994TIP3   OH230396   0.985   5.658  14.389 -1.3355 -0.0211 -0.3140
 2994TIP3    H130397   0.901   5.637  14.430 -2.1596  0.7877 -1.5227
 2994TIP3    H230398   0.986   5.754  14.384  0.7847  0.1760  1.9161
 2995TIP3   OH230399   2.974   6.016  11.692  0.1901  0.2849 -0.1874
 2995TIP3    H130400   2.902   5.964  11.727 -0.0293 -0.3186 -1.4754
 2995TIP3    H230401   3.017   6.053  11.769 -0.9676 -0.0459  0.6412
 2996TIP3   OH230402   1.385   0.675   3.653  0.2071  0.7736 -0.6488
 2996TIP3    H130403   1.409   0.588   3.623 -0.9216  0.0833  0.3910
 2996TIP3    H230404   1.334   0.713   3.581 -0.0310  0.2493 -0.7557
 2997TIP3   OH230405   6.494   1.774  10.581  0.6846  0.0860 -0.0553
 2997TIP3    H130406   6.433   1.724  10.527  0.7625 -0.7836  0.6409
 2997TIP3    H230407   6.482   1.739  10.670 -0.3646  2.3350  0.7673
 2998TIP3   OH230408   6.091   2.045   2.924  0.2206  0.0683 -0.3133
 2998TIP3    H130409   6.045   2.021   2.843 -0.6760 -1.2928  0.5511
 2998TIP3    H230410   6.176   2.002   2.917 -0.6623 -1.9251  0.3666
 2999TIP3   OH230411   6.365   0.766   1.572 -0.5546 -0.1583  0.1523
 2999TIP3    H130412   6.347   0.738   1.483 -1.9300  0.3443  0.2312
 2999TIP3    H230413   6.361   0.685   1.624 -0.6947 -0.3330 -0.1262
 3000TIP3   OH230414   4.009   0.701  12.543  0.0799  0.4273 -0.4930
 3000TIP3    H130415   4.082   0.719  12.603 -0.7536 -2.0487  1.4560
 3000TIP3    H230416   3.942   0.661  12.599 -2.2436  1.3564 -2.4812
 3001TIP3   OH230417   5.364   3.965   2.340  0.1921  0.1944  0.5516
 3001TIP3    H130418   5.448   3.948   2.297 -0.4585 -1.8587 -0.0107
 3001TIP3    H230419   5.383   4.037   2.401  1.4905  2.2447 -2.0439
 3002TIP3   OH230420   6.024   4.993  16.926  0.1807  0.4114  0.6729
 3002TIP3    H130421   5.939   5.038  16.925  0.5212  1.1051  1.4114
 3002TIP3    H230422   6.088   5.064  16.930  0.7162 -0.1330  2.7527
 3003TIP3   OH230423   6.066   5.801   4.052 -0.3393 -0.0855 -1.0126
 3003TIP3    H130424   6.006   5.849   4.110 -0.5675 -0.0832 -1.2493
 3003TIP3    H230425   6.133   5.765   4.111  0.4893  1.4814 -0.9359
 3004TIP3   OH230426   0.682   1.226  12.911 -0.1490  0.0810 -0.5662
 3004TIP3    H130427   0.729   1.284  12.970 -1.2455  0.5672 -0.1691
 3004TIP3    H230428   0.664   1.148  12.963 -0.6869  0.3135 -0.3996
 3005TIP3   OH230429   1.274   4.561   3.929  0.0710 -0.2184  0.4166
 3005TIP3    H130430   1.349   4.563   3.870 -0.8467 -1.3274 -0.8323
 3005TIP3    H230431   1.307   4.518   4.008  0.4160 -2.0283 -0.6599
 3006TIP3   OH230432   4.955   2.197  17.059 -0.2178 -0.2811  0.2317
 3006TIP3    H130433   5.021   2.157  17.003  1.0948  0.3516  1.2717
 3006TIP3    H230434   4.871   2.169  17.021  0.6277 -1.1057 -1.1132
 3007TIP3   OH230435   2.942   4.614   3.377  0.0110  0.0662  0.2590
 3007TIP3    H130436   2.915   4.684   3.318  1.1522  0.6689  0.4133
 3007TIP3    H230437   3.024   4.646   3.416  0.4098 -1.2312  0.5387
 3008TIP3   OH230438   4.426   3.383  12.970 -0.2549  0.2270  0.2476
 3008TIP3    H130439   4.462   3.312  12.917 -0.2026  1.1012 -0.9083
 3008TIP3    H230440   4.348   3.412  12.922 -0.2204  1.0251  0.6547
 3009TIP3   OH230441   6.011   3.067  14.536  0.0066  0.3569 -0.3494
 3009TIP3    H130442   6.100   3.059  14.571  0.3160  1.0039 -0.9543
 3009TIP3    H230443   6.011   3.151  14.490 -0.8111  0.1943 -0.6607
 3010TIP3   OH230444   6.439   5.566   6.190 -0.2014  0.0383  0.0425
 3010TIP3    H130445   6.423   5.644   6.243  1.0112  1.2068 -1.2255
 3010TIP3    H230446   6.467   5.499   6.253 -0.5501  0.8349  1.0639
 3011TIP3   OH230447   3.528   5.065   5.022 -0.0024 -0.2445  0.3507
 3011TIP3    H130448   3.599   5.112   5.065  0.2136 -1.3110  1.2038
 3011TIP3    H230449   3.558   5.053   4.932 -0.4429  1.9855 -0.1362
 3012TIP3   OH230450   5.115   0.219  10.732 -0.5484  0.6503 -0.1665
 3012TIP3    H130451   5.023   0.247  10.726 -0.4207  0.9344 -0.9984
 3012TIP3    H230452   5.164   0.300  10.742 -0.2136  0.7381 -2.1232
 3013TIP3   OH230453   1.984   4.691   6.478 -0.0158  0.2073 -0.3672
 3013TIP3    H130454   1.896   4.669   6.507 -0.5175  2.2594 -0.1834
 3013TIP3    H230455   1.982   4.678   6.383 -0.0606 -1.1052 -0.2056
 3014TIP3   OH230456   5.910   3.508   6.511  0.1261 -0.1244  0.4483
 3014TIP3    H130457   5.975   3.441   6.531 -0.8784 -1.0952  0.6324
 3014TIP3    H230458   5.896   3.554   6.593 -0.1708 -0.6200  0.6823
 3015TIP3   OH230459   5.403   2.801  13.218  0.4006  0.1295  0.2991
 3015TIP3    H130460   5.312   2.828  13.223  0.5477  1.5629 -2.5023
 3015TIP3    H230461   5.399   2.708  13.192 -0.3267  0.4560 -0.8437
 3016TIP3   OH230462   6.185   5.181   4.798  0.3912  0.5063 -0.0346
 3016TIP3    H130463   6.257   5.197   4.738 -0.4303  2.1349 -0.6508
 3016TIP3    H230464   6.187   5.255   4.859  0.9247 -0.8755  1.6996
 3017TIP3   OH230465   0.398   0.191  15.951  0.6795 -0.2642  0.4449
 3017TIP3    H130466   0.423   0.192  16.043  2.4861  0.8378 -0.0130
 3017TIP3    H230467   0.433   0.107  15.918  1.8807  0.2539  0.3319
 3018TIP3   OH230468   4.539   0.500  10.435  0.3628 -0.1278  0.2820
 3018TIP3    H130469   4.483   0.497  10.512  0.2461 -0.8275  0.1797
 3018TIP3    H230470   4.625   0.474  10.467  0.7210  1.2318  0.4984
 3019TIP3   OH230471   1.759   4.882  16.375  0.2655 -0.0945 -0.4500
 3019TIP3    H130472   1.793   4.893  16.286  0.2181  0.3093 -0.4228
 3019TIP3    H230473   1.756   4.971  16.410  1.1956 -0.3478  0.3057
 3020TIP3   OH230474   5.231   0.436  14.200 -0.5255  0.0927  0.2098
 3020TIP3    H130475   5.323   0.410  14.203 -0.2196  0.8644 -1.5354
 3020TIP3    H230476   5.190   0.386  14.271  1.3829  0.4236  1.6185
 3021TIP3   OH230477   2.400   1.234   2.835  0.2443 -0.1486  0.0588
 3021TIP3    H130478   2.481   1.221   2.885 -0.3890 -0.3059  1.0664
 3021TIP3    H230479   2.332   1.194   2.889 -0.5858  0.4450 -0.5264
 3022TIP3   OH230480   4.743   6.311  13.315  0.7194 -0.0575 -0.1048
 3022TIP3    H130481   4.727   6.237  13.375  0.7606  1.2842  1.6466
 3022TIP3    H230482   4.690   6.291  13.238 -3.0628  0.2108  2.1650
 3023TIP3   OH230483   2.229   1.971   4.220 -0.0672 -0.3650 -0.1940
 3023TIP3    H130484   2.294   2.041   4.222  0.9262 -1.1530 -2.1321
 3023TIP3    H230485   2.251   1.916   4.296 -1.4117  1.7806  1.8870
 3024TIP3   OH230486   0.141   3.178   3.359 -0.0585 -0.4714  0.4774
 3024TIP3    H130487   0.196   3.254   3.340  3.4144 -2.6867  0.7358
 3024TIP3    H230488   0.104   3.195   3.445  1.8020  0.3707  1.1557
 3025TIP3   OH230489   2.919   4.531  13.651 -0.2557  0.0527 -0.0108
 3025TIP3    H130490   2.889   4.595  13.716 -0.4168  1.5317 -1.4802
 3025TIP3    H230491   2.880   4.448  13.680 -0.0475  0.5866  1.9327
 3026TIP3   OH230492   2.929   2.654  12.123 -0.1726  0.1408  0.3103
 3026TIP3    H130493   2.924   2.661  12.027 -1.0805  2.1259  0.4538
 3026TIP3    H230494   3.023   2.659  12.142  0.0007  0.0497 -0.4645
 3027TIP3   OH230495   0.414   2.944  11.685  0.5977 -0.7134 -0.9291
 3027TIP3    H130496   0.470   2.994  11.744  0.6972 -2.8485  0.9236
 3027TIP3    H230497   0.344   3.005  11.661  0.5793  0.2846  1.3876
 3028TIP3   OH230498   1.271   1.922  13.946  0.6489 -0.1822  0.5227
 3028TIP3    H130499   1.214   1.930  13.869 -0.3947  0.4648  1.3535
 3028TIP3    H230500   1.319   2.005  13.949  1.2971 -0.5260  0.1247
 3029TIP3   OH230501   4.147   0.831   2.253  0.3829  0.2946 -0.8764
 3029TIP3    H130502   4.087   0.874   2.313  0.1364 -0.8177 -0.3084
 3029TIP3    H230503   4.094   0.811   2.176  0.0889 -0.4248 -0.4925
 3030TIP3   OH230504   3.963   4.124  14.665  0.7078 -0.4618 -0.2880
 3030TIP3    H130505   4.024   4.062  14.623 -1.2913 -2.6030 -0.2214
 3030TIP3    H230506   3.879   4.079  14.665 -0.3022  1.1927  2.2262
 3031TIP3   OH230507   1.659   4.838  13.648 -0.1705 -0.3201 -0.1853
 3031TIP3    H130508   1.613   4.785  13.713  0.7353 -0.1443  0.6316
 3031TIP3    H230509   1.730   4.781  13.617 -0.5997 -0.4037 -1.0424
 3032TIP3   OH230510   0.213   0.804   2.367 -0.3107  0.4989 -0.0963
 3032TIP3    H130511   0.162   0.875   2.405 -0.6874 -0.1992  0.7269
 3032TIP3    H230512   0.196   0.810   2.273 -0.6975  1.2043  0.0135
 3033TIP3   OH230513   3.013   0.759   0.409  0.2403  0.3380  0.1060
 3033TIP3    H130514   3.051   0.672   0.398 -0.2768  0.1797 -0.5371
 3033TIP3    H230515   3.084   0.813   0.444 -0.2215 -1.0342  3.5455
 3034TIP3   OH230516   6.515   1.497   3.148 -0.6925  0.4283  0.2396
 3034TIP3    H130517   6.576   1.493   3.074 -0.6494  2.0155  0.1477
 3034TIP3    H230518   6.434   1.532   3.111 -1.8035 -1.9088  0.3103
 3035TIP3   OH230519   4.046   6.139   0.245  0.3311 -0.0066 -0.1177
 3035TIP3    H130520   4.015   6.101   0.163 -0.5040 -1.1819  0.7056
 3035TIP3    H230521   4.124   6.088   0.267 -0.7936 -1.3263  0.9898
 3036TIP3   OH230522   2.811   6.521  10.704  0.0318  0.4012 -0.4471
 3036TIP3    H130523   2.864   6.494  10.628 -0.2902 -0.2261 -0.4581
 3036TIP3    H230524   2.737   6.568  10.666 -0.3741 -0.3160 -0.5643
 3037TIP3   OH230525   0.987   0.483  14.022  0.3935  0.1652  0.2222
 3037TIP3    H130526   1.053   0.436  14.073  1.4787  0.4929 -0.8399
 3037TIP3    H230527   0.978   0.431  13.942 -0.6205  0.1538  0.3309
 3038TIP3   OH230528   1.930   4.952   1.438 -0.0294 -0.0018 -0.3761
 3038TIP3    H130529   1.983   4.880   1.405 -0.9489 -0.7316 -0.3037
 3038TIP3    H230530   1.983   5.030   1.423  0.0165 -0.4124 -2.6426
 3039TIP3   OH230531   1.662   0.357   0.442  0.4827 -0.0623  0.0629
 3039TIP3    H130532   1.674   0.343   0.348 -1.6667 -0.7072 -0.1732
 3039TIP3    H230533   1.751   0.367   0.476  1.4751 -2.0910 -1.6816
 3040TIP3   OH230534   0.681   3.071  14.364 -0.7971 -0.1210  0.5850
 3040TIP3    H130535   0.616   3.033  14.423 -2.5184  1.2240 -0.3461
 3040TIP3    H230536   0.632   3.133  14.310  0.6944 -1.1327 -2.1744
 3041TIP3   OH230537   4.717   3.567   2.886  0.1710  0.3533 -0.2971
 3041TIP3    H130538   4.686   3.543   2.799 -1.2975  0.3114  0.2023
 3041TIP3    H230539   4.812   3.568   2.879  0.1081 -0.8387 -1.5820
 3042TIP3   OH230540   5.731   1.940   0.368 -0.0147  0.3286 -0.0379
 3042TIP3    H130541   5.823   1.962   0.378  0.0085  0.5986 -0.7896
 3042TIP3    H230542   5.716   1.871   0.433  0.7310  0.2318  0.0418
 3043TIP3   OH230543   2.420   3.423  16.218 -0.3231 -0.1658  0.5686
 3043TIP3    H130544   2.403   3.424  16.312  1.5474 -0.3949  0.9522
 3043TIP3    H230545   2.491   3.487  16.207 -1.1455  0.5456 -0.8352
 3044TIP3   OH230546   3.242   5.496   5.714  0.0715 -0.6879 -0.0060
 3044TIP3    H130547   3.229   5.503   5.809  0.9707 -1.6139  0.2117
 3044TIP3    H230548   3.218   5.581   5.680  1.5964  0.3240  1.2957
 3045TIP3   OH230549   2.018   3.018  14.303 -0.8747  0.4359 -0.0343
 3045TIP3    H130550   2.103   3.051  14.275  0.2283 -1.5794  0.6656
 3045TIP3    H230551   2.020   3.025  14.399 -0.6756 -1.2935  0.1299
 3046TIP3   OH230552   0.945   5.464  12.487 -0.1925  0.6126  0.4190
 3046TIP3    H130553   0.927   5.398  12.554  0.2050 -0.5578 -0.5871
 3046TIP3    H230554   0.891   5.437  12.412  0.8054  0.7842 -0.3810
 3047TIP3   OH230555   0.614   4.892   1.346  0.1930  0.3094  0.0852
 3047TIP3    H130556   0.542   4.954   1.335  0.7272  1.0406  0.6150
 3047TIP3    H230557   0.571   4.807   1.355 -0.6181  0.7641  0.5838
 3048TIP3   OH230558   2.983   1.323  15.876 -0.0796 -0.0200  0.1448
 3048TIP3    H130559   2.980   1.406  15.924  2.6811  0.1785  0.1561
 3048TIP3    H230560   3.056   1.334  15.815  0.8457 -2.6747  0.6531
 3049TIP3   OH230561   2.127   1.971   0.011 -0.1523  0.2416  0.8651
 3049TIP3    H130562   2.209   1.992  -0.034 -0.2418  1.0989  1.0953
 3049TIP3    H230563   2.060   2.018  -0.038 -0.8359 -2.0490 -0.5852
 3050TIP3   OH230564   0.988   3.322   3.419  0.4399  0.4806  0.2774
 3050TIP3    H130565   1.010   3.414   3.436 -1.3685  0.8772  0.6406
 3050TIP3    H230566   0.912   3.326   3.361  0.7656 -0.8156 -0.2789
 3051TIP3   OH230567   6.235   0.819   6.118  0.5619  0.0182  0.2910
 3051TIP3    H130568   6.284   0.859   6.046  0.3401  0.0100  0.1356
 3051TIP3    H230569   6.287   0.743   6.144 -0.9234 -1.9091 -1.9776
 3052TIP3   OH230570   4.858   3.811  13.188 -0.4749  0.1222 -0.7550
 3052TIP3    H130571   4.945   3.792  13.154 -0.0920 -0.9587  0.7117
 3052TIP3    H230572   4.846   3.749  13.260 -3.4173 -1.3830 -2.3595
 3053TIP3   OH230573   4.428   2.581   1.413  0.0348 -0.0714  0.2441
 3053TIP3    H130574   4.457   2.498   1.377 -0.3831 -0.4737  0.8056
 3053TIP3    H230575   4.483   2.595   1.490  0.5290  0.4897 -0.2037
 3054TIP3   OH230576   2.008   0.172   2.661 -0.3913 -0.3262 -0.0318
 3054TIP3    H130577   2.068   0.216   2.601 -0.6030  0.6671  0.4704
 3054TIP3    H230578   2.062   0.108   2.707  0.0824 -0.0647 -0.2165
 3055TIP3   OH230579   0.923   1.472   2.372  0.6314 -0.1970 -0.3690
 3055TIP3    H130580   0.959   1.528   2.441 -0.0192 -1.5393  1.0987
 3055TIP3    H230581   0.993   1.411   2.351  0.6850 -0.0527 -0.6184
 3056TIP3   OH230582   3.656   1.710   5.437 -0.2302  0.3581  0.2617
 3056TIP3    H130583   3.589   1.701   5.368 -0.0213  0.7163  0.0087
 3056TIP3    H230584   3.636   1.640   5.499  0.3603 -0.7974 -0.8060
 3057TIP3   OH230585   6.393   3.258  15.338  0.1424 -0.0967 -0.0717
 3057TIP3    H130586   6.362   3.172  15.309 -0.8162 -0.2230  1.2094
 3057TIP3    H230587   6.417   3.244  15.430 -1.5871  1.3412  0.6557
 3058TIP3   OH230588   0.501   2.352  13.573 -0.5994 -0.5926 -0.7444
 3058TIP3    H130589   0.570   2.290  13.548  0.6669 -0.5022  2.1228
 3058TIP3    H230590   0.549   2.432  13.596 -1.7514 -0.2058  0.3952
 3059TIP3   OH230591   4.467   3.342   2.918 -0.3317  0.2786  0.4336
 3059TIP3    H130592   4.552   3.385   2.909  1.2282 -2.4604  1.0134
 3059TIP3    H230593   4.432   3.341   2.829 -0.7171  3.1040  0.4673
 3060TIP3   OH230594   3.278   1.856   0.279 -0.2452 -0.1706 -0.0507
 3060TIP3    H130595   3.339   1.799   0.325 -0.5456 -0.4265  0.0362
 3060TIP3    H230596   3.306   1.945   0.302 -1.0225 -0.2875  1.4865
 3061TIP3   OH230597   2.610   4.540  12.391  0.1175  0.2182  0.1771
 3061TIP3    H130598   2.612   4.484  12.313 -1.0577  0.7944 -0.3031
 3061TIP3    H230599   2.620   4.629  12.356 -4.2168  0.9147  0.1181
 3062TIP3   OH230600   2.014   5.530   5.678  0.3047 -0.0481 -0.2064
 3062TIP3    H130601   1.986   5.471   5.608 -0.7634 -0.0174  0.1726
 3062TIP3    H230602   1.937   5.584   5.696  0.7883  0.4242  0.4969
 3063TIP3   OH230603   5.500   5.310   4.758 -0.0633  0.0501  0.2298
 3063TIP3    H130604   5.562   5.383   4.761  0.2470 -0.1941 -0.1893
 3063TIP3    H230605   5.553   5.235   4.732 -0.7008  0.0149 -1.0341
 3064TIP3   OH230606   5.648   4.432  11.412 -0.4001  0.2575 -0.4197
 3064TIP3    H130607   5.676   4.523  11.418 -0.8681  0.5007 -1.6596
 3064TIP3    H230608   5.721   4.382  11.447  0.0839  1.0808 -0.2330
 3065TIP3   OH230609   0.434   5.169   5.263 -0.2749  0.2809 -0.4035
 3065TIP3    H130610   0.385   5.213   5.194  1.1802  1.0150 -1.0057
 3065TIP3    H230611   0.371   5.108   5.302 -1.2761  0.2224 -2.0282
 3066TIP3   OH230612   1.006   1.932  14.185  0.7410 -0.4049 -0.3945
 3066TIP3    H130613   1.023   1.840  14.163  1.8806 -0.0500 -1.1046
 3066TIP3    H230614   0.992   1.975  14.101 -1.5015 -0.2052  0.0319
 3067TIP3   OH230615   0.780   3.153  14.749 -0.0265  0.4098 -0.4827
 3067TIP3    H130616   0.868   3.188  14.763  0.5543  0.5796 -3.6970
 3067TIP3    H230617   0.769   3.088  14.818  1.8432  1.6673  1.1345
 3068TIP3   OH230618   5.468   6.282  14.161  0.3496  0.1587 -0.3969
 3068TIP3    H130619   5.428   6.251  14.243  0.2705 -0.2673 -0.5958
 3068TIP3    H230620   5.561   6.268  14.173  0.2616 -0.7799 -0.7419
 3069TIP3   OH230621   2.959   1.082   0.097  0.5764  0.3233  0.3780
 3069TIP3    H130622   3.005   1.105   0.016 -0.0881 -0.0352 -0.1054
 3069TIP3    H230623   2.897   1.154   0.111 -1.8662 -1.2771 -1.4098
 3070TIP3   OH230624   1.767   3.565  12.595  0.3141 -0.5392 -0.4317
 3070TIP3    H130625   1.754   3.548  12.688  0.7897 -0.2517 -0.3103
 3070TIP3    H230626   1.728   3.490  12.551 -0.7822 -0.2286 -0.0424
 3071TIP3   OH230627   3.552   5.740   5.367 -0.1038 -0.2711  0.3303
 3071TIP3    H130628   3.570   5.736   5.461  0.8979  0.0971  0.1750
 3071TIP3    H230629   3.496   5.817   5.357  0.6629  0.3389  0.5250
 3072TIP3   OH230630   2.311   5.890  11.501 -0.2373 -0.0489  0.2530
 3072TIP3    H130631   2.247   5.961  11.507 -0.6903 -0.4685  0.5026
 3072TIP3    H230632   2.265   5.814  11.536 -0.1601 -0.7379 -1.0630
 3073TIP3   OH230633   0.883   5.387  12.019 -0.3030  0.3025  0.6874
 3073TIP3    H130634   0.910   5.465  11.971  0.1163 -0.6042 -0.6293
 3073TIP3    H230635   0.965   5.341  12.039 -0.6369 -1.3285 -1.3197
 3074TIP3   OH230636   3.074   4.840   4.814  0.4720 -0.0777  0.0564
 3074TIP3    H130637   3.034   4.838   4.901  1.3509 -1.3059  0.4776
 3074TIP3    H230638   3.163   4.873   4.829  0.6355 -0.3101 -0.3704
 3075TIP3   OH230639   0.296   0.157   4.104  0.0731 -0.0098  0.0436
 3075TIP3    H130640   0.220   0.145   4.161 -0.1622  1.3319  0.0418
 3075TIP3    H230641   0.302   0.076   4.055 -1.7587  0.0968 -0.4249
 3076TIP3   OH230642   1.741   3.864   2.385  0.2697  0.0229 -0.7700
 3076TIP3    H130643   1.829   3.855   2.350  0.8664  0.4207  0.5791
 3076TIP3    H230644   1.707   3.944   2.344  0.0680 -0.7675 -2.2049
 3077TIP3   OH230645   2.152   4.443  15.077 -0.3467 -0.1104  0.0092
 3077TIP3    H130646   2.105   4.481  15.003 -2.4031 -2.4126 -0.0219
 3077TIP3    H230647   2.099   4.367  15.102  1.0815 -0.3025  2.8841
 3078TIP3   OH230648   0.261   3.415   2.104  0.1446  0.3059 -0.8128
 3078TIP3    H130649   0.251   3.410   2.009 -0.9033  0.9652 -0.7572
 3078TIP3    H230650   0.300   3.331   2.129 -1.6078 -0.7912 -1.5856
 3079TIP3   OH230651   2.553   6.350   4.758  0.4416  0.0940  0.3189
 3079TIP3    H130652   2.629   6.408   4.754  0.0048  0.7708  1.4798
 3079TIP3    H230653   2.524   6.355   4.849  1.0652 -2.8475  0.7724
 3080TIP3   OH230654   4.255   1.939  17.005 -0.0426 -0.1947 -0.1139
 3080TIP3    H130655   4.252   1.905  16.915  0.0401  0.2396 -0.2799
 3080TIP3    H230656   4.201   2.018  17.003  2.5044  1.6560 -0.5826
 3081TIP3   OH230657   0.893   6.533   0.965  0.4276  0.4024 -0.4064
 3081TIP3    H130658   0.807   6.514   1.003  0.4331  0.5242 -0.3310
 3081TIP3    H230659   0.950   6.548   1.041  0.8225 -0.9427 -0.4207
 3082TIP3   OH230660   0.395   6.720   6.113  0.1548  0.3089  0.1208
 3082TIP3    H130661   0.400   6.679   6.199 -0.6300 -2.7483 -1.1571
 3082TIP3    H230662   0.475   6.771   6.105  1.0597 -0.7520  1.9868
 3083TIP3   OH230663   6.762   0.833   2.617 -0.0001 -0.3392  0.1355
 3083TIP3    H130664   6.794   0.858   2.704  1.7878 -0.2434 -0.5116
 3083TIP3    H230665   6.816   0.884   2.557 -1.7318  0.1673 -1.0317
 3084TIP3   OH230666   2.339   4.868  11.904 -0.1292  0.3996 -0.0371
 3084TIP3    H130667   2.331   4.776  11.880  2.9201  0.3007 -1.1202
 3084TIP3    H230668   2.373   4.867  11.993  2.3505  0.3085 -0.9104
 3085TIP3   OH230669   4.946   0.456  15.337 -0.1461 -0.1230 -0.1506
 3085TIP3    H130670   5.040   0.443  15.331 -0.1561  0.2236 -1.3452
 3085TIP3    H230671   4.932   0.547  15.309 -0.9947 -0.7809 -2.0562
 3086TIP3   OH230672   1.170   5.464   1.848 -0.6536  0.1404 -0.8499
 3086TIP3    H130673   1.263   5.456   1.829  0.0599 -1.1462  2.3948
 3086TIP3    H230674   1.155   5.558   1.860 -0.0083  0.4328 -2.2060
 3087TIP3   OH230675   6.330   4.403   6.416 -0.2523  0.3327 -0.3122
 3087TIP3    H130676   6.242   4.407   6.379 -1.0625 -0.3821  1.4257
 3087TIP3    H230677   6.336   4.315   6.454  0.6105  0.8986  0.9305
 3088TIP3   OH230678   0.916   2.126  17.015 -0.0639  0.4212 -0.2627
 3088TIP3    H130679   0.850   2.109  16.948  0.4327  1.7206 -1.1406
 3088TIP3    H230680   0.999   2.124  16.967  0.4060  0.2843  0.5383
 3089TIP3   OH230681   3.276   3.059   4.303 -0.0768 -0.2005 -0.4146
 3089TIP3    H130682   3.187   3.067   4.268 -0.6414 -1.2131  0.7136
 3089TIP3    H230683   3.277   2.973   4.344  1.0488  0.3082  0.6618
 3090TIP3   OH230684   2.765   6.534  15.139 -0.0908 -0.3420  0.0857
 3090TIP3    H130685   2.775   6.617  15.184 -0.5557 -0.7993  1.0676
 3090TIP3    H230686   2.853   6.495  15.141  0.0723  0.0115 -0.1560
 3091TIP3   OH230687   3.985   1.252   2.702  0.2104 -0.1686 -0.1176
 3091TIP3    H130688   3.999   1.286   2.614 -0.1618 -0.1909 -0.1854
 3091TIP3    H230689   3.974   1.331   2.756 -0.4557 -0.1703 -0.2423
 3092TIP3   OH230690   2.068   0.375   0.374 -0.2074  0.1272 -0.1763
 3092TIP3    H130691   2.068   0.280   0.386 -0.1029  0.1826  0.2634
 3092TIP3    H230692   2.142   0.392   0.316  0.4492  0.0488  0.6218
 3093TIP3   OH230693   0.629   1.508   4.612 -0.2366 -0.1086 -0.5699
 3093TIP3    H130694   0.559   1.566   4.581 -0.1267  0.3706  0.0462
 3093TIP3    H230695   0.703   1.567   4.629 -1.0891  0.1755  3.1582
 3094TIP3   OH230696   0.366   3.696  12.551 -0.3631  0.1937 -0.2699
 3094TIP3    H130697   0.271   3.707  12.565 -0.6043  0.3766 -1.8573
 3094TIP3    H230698   0.374   3.614  12.502  0.1202  1.0780 -1.7280
 3095TIP3   OH230699   5.618   2.520  12.250 -0.5157 -0.1517  0.0203
 3095TIP3    H130700   5.713   2.517  12.260 -0.4945  0.2518 -0.0519
 3095TIP3    H230701   5.604   2.504  12.156 -0.5240 -0.2779  0.0429
 3096TIP3   OH230702   3.740   5.441  12.983 -0.1487  0.0122 -0.3792
 3096TIP3    H130703   3.801   5.408  12.917 -0.0638  1.6807 -1.2052
 3096TIP3    H230704   3.793   5.500  13.037 -0.4136 -0.6915  0.6740
 3097TIP3   OH230705   5.564   5.745   1.932 -0.0674  0.4424  0.7850
 3097TIP3    H130706   5.561   5.767   1.839  1.4152 -1.4721  0.2335
 3097TIP3    H230707   5.502   5.672   1.941  0.3499  0.1274  1.1298
 3098TIP3   OH230708   3.702   3.911  12.152  0.2004 -0.1634 -0.7883
 3098TIP3    H130709   3.608   3.920  12.136  0.0721  1.5038  0.6099
 3098TIP3    H230710   3.711   3.825  12.194 -0.9982  0.4650  0.8708
 3099TIP3   OH230711   1.741   6.753  11.334 -0.2912  0.1630 -0.3078
 3099TIP3    H130712   1.822   6.761  11.384 -1.0145  0.1958  0.9072
 3099TIP3    H230713   1.768   6.721  11.249  0.7320 -3.1144  1.1018
 3100TIP3   OH230714   0.886   3.513   2.606 -0.1181  0.3859  0.2466
 3100TIP3    H130715   0.973   3.514   2.644 -0.4624 -0.2251  1.0776
 3100TIP3    H230716   0.895   3.460   2.527  0.1857  0.0084  0.5318
 3101TIP3   OH230717   0.061   5.347   4.890 -0.7225 -0.0993  0.2254
 3101TIP3    H130718   0.041   5.256   4.911 -0.8087  0.1394  1.2721
 3101TIP3    H230719   0.077   5.388   4.976 -2.7175  1.3453 -0.0289
 3102TIP3   OH230720   0.619   1.161   0.765 -0.1863 -0.1885  0.2405
 3102TIP3    H130721   0.587   1.080   0.726 -0.8666  0.8299 -1.4434
 3102TIP3    H230722   0.587   1.230   0.706 -0.1018  1.3464  1.9032
 3103TIP3   OH230723   5.395   3.883   4.177 -0.1702  0.1751  0.2490
 3103TIP3    H130724   5.411   3.805   4.125  2.2383  0.8797 -0.2005
 3103TIP3    H230725   5.311   3.916   4.146 -0.9447 -1.8560  0.0323
 3104TIP3   OH230726   4.696   6.719  14.232 -0.2633  0.3093 -0.1494
 3104TIP3    H130727   4.665   6.679  14.151 -1.1937  0.9222 -0.1245
 3104TIP3    H230728   4.645   6.676  14.301 -1.0328  1.2659 -0.0969
 3105TIP3   OH230729   2.149   3.416  16.237 -0.4579 -0.0973  0.0393
 3105TIP3    H130730   2.244   3.408  16.243 -0.4232  0.6392  0.4921
 3105TIP3    H230731   2.115   3.353  16.301 -0.2984 -0.7730 -0.5208
 3106TIP3   OH230732   0.752   0.126  14.401  0.4547 -0.7189  0.4217
 3106TIP3    H130733   0.693   0.150  14.330  1.4831  0.7624  0.0305
 3106TIP3    H230734   0.695   0.119  14.478 -0.2443  0.7319  0.0647
 3107TIP3   OH230735   0.742   4.149  13.158  0.1756 -0.2524  0.3832
 3107TIP3    H130736   0.756   4.102  13.240  0.8773  0.2380  0.5506
 3107TIP3    H230737   0.673   4.213  13.178  1.0722  0.5919  0.9114
 3108TIP3   OH230738   3.670   0.036  11.833 -0.1200 -0.1883 -0.7184
 3108TIP3    H130739   3.693   0.126  11.858 -1.9916 -0.1509  1.1749
 3108TIP3    H230740   3.629   0.044  11.747 -0.0577  0.7350 -0.6713
 3109TIP3   OH230741   4.224   1.817  12.547 -0.2940  0.1400 -0.7688
 3109TIP3    H130742   4.135   1.850  12.541  0.0247  1.2068  0.1386
 3109TIP3    H230743   4.216   1.723  12.528 -1.9711 -0.2886  1.6357
 3110TIP3   OH230744   4.744   3.946  14.488  0.0633  0.2730 -0.4349
 3110TIP3    H130745   4.784   3.911  14.409  0.5853  0.5445 -0.2941
 3110TIP3    H230746   4.735   3.871  14.546  2.5636  0.5626  0.4579
 3111TIP3   OH230747   6.360   6.239  15.839  0.2780  0.4176  0.1939
 3111TIP3    H130748   6.429   6.304  15.856  1.3330 -0.7663  0.6090
 3111TIP3    H230749   6.391   6.160  15.883 -1.5093 -0.0761  0.6510
 3112TIP3   OH230750   3.902   5.034   4.105  0.4442 -0.6290  0.2082
 3112TIP3    H130751   3.864   4.947   4.100 -0.0112 -0.3626 -1.9287
 3112TIP3    H230752   3.832   5.090   4.139 -0.2655 -0.6102 -1.2071
 3113TIP3   OH230753   5.325   1.286  12.937  0.4506  0.0466  0.1702
 3113TIP3    H130754   5.305   1.221  13.003 -1.1728 -2.5089 -2.5632
 3113TIP3    H230755   5.412   1.263  12.905  0.0050 -0.6800 -0.5772
 3114TIP3   OH230756   4.669   1.638  13.209 -0.0977  0.3159  0.5301
 3114TIP3    H130757   4.577   1.657  13.224 -0.1348  0.2183  0.4319
 3114TIP3    H230758   4.717   1.698  13.267 -0.2365 -0.0407  1.0204
 3115TIP3   OH230759   2.137   4.390  14.639 -0.1068 -0.5797  0.4225
 3115TIP3    H130760   2.054   4.417  14.679 -0.2099 -1.3686  0.7560
 3115TIP3    H230761   2.118   4.384  14.545 -1.1767 -3.2671  0.7269
 3116TIP3   OH230762   0.437   3.249  14.201  0.1569 -0.6183  0.6669
 3116TIP3    H130763   0.378   3.312  14.160  1.5031  1.0187  1.1127
 3116TIP3    H230764   0.504   3.303  14.243  2.7307 -2.3666 -0.9282
 3117TIP3   OH230765   3.494   1.674   1.785  0.0184  0.2193 -0.2074
 3117TIP3    H130766   3.580   1.639   1.762  0.8355  2.2061 -0.3813
 3117TIP3    H230767   3.467   1.724   1.709 -0.9762  0.2235  0.1270
 3118TIP3   OH230768   0.271   3.258  11.144 -0.3660 -0.5728 -0.4009
 3118TIP3    H130769   0.320   3.256  11.062 -0.3182  0.9073 -0.4222
 3118TIP3    H230770   0.180   3.271  11.118 -0.0519  2.9465 -0.2043
 3119TIP3   OH230771   6.280   6.487   4.074 -0.2073  0.2756  1.0439
 3119TIP3    H130772   6.277   6.478   4.169 -0.7982  0.7304  1.0746
 3119TIP3    H230773   6.258   6.578   4.058 -0.4927  0.1078  0.4525
 3120TIP3   OH230774   0.578   2.502  13.067  0.1687 -0.4409 -0.2199
 3120TIP3    H130775   0.509   2.558  13.103 -1.6893 -2.4860 -0.3625
 3120TIP3    H230776   0.531   2.434  13.019  2.4171 -0.5901 -2.3911
 3121TIP3   OH230777   0.399   0.515  13.067 -0.3068 -0.4317 -0.5435
 3121TIP3    H130778   0.465   0.446  13.071  0.9927  0.7151 -1.4540
 3121TIP3    H230779   0.425   0.569  12.992 -2.0455  0.2963 -0.6621
 3122TIP3   OH230780   2.308   6.652  12.351  0.0569 -0.7259  0.1851
 3122TIP3    H130781   2.352   6.572  12.379  0.7632 -0.3846  0.0681
 3122TIP3    H230782   2.247   6.673  12.422  0.4416 -0.9251  0.5733
 3123TIP3   OH230783   0.263   0.740  11.446 -0.3495  0.1892 -0.4738
 3123TIP3    H130784   0.238   0.772  11.533 -2.1123 -0.6730 -0.6297
 3123TIP3    H230785   0.359   0.749  11.444 -0.5173  3.4840  0.2502
 3124TIP3   OH230786   6.373   1.581   1.233 -0.1961 -0.2733  0.5412
 3124TIP3    H130787   6.292   1.617   1.197  0.9727  0.7837 -1.1639
 3124TIP3    H230788   6.435   1.653   1.229  1.2712 -1.5060  0.2441
 3125TIP3   OH230789   0.484   0.841   3.050  0.1030 -0.4278 -0.3902
 3125TIP3    H130790   0.390   0.824   3.051 -0.1031  0.5891 -0.9191
 3125TIP3    H230791   0.520   0.773   2.994 -0.3849 -0.5290 -0.5861
 3126TIP3   OH230792   2.030   3.957   3.699  0.0002  0.1011  0.2657
 3126TIP3    H130793   1.994   4.046   3.698  0.0477  0.1717 -2.3356
 3126TIP3    H230794   1.958   3.902   3.730 -1.4013  0.6186 -1.8381
 3127TIP3   OH230795   0.578   5.255   0.050  0.2223  0.6375 -0.0316
 3127TIP3    H130796   0.541   5.326   0.102  0.6158  1.8571 -1.3493
 3127TIP3    H230797   0.607   5.297  -0.031  0.9104 -0.9515 -0.6555
 3128TIP3   OH230798   1.193   6.706   4.880  0.0837 -1.0210  0.6025
 3128TIP3    H130799   1.159   6.676   4.965 -3.3982 -2.6588 -1.1709
 3128TIP3    H230800   1.224   6.626   4.837  0.7066 -0.4041 -0.1191
 3129TIP3   OH230801   2.227   1.644  14.279 -0.0197  0.4071  0.1899
 3129TIP3    H130802   2.261   1.564  14.237 -0.2270  0.7039 -0.5570
 3129TIP3    H230803   2.258   1.715  14.224 -1.6397  0.7079 -0.3836
 3130TIP3   OH230804   2.481   1.517   1.093  0.1648 -0.4612 -0.9034
 3130TIP3    H130805   2.400   1.467   1.078 -1.2293  0.9286  1.3836
 3130TIP3    H230806   2.476   1.588   1.029 -0.0432 -0.7623 -1.2328
 3131TIP3   OH230807   3.778   6.182  15.987  0.5633  0.6766  0.4233
 3131TIP3    H130808   3.711   6.231  15.938  0.7592  0.3782 -0.1519
 3131TIP3    H230809   3.857   6.190  15.933  0.0528 -2.2781 -0.9764
 3132TIP3   OH230810   2.560   3.797   2.761  0.2706 -0.2985  0.2869
 3132TIP3    H130811   2.569   3.725   2.698  1.2577 -1.6302  1.8633
 3132TIP3    H230812   2.607   3.767   2.839 -0.4974  1.4838  1.5119
 3133TIP3   OH230813   4.647   1.161  12.405  0.7992  0.1832  0.3147
 3133TIP3    H130814   4.562   1.168  12.361  0.9136  4.3694  0.3617
 3133TIP3    H230815   4.695   1.097  12.352 -0.8357  1.0964 -2.5606
 3134TIP3   OH230816   4.068   0.575  13.407 -0.3862 -0.0525 -0.2238
 3134TIP3    H130817   3.981   0.571  13.447 -0.3728 -1.8939 -0.3129
 3134TIP3    H230818   4.128   0.580  13.481 -0.5256  0.7781 -0.1526
 3135TIP3   OH230819   2.670   2.697   2.456  0.1103  1.0973  0.1499
 3135TIP3    H130820   2.757   2.659   2.441  0.3314  1.2301  1.0418
 3135TIP3    H230821   2.674   2.731   2.546 -1.1819  0.2387  0.5552
 3136TIP3   OH230822   0.663   2.332   3.263 -0.7184  0.1899 -0.0446
 3136TIP3    H130823   0.589   2.383   3.233  1.6956  2.8089 -2.1062
 3136TIP3    H230824   0.681   2.364   3.352 -0.6188  1.3110 -0.4597
 3137TIP3   OH230825   2.333   5.718  17.125 -0.1152  0.0816 -0.0059
 3137TIP3    H130826   2.291   5.804  17.126  1.4014  0.8520 -0.0346
 3137TIP3    H230827   2.394   5.720  17.198 -0.2567 -1.0998  0.1661
 3138TIP3   OH230828   4.883   0.967   2.916 -0.4146 -0.7569 -0.1987
 3138TIP3    H130829   4.861   0.893   2.973 -1.5416 -0.4396 -0.1816
 3138TIP3    H230830   4.892   0.929   2.829 -0.3539 -1.0105 -0.0818
 3139TIP3   OH230831   1.006   1.187   3.365  0.4127 -0.5409  0.4641
 3139TIP3    H130832   1.023   1.189   3.271  0.2279 -1.9806  0.3838
 3139TIP3    H230833   0.990   1.095   3.385 -1.5600 -0.0200  1.5622
 3140TIP3   OH230834   2.912   6.393  15.666 -0.0217  0.1365  0.2938
 3140TIP3    H130835   2.995   6.419  15.627 -0.4114  1.6695  0.4395
 3140TIP3    H230836   2.855   6.373  15.591 -0.8805  3.4132 -0.0730
 3141TIP3   OH230837   3.585   5.902   0.326 -0.0827  0.0535 -0.0956
 3141TIP3    H130838   3.644   5.866   0.392  1.2152  0.1156 -1.1960
 3141TIP3    H230839   3.618   5.990   0.309  0.1474 -0.2784 -1.4579
 3142TIP3   OH230840   0.603   4.686  15.948 -0.3262 -0.5893  0.1290
 3142TIP3    H130841   0.682   4.637  15.925 -0.6999 -0.8033 -0.7237
 3142TIP3    H230842   0.619   4.774  15.915 -0.4323 -0.6217 -0.0065
 3143TIP3   OH230843   3.863   5.537  14.905  0.1525  0.4402  0.1370
 3143TIP3    H130844   3.942   5.486  14.889  0.7839  0.6622  2.2711
 3143TIP3    H230845   3.891   5.628  14.896 -0.3727  0.4945 -1.1294
 3144TIP3   OH230846   2.071   0.294  13.311 -0.0261 -0.8914  0.1709
 3144TIP3    H130847   2.163   0.319  13.323 -0.2430  0.4111 -0.7111
 3144TIP3    H230848   2.024   0.339  13.381 -0.2433  0.1141 -0.6066
 3145TIP3   OH230849   0.035   0.943  14.473 -0.2634  0.1735  0.1017
 3145TIP3    H130850   0.007   0.919  14.561 -0.8445  0.9556  0.1489
 3145TIP3    H230851  -0.014   0.885  14.415  0.9579 -1.1109  0.3173
 3146TIP3   OH230852   0.978   4.421  12.138  0.1359  0.0984  0.0765
 3146TIP3    H130853   0.951   4.497  12.190  0.9475  0.7318 -0.4034
 3146TIP3    H230854   0.935   4.433  12.054  0.6240  0.2667 -0.1523
 3147TIP3   OH230855   6.125   3.914   5.961  0.7943 -0.5101 -0.1565
 3147TIP3    H130856   6.156   3.976   6.026 -0.3008  0.1774 -0.2629
 3147TIP3    H230857   6.111   3.967   5.882  5.0160 -1.7898 -2.0203
 3148TIP3   OH230858   4.715   0.075   5.888 -0.1529 -0.2330 -0.5643
 3148TIP3    H130859   4.707   0.168   5.909  0.9077 -0.3487  0.5363
 3148TIP3    H230860   4.646   0.033   5.938  0.0554 -0.1370 -0.1912
 3149TIP3   OH230861   1.756   3.449  16.006 -0.2954  0.0293  0.0513
 3149TIP3    H130862   1.761   3.501  15.926 -0.4246  0.1811  0.1400
 3149TIP3    H230863   1.688   3.492  16.058  1.2663  1.2481  1.1792
 3150TIP3   OH230864   4.135   5.146  15.384  0.7724 -0.1395 -0.6749
 3150TIP3    H130865   4.146   5.220  15.325 -3.6132  0.7680 -0.7002
 3150TIP3    H230866   4.150   5.069  15.329 -0.7343  0.7161 -2.3742
 3151TIP3   OH230867   6.438   2.257   5.682  0.8789  0.3330 -0.2843
 3151TIP3    H130868   6.489   2.337   5.671 -0.7265  1.4774  0.2671
 3151TIP3    H230869   6.404   2.238   5.595  0.4489  0.8468 -0.2377
 3152TIP3   OH230870   4.474   6.235   5.048  0.1117 -0.3925  0.7334
 3152TIP3    H130871   4.490   6.329   5.041 -0.9100 -0.1885  0.9081
 3152TIP3    H230872   4.511   6.199   4.968  2.3453 -0.1316  1.5863
 3153TIP3   OH230873   4.076   2.575  14.979 -0.1961  0.3982 -0.0870
 3153TIP3    H130874   4.097   2.664  14.950  0.9117 -0.5214 -2.3720
 3153TIP3    H230875   4.013   2.543  14.915  0.9470 -1.1225 -0.5092
 3154TIP3   OH230876   0.711   5.654   4.101  0.6481  0.0082  0.0308
 3154TIP3    H130877   0.795   5.609   4.111  1.1751  1.0762  0.5561
 3154TIP3    H230878   0.709   5.717   4.172  0.7668  2.0857 -1.7093
 3155TIP3   OH230879   1.766   3.507  11.769 -0.0798  0.0534 -0.4535
 3155TIP3    H130880   1.767   3.535  11.677  1.4064  0.7393 -0.2587
 3155TIP3    H230881   1.855   3.521  11.799 -0.9662  1.6284  1.6440
 3156TIP3   OH230882   4.095   5.701   5.066 -0.0071  0.1155  0.4545
 3156TIP3    H130883   4.041   5.627   5.093  1.2459 -0.4352  1.6253
 3156TIP3    H230884   4.098   5.696   4.971  0.3255 -1.5862  0.5230
 3157TIP3   OH230885   3.983   4.103   1.981 -0.4475 -0.9516  0.1000
 3157TIP3    H130886   3.924   4.178   1.974 -0.0140 -0.5278  0.7775
 3157TIP3    H230887   4.063   4.139   2.021 -0.1862 -1.7437  0.3211
 3158TIP3   OH230888   4.684   1.170  11.570  0.0728 -0.2272 -0.0148
 3158TIP3    H130889   4.595   1.172  11.535 -0.7483  0.0301  1.9279
 3158TIP3    H230890   4.725   1.095  11.528 -0.8283  0.0542 -1.4532
 3159TIP3   OH230891   1.744   4.261  17.010 -0.1660 -0.8139  0.4261
 3159TIP3    H130892   1.706   4.310  17.083  0.3170  0.7503 -0.3126
 3159TIP3    H230893   1.795   4.326  16.962 -0.2292 -1.8598 -1.1363
 3160TIP3   OH230894   2.298   2.893   4.095  0.9285 -0.0197 -0.0225
 3160TIP3    H130895   2.279   2.886   4.189 -2.1190  0.9765 -0.4457
 3160TIP3    H230896   2.321   2.804   4.069  0.0529 -0.6882  1.3619
 3161TIP3   OH230897   3.185   4.750  11.991  0.4752 -0.3138 -0.0453
 3161TIP3    H130898   3.162   4.841  11.970 -1.6965 -0.6434  0.6636
 3161TIP3    H230899   3.229   4.718  11.913  3.3582  1.9657  0.4887
 3162TIP3   OH230900   2.669   4.413   3.084 -0.2931  0.5318 -0.4125
 3162TIP3    H130901   2.748   4.467   3.075 -0.1294  0.1727 -1.2458
 3162TIP3    H230902   2.637   4.432   3.172  0.2108  1.3773 -0.3983
 3163TIP3   OH230903   6.469   1.933  13.460  0.0635  0.6301  0.0226
 3163TIP3    H130904   6.550   1.983  13.470 -0.6126  1.7718 -0.0588
 3163TIP3    H230905   6.402   1.985  13.505 -0.7891  0.1390 -0.6384
 3164TIP3   OH230906   2.446   0.224   2.472  1.0289 -0.2695  0.0804
 3164TIP3    H130907   2.374   0.161   2.483  0.7757  0.2335  1.4788
 3164TIP3    H230908   2.437   0.255   2.382 -0.7866  0.1117  0.3489
 3165TIP3   OH230909   6.189   4.169   6.229 -0.1378 -0.4520  0.0938
 3165TIP3    H130910   6.104   4.163   6.186  0.1694 -1.3384 -0.4230
 3165TIP3    H230911   6.169   4.180   6.322 -0.8535  2.9279 -0.3241
 3166TIP3   OH230912   3.896   1.226  14.952  0.3122 -0.0484 -0.0446
 3166TIP3    H130913   3.935   1.229  15.040 -0.1697 -1.0324  0.2093
 3166TIP3    H230914   3.871   1.317  14.934 -0.3706  0.0302  1.1934
 3167TIP3   OH230915   5.320   0.231   0.883 -0.5662  0.2147 -0.0374
 3167TIP3    H130916   5.350   0.140   0.875 -0.1423  0.4960 -2.0895
 3167TIP3    H230917   5.279   0.251   0.799 -1.4421  1.6760  0.6850
 3168TIP3   OH230918   2.637   1.843  12.402 -0.5958  0.6345 -0.0292
 3168TIP3    H130919   2.595   1.759  12.386 -1.0204  0.8825 -0.2363
 3168TIP3    H230920   2.565   1.907  12.403 -0.2062  1.0980 -0.6781
 3169TIP3   OH230921   3.202   6.575   5.915  0.0766  0.1144 -0.6019
 3169TIP3    H130922   3.137   6.623   5.864 -0.6758  0.1670  0.3851
 3169TIP3    H230923   3.225   6.635   5.986 -0.5593 -0.7976  0.4000
 3170TIP3   OH230924   3.142   0.765   1.094  0.0877 -0.5601  0.0600
 3170TIP3    H130925   3.237   0.764   1.091  0.0823 -1.0741 -0.1601
 3170TIP3    H230926   3.117   0.672   1.095 -0.4167 -0.4370 -0.3333
 3171TIP3   OH230927   1.043   5.403   2.325 -0.2481 -0.1531  0.2881
 3171TIP3    H130928   0.956   5.364   2.336 -0.2041 -0.3628 -0.0955
 3171TIP3    H230929   1.033   5.493   2.357 -0.4936 -0.3079  0.6524
 3172TIP3   OH230930   4.954   3.352  12.461  0.3657  0.1943  0.1321
 3172TIP3    H130931   4.889   3.417  12.432 -0.9202 -0.0864  2.1800
 3172TIP3    H230932   5.034   3.402  12.474 -0.1036  1.0229 -0.0738
 3173TIP3   OH230933   5.431   6.776  15.396  0.2567  0.1867 -0.0786
 3173TIP3    H130934   5.472   6.742  15.317  0.2647  0.1412 -0.0558
 3173TIP3    H230935   5.346   6.809  15.368 -0.7046 -1.8231  0.2363
 3174TIP3   OH230936   0.845   3.881   5.984  0.0821 -0.0854 -0.4097
 3174TIP3    H130937   0.826   3.840   5.900 -1.4564  0.4649 -0.3702
 3174TIP3    H230938   0.934   3.914   5.975  1.7366 -4.0005 -0.1447
 3175TIP3   OH230939   3.866   3.897  12.413 -0.3310 -0.0547 -0.2244
 3175TIP3    H130940   3.771   3.908  12.400 -0.3325  1.3451  0.7828
 3175TIP3    H230941   3.876   3.803  12.431 -1.4949 -0.2710 -0.5716
 3176TIP3   OH230942   0.038   5.268  12.990  0.0814 -0.3271 -0.1102
 3176TIP3    H130943   0.001   5.197  13.042  0.2215 -0.5085 -0.2585
 3176TIP3    H230944   0.119   5.292  13.036  0.8985 -1.3785 -0.9630
 3177TIP3   OH230945   3.819   4.940  12.794 -0.0852  0.0527  0.0485
 3177TIP3    H130946   3.801   4.863  12.741 -1.6294  0.1795  0.3649
 3177TIP3    H230947   3.893   4.914  12.849  0.3890 -0.6744 -0.8945
 3178TIP3   OH230948   4.512   1.545  11.913 -0.6093 -0.0173  0.1148
 3178TIP3    H130949   4.520   1.459  11.873 -2.4732 -0.6050  0.9233
 3178TIP3    H230950   4.600   1.583  11.906  0.4899 -2.3353  0.5992
 3179TIP3   OH230951   5.464   1.371  11.822  0.3634 -0.1870  0.2240
 3179TIP3    H130952   5.375   1.337  11.830  0.2707 -0.0127 -0.0921
 3179TIP3    H230953   5.474   1.391  11.729  0.4650  0.5363  0.3901
 3180TIP3   OH230954   1.011   5.283  12.954 -0.2825  0.4548  0.3926
 3180TIP3    H130955   1.017   5.366  13.002  0.7445  0.8409 -0.3712
 3180TIP3    H230956   0.970   5.223  13.016  0.2840  1.1451  1.4775
 3181TIP3   OH230957   5.576   4.962  15.244 -0.0856 -0.7365  0.4709
 3181TIP3    H130958   5.497   4.946  15.193  1.3145  0.3989 -2.2482
 3181TIP3    H230959   5.602   5.051  15.222  1.8330 -0.9837  1.4668
 3182TIP3   OH230960   1.619   4.153   5.398 -0.8695 -0.2082 -0.3603
 3182TIP3    H130961   1.652   4.065   5.384  0.0167 -0.0269  0.5082
 3182TIP3    H230962   1.652   4.204   5.324  1.2658  0.0815  0.7298
 3183TIP3   OH230963   5.050   5.779  16.787 -0.0350 -0.1780 -0.4828
 3183TIP3    H130964   5.112   5.719  16.826  1.1373  1.0808 -0.3413
 3183TIP3    H230965   5.028   5.739  16.702 -0.1154 -1.3004  0.0461
 3184TIP3   OH230966   3.213   2.875  13.007  0.1541 -0.0420  0.7111
 3184TIP3    H130967   3.121   2.858  13.026  0.4856 -1.9877  0.7448
 3184TIP3    H230968   3.260   2.837  13.081  1.0368  0.0462  0.2049
 3185TIP3   OH230969   1.634   3.274  11.244 -0.2095 -0.4955  0.5615
 3185TIP3    H130970   1.616   3.368  11.243  1.1236 -0.2156 -0.8447
 3185TIP3    H230971   1.648   3.253  11.336 -0.1808  0.7511  0.8509
 3186TIP3   OH230972   4.728   4.951  12.338 -0.3457 -0.1835 -0.5742
 3186TIP3    H130973   4.800   4.986  12.285  0.4721  0.6862  1.0530
 3186TIP3    H230974   4.747   4.858  12.346  0.7606  0.0758  0.0366
 3187TIP3   OH230975   2.021   2.259  11.893  0.3125 -0.6434  0.0312
 3187TIP3    H130976   1.936   2.271  11.850  0.2580 -0.4000  0.2072
 3187TIP3    H230977   2.080   2.236  11.821  0.1965 -0.3525 -0.1611
 3188TIP3   OH230978   1.092   5.657  14.107 -0.0578 -0.4459 -0.7743
 3188TIP3    H130979   1.031   5.731  14.100  1.3048  0.9168  0.7967
 3188TIP3    H230980   1.063   5.610  14.185 -1.4373 -2.1304 -2.2478
 3189TIP3   OH230981   4.505   0.545   2.778 -0.4375 -0.3498  0.0847
 3189TIP3    H130982   4.511   0.475   2.843 -2.4572 -0.1469  0.5305
 3189TIP3    H230983   4.422   0.530   2.734 -0.8612  1.7044  0.0986
 3190TIP3   OH230984   0.968   6.039  15.589 -0.0166  0.4002 -0.2728
 3190TIP3    H130985   0.883   6.066  15.554 -0.2095  0.6385  0.3647
 3190TIP3    H230986   1.030   6.060  15.519 -0.4369  0.5412 -0.6103
 3191TIP3   OH230987   1.233   2.634  13.812  0.4343 -0.2093 -0.2451
 3191TIP3    H130988   1.289   2.709  13.791  0.4499 -0.8916 -3.0296
 3191TIP3    H230989   1.151   2.673  13.843 -0.2908  1.1782 -3.4274
 3192TIP3   OH230990   1.847   1.951  17.090 -0.4977 -0.5004  0.3203
 3192TIP3    H130991   1.880   1.924  17.005 -0.8130 -2.2681  0.7292
 3192TIP3    H230992   1.767   2.000  17.070 -0.9423 -1.4827 -0.3813
 3193TIP3   OH230993   5.080   5.204   2.722 -0.1622 -0.6344  0.0047
 3193TIP3    H130994   5.017   5.217   2.793 -2.1573 -0.0515 -1.7530
 3193TIP3    H230995   5.026   5.184   2.646  1.7580  0.4623 -1.7446
 3194TIP3   OH230996   4.436   5.891   4.933 -0.4840 -0.3463 -0.4161
 3194TIP3    H130997   4.401   5.897   5.021 -0.9000 -0.1541 -0.5917
 3194TIP3    H230998   4.470   5.978   4.914  0.2779 -0.5755 -0.1785
 3195TIP3   OH230999   4.673   2.392  16.082 -0.1162  0.5167  0.4881
 3195TIP3    H131000   4.589   2.364  16.045 -1.2909  1.3200  2.4110
 3195TIP3    H231001   4.704   2.315  16.130  0.0292  0.3732  0.1701
 3196TIP3   OH231002   3.493   2.032   6.502 -0.0670  0.3916  0.4455
 3196TIP3    H131003   3.428   2.095   6.531  1.8477  3.2652 -0.9537
 3196TIP3    H231004   3.457   1.996   6.421 -0.8234  0.2964  0.8165
 3197TIP3   OH231005   2.243   5.213   5.649 -0.0937 -0.8167  0.1642
 3197TIP3    H131006   2.197   5.175   5.574  0.3302 -1.3333  0.1607
 3197TIP3    H231007   2.260   5.304   5.622  0.4292 -1.1095 -0.5486
 3198TIP3   OH231008   3.843   5.084  11.878  0.1521 -0.4152  0.8912
 3198TIP3    H131009   3.756   5.062  11.909 -0.6538  1.2567 -0.0277
 3198TIP3    H231010   3.844   5.180  11.874  1.5693 -0.4364 -0.3674
 3199TIP3   OH231011   4.594   5.181  16.731 -0.5419  0.0322  0.0925
 3199TIP3    H131012   4.578   5.259  16.677 -0.5934 -1.1056 -1.6366
 3199TIP3    H231013   4.508   5.142  16.743 -0.3968 -0.3312 -0.0120
 3200TIP3   OH231014   3.383   6.226  11.403 -0.4489 -0.2237 -0.1613
 3200TIP3    H131015   3.410   6.307  11.360 -0.0338  0.3173  1.0661
 3200TIP3    H231016   3.292   6.241  11.426 -0.4561 -0.2194 -0.1921
 3201TIP3   OH231017   6.327   3.713   2.585  0.0296  0.3366 -0.1865
 3201TIP3    H131018   6.247   3.766   2.582 -1.2936 -1.5988 -0.6307
 3201TIP3    H231019   6.300   3.626   2.556  1.4089 -1.4646  3.2608
 3202TIP3   OH231020   1.710   2.279  13.040 -0.4352  0.2854  0.0501
 3202TIP3    H131021   1.757   2.356  13.007  1.6263 -1.1804 -0.7218
 3202TIP3    H231022   1.748   2.206  12.990 -1.3038 -1.3817  1.7198
 3203TIP3   OH231023   5.839   3.608   2.140  0.1572 -0.4861 -0.1741
 3203TIP3    H131024   5.839   3.586   2.047  0.9691  0.9150 -0.5315
 3203TIP3    H231025   5.836   3.524   2.185  0.2326 -1.1927 -1.4597
 3204TIP3   OH231026   2.223   1.960  13.753 -0.2302 -0.2248 -0.1094
 3204TIP3    H131027   2.159   2.008  13.807  0.4281  0.5476  0.0017
 3204TIP3    H231028   2.259   1.894  13.811 -0.5581 -0.3310 -0.0235
 3205TIP3   OH231029   2.119   0.044  11.667 -0.3406 -0.4695 -0.0288
 3205TIP3    H131030   2.202   0.002  11.644 -0.4364  0.1500 -1.6326
 3205TIP3    H231031   2.115   0.038  11.763  1.3327 -0.8985  0.0473
 3206TIP3   OH231032   4.309   0.575   3.363  0.5995  0.1497 -0.3706
 3206TIP3    H131033   4.403   0.594   3.376  0.8153 -0.5636 -0.8613
 3206TIP3    H231034   4.305   0.531   3.279  0.2589 -2.8466  1.0727
 3207TIP3   OH231035   2.130   4.069   3.175 -0.1028  0.1331 -0.4688
 3207TIP3    H131036   2.092   4.096   3.258  1.5047 -0.5719  0.5612
 3207TIP3    H231037   2.095   3.981   3.160  1.5205 -0.8088  0.8356
 3208TIP3   OH231038   0.321   3.244  17.081 -0.3110 -0.1676 -0.0547
 3208TIP3    H131039   0.308   3.169  17.138 -0.1089  0.6097  1.0592
 3208TIP3    H231040   0.411   3.235  17.048  0.2707  0.3616  1.3047
 3209TIP3   OH231041   4.069   4.064  11.137  0.4838 -0.1397  0.0793
 3209TIP3    H131042   4.096   3.995  11.197 -0.0384  2.2064  3.3150
 3209TIP3    H231043   4.031   4.131  11.194  0.3703  2.5440 -2.8774
 3210TIP3   OH231044   0.246   5.958   4.574 -0.4525  0.0441  0.9343
 3210TIP3    H131045   0.153   5.976   4.581 -0.4035  0.7428  0.0760
 3210TIP3    H231046   0.270   5.919   4.658 -1.3233  0.7305  1.5186
 3211TIP3   OH231047   3.839   4.963  11.610 -0.4460  0.2947 -0.0965
 3211TIP3    H131048   3.886   5.045  11.594  1.2628 -0.5319  0.4636
 3211TIP3    H231049   3.849   4.948  11.704 -1.2275 -0.2739 -0.0966
 3212TIP3   OH231050   6.134   5.714   0.955 -0.2937 -1.0723 -0.3483
 3212TIP3    H131051   6.095   5.690   0.871  0.6815 -1.4094 -0.7196
 3212TIP3    H231052   6.207   5.653   0.966 -0.5334 -1.1697  0.8526
 3213TIP3   OH231053   0.355   0.907  16.239  0.1539 -0.6141 -0.4238
 3213TIP3    H131054   0.423   0.932  16.302  0.2137 -1.4497 -0.1367
 3213TIP3    H231055   0.276   0.948  16.272  0.9504  2.9047 -2.3598
 3214TIP3   OH231056   6.317   0.815  13.687  0.6924 -0.5736  0.4784
 3214TIP3    H131057   6.337   0.895  13.736  0.6651 -0.8012  0.8662
 3214TIP3    H231058   6.228   0.792  13.714  0.5836 -0.5617  0.1304
 3215TIP3   OH231059   5.690   6.431  11.696 -0.2162 -0.2637 -0.1033
 3215TIP3    H131060   5.642   6.514  11.698  1.7947  0.9687 -0.3542
 3215TIP3    H231061   5.753   6.442  11.625 -0.0743 -2.1247 -0.3005
 3216TIP3   OH231062   5.643   3.817   3.706 -0.0477  0.0122 -0.3552
 3216TIP3    H131063   5.676   3.731   3.731 -0.2423  0.0460  0.0231
 3216TIP3    H231064   5.642   3.867   3.788  3.2205  1.4597 -1.0272
 3217TIP3   OH231065   2.698   2.647  16.238  0.0086  0.0906  0.4669
 3217TIP3    H131066   2.675   2.732  16.275  1.3632  0.6316  0.1095
 3217TIP3    H231067   2.615   2.611  16.207 -1.1545 -0.2120  3.5687
 3218TIP3   OH231068   0.180   3.956  11.567  0.0919 -0.7038 -0.0489
 3218TIP3    H131069   0.271   3.979  11.586 -0.4245  0.0757  1.6373
 3218TIP3    H231070   0.185   3.867  11.532  1.4098 -1.1836  1.2662
 3219TIP3   OH231071   2.602   6.445   2.811  0.1419  0.5192  0.0898
 3219TIP3    H131072   2.686   6.476   2.775 -0.0187  0.7816 -0.0654
 3219TIP3    H231073   2.612   6.456   2.905  1.2612 -1.9027  0.3243
 3220TIP3   OH231074   0.796   4.014   3.082  0.0036  0.6978  0.0090
 3220TIP3    H131075   0.745   4.087   3.118  1.7813  2.2603 -0.4734
 3220TIP3    H231076   0.876   4.055   3.049  0.0769 -1.1889 -2.3716
 3221TIP3   OH231077   6.466   5.196  14.063 -0.8792  0.0093 -0.2795
 3221TIP3    H131078   6.412   5.144  14.122 -0.7139  0.6199  0.4258
 3221TIP3    H231079   6.513   5.257  14.120  1.0442 -0.9076 -0.8178
 3222TIP3   OH231080   6.475   5.030  13.750  0.7433 -0.1854  0.0360
 3222TIP3    H131081   6.520   5.109  13.780  0.9722 -0.1835 -0.3032
 3222TIP3    H231082   6.382   5.053  13.752  0.6292 -0.6538  2.0968
 3223TIP3   OH231083   2.783   3.577  13.080  0.6508  0.3665 -0.3506
 3223TIP3    H131084   2.803   3.484  13.069  2.4628  0.5583  0.9034
 3223TIP3    H231085   2.846   3.622  13.022 -0.6024  0.8225 -1.4011
 3224TIP3   OH231086   0.737   5.293  12.866 -0.4646  0.3308 -0.1334
 3224TIP3    H131087   0.701   5.274  12.952  1.2502  0.0422  0.5525
 3224TIP3    H231088   0.830   5.310  12.881 -0.2834  1.1007 -1.8177
 3225TIP3   OH231089   5.473   1.497  15.390  0.2837  0.5027  0.5576
 3225TIP3    H131090   5.486   1.513  15.296 -3.3921  0.1942 -0.1535
 3225TIP3    H231091   5.484   1.583  15.430 -1.5477  1.4230 -0.7402
 3226TIP3   OH231092   4.253   1.309  10.756 -0.5286  0.4426  0.4049
 3226TIP3    H131093   4.196   1.378  10.720 -0.1407 -0.2755 -1.7115
 3226TIP3    H231094   4.323   1.299  10.691  0.9869 -0.0077  2.0481
 3227TIP3   OH231095   2.873   3.838  13.670  0.9281  0.3873  0.1332
 3227TIP3    H131096   2.797   3.782  13.653  0.0606  1.2918  0.8686
 3227TIP3    H231097   2.901   3.814  13.759 -0.0294  1.7021  0.8329
 3228TIP3   OH231098   5.189   2.781  11.132  0.1677 -0.0035  0.0352
 3228TIP3    H131099   5.095   2.778  11.115  0.4551  1.6432 -2.3857
 3228TIP3    H231100   5.203   2.867  11.174  0.6559  0.0385 -0.2027
 3229TIP3   OH231101   5.969   1.960   4.852  0.5206  0.0188  0.8471
 3229TIP3    H131102   5.982   2.030   4.788 -0.6800 -0.9698 -0.5554
 3229TIP3    H231103   6.033   1.978   4.921  1.7416  1.2384 -0.5305
 3230TIP3   OH231104   0.999   3.128   0.167  0.2310  0.1884  0.1269
 3230TIP3    H131105   0.907   3.152   0.152 -0.1327 -0.6879  0.8512
 3230TIP3    H231106   1.006   3.122   0.263  1.4888  1.9059  0.1877
 3231TIP3   OH231107   3.712   1.505   1.987 -0.2701 -0.3723  0.0132
 3231TIP3    H131108   3.652   1.579   1.995 -0.1131 -0.2013 -0.3833
 3231TIP3    H231109   3.765   1.525   1.910  0.3681 -0.4705  0.4215
 3232TIP3   OH231110   3.190   6.329   3.236 -0.2803  0.3564  0.2886
 3232TIP3    H131111   3.246   6.289   3.303 -0.3160  2.4823  1.6858
 3232TIP3    H231112   3.111   6.276   3.236  0.0112 -0.1129  1.4283
 3233TIP3   OH231113   4.081   0.858  15.800 -0.2076 -0.0771  0.4845
 3233TIP3    H131114   4.029   0.913  15.742 -1.1944 -0.9724  0.4861
 3233TIP3    H231115   4.016   0.813  15.855  0.3163 -2.9757 -1.0470
 3234TIP3   OH231116   6.025   4.605   1.851 -0.2502  0.5818  0.0061
 3234TIP3    H131117   5.960   4.535   1.856 -1.9210  2.1014  0.8036
 3234TIP3    H231118   6.060   4.599   1.762 -0.0226 -1.4950  0.1909
 3235TIP3   OH231119   2.411   6.709  16.369 -0.2346 -0.4254  1.0812
 3235TIP3    H131120   2.342   6.768  16.398 -1.4399 -0.0948 -2.0370
 3235TIP3    H231121   2.388   6.624  16.406 -2.1131 -0.2213  0.4791
 3236TIP3   OH231122   6.345   3.877   0.053 -0.1299  0.4026  0.1932
 3236TIP3    H131123   6.268   3.872   0.110  0.1439 -0.1913  0.5206
 3236TIP3    H231124   6.390   3.794   0.066  0.5908  0.7578  0.0343
 3237TIP3   OH231125   5.036   0.873  11.611  0.3817 -0.1951 -0.2403
 3237TIP3    H131126   4.957   0.906  11.653  0.1078  0.9732 -1.5751
 3237TIP3    H231127   5.103   0.877  11.679  0.3529  3.1461 -0.2529
 3238TIP3   OH231128   5.674   2.013   4.671 -0.5740 -0.2164 -0.1244
 3238TIP3    H131129   5.665   1.941   4.609 -0.8043 -1.8113  1.6727
 3238TIP3    H231130   5.617   1.990   4.744 -1.8094  2.5256 -0.0675
 3239TIP3   OH231131   1.119   4.104  11.973  0.2844  0.6346 -0.3767
 3239TIP3    H131132   1.158   4.191  11.975  0.1927  0.6846  1.3501
 3239TIP3    H231133   1.177   4.052  11.919  2.3242  0.9246  1.4035
 3240TIP3   OH231134   6.053   2.792   5.005 -0.2161  0.0141  0.1346
 3240TIP3    H131135   5.971   2.748   5.030 -0.1055  0.4674  1.4163
 3240TIP3    H231136   6.107   2.723   4.968 -1.6352 -0.0584 -2.0105
 3241TIP3   OH231137   3.398   1.748  16.257  0.2563  0.1042  0.4313
 3241TIP3    H131138   3.466   1.769  16.193 -0.4587 -0.0792 -0.4066
 3241TIP3    H231139   3.446   1.730  16.338  1.0796  1.7222  0.3286
 3242TIP3   OH231140   5.624   3.647   1.376  0.3683 -0.1431 -0.0962
 3242TIP3    H131141   5.566   3.685   1.310  1.5372  0.6989 -0.6604
 3242TIP3    H231142   5.565   3.600   1.434 -0.7287 -0.7585 -1.6193
 3243TIP3   OH231143   6.742   3.528  13.176 -0.3980  0.2008  0.3050
 3243TIP3    H131144   6.753   3.568  13.263  0.9605 -0.5702  0.5158
 3243TIP3    H231145   6.824   3.547  13.130  0.1582 -1.9839  0.2931
 3244TIP3   OH231146   1.372   2.283  13.470  0.4051  0.4068 -0.4978
 3244TIP3    H131147   1.388   2.373  13.441  0.2801  0.9181  0.9531
 3244TIP3    H231148   1.277   2.278  13.481  0.5208  0.4868  0.6028
 3245TIP3   OH231149   1.423   6.146   2.008  1.2937 -0.5861 -0.2652
 3245TIP3    H131150   1.335   6.178   1.991  1.5472  0.7937  0.8494
 3245TIP3    H231151   1.411   6.060   2.046  0.4921 -0.8662 -1.1195
 3246TIP3   OH231152   1.063   4.486  11.582  0.0356  0.1165  0.0395
 3246TIP3    H131153   1.048   4.581  11.581 -1.8656 -0.1494 -0.5730
 3246TIP3    H231154   1.060   4.461  11.489  2.5955 -0.3032 -0.0064
 3247TIP3   OH231155   1.600   4.145  16.458  0.2384 -0.1827  0.2076
 3247TIP3    H131156   1.587   4.214  16.524 -1.7993  1.5494 -1.8741
 3247TIP3    H231157   1.555   4.069  16.494 -0.5085  0.6122  0.9973
 3248TIP3   OH231158   3.099   4.015  12.539  0.4870 -0.3932 -0.5393
 3248TIP3    H131159   3.077   4.082  12.475  0.3484 -2.0045 -2.2496
 3248TIP3    H231160   3.069   4.051  12.623 -1.2234  0.8964 -1.6455
 3249TIP3   OH231161   4.018   6.633   2.838 -0.0943 -0.2442  0.4313
 3249TIP3    H131162   3.969   6.565   2.792  0.0399  1.1616 -1.8881
 3249TIP3    H231163   3.953   6.699   2.862  0.3134  0.6623 -0.8589
 3250TIP3   OH231164   6.467   2.489  12.432  0.3900 -0.1821 -0.1022
 3250TIP3    H131165   6.546   2.524  12.389 -0.4132  0.5875 -1.0074
 3250TIP3    H231166   6.411   2.461  12.360 -1.3157  1.8347  0.3414
 3251TIP3   OH231167   0.265   6.062   1.857  0.4917  0.2698 -0.2597
 3251TIP3    H131168   0.248   6.020   1.941  2.8102 -4.8401 -1.9144
 3251TIP3    H231169   0.360   6.076   1.856  0.5171  0.2130 -1.9191
 3252TIP3   OH231170   3.972   1.850  16.573  0.4073  0.1203  0.4098
 3252TIP3    H131171   3.881   1.828  16.594  0.0669 -0.8563 -1.8337
 3252TIP3    H231172   4.023   1.777  16.607 -0.0412 -1.0193 -1.2745
 3253TIP3   OH231173   6.230   1.890  12.896 -0.2227 -0.1218 -0.0519
 3253TIP3    H131174   6.293   1.848  12.836 -0.2153 -0.9529  0.5191
 3253TIP3    H231175   6.280   1.906  12.976  0.5896  3.5641 -1.1016
 3254TIP3   OH231176   2.824   5.009   5.245  0.6653 -0.0480 -0.4363
 3254TIP3    H131177   2.887   5.046   5.306  0.4983 -1.4252  0.6089
 3254TIP3    H231178   2.753   4.976   5.300  0.3517 -1.0084 -1.3840
 3255TIP3   OH231179   1.794   0.704   0.447 -0.0565  0.2261 -0.1068
 3255TIP3    H131180   1.744   0.761   0.505  0.3636  0.1204  0.3747
 3255TIP3    H231181   1.765   0.727   0.359  1.0358  2.1133 -0.0212
 3256TIP3   OH231182   1.197   5.090  13.535 -0.7733 -0.1756 -0.0862
 3256TIP3    H131183   1.253   5.167  13.541 -1.6996  0.4622  0.6829
 3256TIP3    H231184   1.152   5.099  13.451  0.3254 -0.7392 -0.7498
 3257TIP3   OH231185   2.869   5.191  14.759  0.0068 -0.3593 -0.0057
 3257TIP3    H131186   2.811   5.132  14.807  1.2785 -1.2475  0.5192
 3257TIP3    H231187   2.905   5.136  14.689 -0.3926  0.3975 -0.8065
 3258TIP3   OH231188   4.643   2.908   0.134  0.2900  0.7895  0.5101
 3258TIP3    H131189   4.668   2.873   0.048  0.0944  2.5042 -0.2837
 3258TIP3    H231190   4.705   2.980   0.149  1.0602 -0.1832  2.3586
 3259TIP3   OH231191   4.456   4.812   1.988 -0.5172  0.1134  0.1076
 3259TIP3    H131192   4.369   4.809   1.948 -0.3093 -1.9788 -0.2881
 3259TIP3    H231193   4.517   4.794   1.916 -0.1592 -4.2482  1.2143
 3260TIP3   OH231194   6.536   4.569  13.820  0.1097 -0.1890  0.6512
 3260TIP3    H131195   6.595   4.524  13.881  2.8216  0.8437 -0.9868
 3260TIP3    H231196   6.516   4.652  13.863 -2.8057 -1.7393  2.5519
 3261TIP3   OH231197   1.542   3.097  10.534  0.5033 -0.8435 -0.3427
 3261TIP3    H131198   1.476   3.036  10.567 -1.2359  1.0343 -0.1897
 3261TIP3    H231199   1.516   3.182  10.568  3.6565 -0.1276  0.6600
 3262TIP3   OH231200   4.774   3.241  15.785 -0.1663 -0.2969  0.1792
 3262TIP3    H131201   4.825   3.190  15.721  0.4046  1.0560 -0.4768
 3262TIP3    H231202   4.692   3.261  15.739  0.3766  0.9566 -0.2902
 3263TIP3   OH231203   3.248   2.937  15.586 -0.3725  0.7200  0.4767
 3263TIP3    H131204   3.172   2.924  15.530  1.6271 -3.0251 -1.7412
 3263TIP3    H231205   3.219   2.912  15.674 -1.9137  0.2703 -0.1418
 3264TIP3   OH231206   5.867   4.425   3.857 -0.3282 -0.1098  0.2235
 3264TIP3    H131207   5.884   4.519   3.847 -0.6903 -0.1224 -0.6566
 3264TIP3    H231208   5.948   4.389   3.891  0.4465  0.2680 -1.1390
 3265TIP3   OH231209   2.688   1.290   1.324  0.3113 -0.5324  0.0934
 3265TIP3    H131210   2.711   1.197   1.323  0.6569 -0.4530 -1.2570
 3265TIP3    H231211   2.607   1.294   1.375 -0.0348 -1.6596 -0.3437
 3266TIP3   OH231212   3.615   5.169  14.373  0.3401 -0.6098  0.3508
 3266TIP3    H131213   3.589   5.244  14.427 -0.3396 -0.0738 -0.6852
 3266TIP3    H231214   3.710   5.165  14.382  0.2542 -0.4744  1.4946
 3267TIP3   OH231215   6.672   5.817  14.796  0.0641 -0.1462 -0.3124
 3267TIP3    H131216   6.614   5.792  14.724 -0.0506  1.8019 -0.9448
 3267TIP3    H231217   6.630   5.780  14.874 -0.1074 -1.8022 -1.1477
 3268TIP3   OH231218   1.711   0.852   4.847 -0.6151 -0.2775 -0.0040
 3268TIP3    H131219   1.727   0.759   4.859  1.0881  0.2175  2.4491
 3268TIP3    H231220   1.799   0.890   4.838 -1.0395  1.3351  1.8911
 3269TIP3   OH231221   1.152   2.278   5.333  0.4131 -0.4162  0.0286
 3269TIP3    H131222   1.180   2.212   5.395  0.8825 -0.0313  0.2350
 3269TIP3    H231223   1.233   2.324   5.309  0.5240 -1.6534 -2.1824
 3270TIP3   OH231224   4.676   4.912  15.392  0.2772 -0.2034 -0.0201
 3270TIP3    H131225   4.641   4.953  15.471 -0.2527  0.3208 -0.5188
 3270TIP3    H231226   4.741   4.975  15.359  1.4226 -0.9765  0.6639
 3271TIP3   OH231227   1.659   1.872  13.299  0.2278  0.3350  0.3049
 3271TIP3    H131228   1.676   1.858  13.206  1.4820 -1.0391  0.7079
 3271TIP3    H231229   1.746   1.880  13.339 -0.2906  2.0287  1.2395
 3272TIP3   OH231230   1.224   2.910   5.236 -0.4676  0.4659 -0.0461
 3272TIP3    H131231   1.129   2.912   5.236 -0.5363 -1.4396 -0.0786
 3272TIP3    H231232   1.247   2.833   5.288  1.0047 -0.4168 -1.8963
 3273TIP3   OH231233   5.314   6.441   0.901  0.0726  0.0838  0.1453
 3273TIP3    H131234   5.392   6.453   0.956 -0.6472  0.3654  1.1456
 3273TIP3    H231235   5.348   6.430   0.813  1.2553  0.0499  0.5843
 3274TIP3   OH231236   0.050   3.507   2.239 -0.2153 -0.1605  0.5135
 3274TIP3    H131237   0.123   3.477   2.186 -0.5432 -0.5334  0.2663
 3274TIP3    H231238   0.025   3.431   2.292  0.0608  0.1837  1.1523
 3275TIP3   OH231239   6.457   1.177   3.470 -0.5966  0.8830  0.2354
 3275TIP3    H131240   6.391   1.115   3.499  0.6104 -0.4850  0.1938
 3275TIP3    H231241   6.410   1.240   3.416 -1.4806 -1.6566 -2.1811
 3276TIP3   OH231242   6.691   0.567  12.842 -0.1763 -0.1855  0.0808
 3276TIP3    H131243   6.614   0.561  12.898 -1.1747 -3.0384 -1.3550
 3276TIP3    H231244   6.762   0.529  12.894 -0.5510 -0.6893  0.2309
 3277TIP3   OH231245   2.738   5.497  12.906 -0.2746  1.0099 -0.8196
 3277TIP3    H131246   2.658   5.449  12.928  0.2567  0.6118  0.3190
 3277TIP3    H231247   2.744   5.566  12.973  0.6190  0.6817 -0.5493
 3278TIP3   OH231248   6.267   2.116  13.567  0.6212  0.7367  0.2342
 3278TIP3    H131249   6.263   2.074  13.652 -1.9326 -1.4356 -0.8160
 3278TIP3    H231250   6.193   2.177  13.567 -0.6779 -0.7504 -1.0371
 3279TIP3   OH231251   5.152   0.298  15.960  0.0574  0.1802 -0.4975
 3279TIP3    H131252   5.199   0.344  16.030 -1.7094  2.1825 -0.5238
 3279TIP3    H231253   5.060   0.316  15.977 -0.6324 -2.0491 -1.5218
 3280TIP3   OH231254   0.362   1.788  14.239  0.0208 -0.1696 -0.2423
 3280TIP3    H131255   0.401   1.820  14.320  0.6977 -1.2150 -0.1314
 3280TIP3    H231256   0.436   1.756  14.188 -0.3959  0.4935 -1.2871
 3281TIP3   OH231257   0.829   0.688   4.540 -0.1437 -0.4220  0.4915
 3281TIP3    H131258   0.781   0.747   4.599 -0.1269 -0.1995  0.2829
 3281TIP3    H231259   0.886   0.638   4.599  0.0208 -0.0571  0.6443
 3282TIP3   OH231260   1.735   0.777  16.491  0.1545 -0.6415  0.2168
 3282TIP3    H131261   1.663   0.776  16.428 -0.3357 -0.0986  0.7531
 3282TIP3    H231262   1.807   0.819  16.444  0.3406 -1.7716 -0.5404
 3283TIP3   OH231263   4.168   0.754   0.394 -0.2117  0.3974  0.3824
 3283TIP3    H131264   4.144   0.694   0.465  0.1241  1.2255  1.2122
 3283TIP3    H231265   4.091   0.754   0.337 -0.6855  0.1033  1.0018
 3284TIP3   OH231266   0.686   3.700   1.732  0.0412  0.0900 -0.6541
 3284TIP3    H131267   0.609   3.757   1.733 -1.0747 -1.3400 -1.0583
 3284TIP3    H231268   0.652   3.614   1.757  1.7538 -0.3198  0.4233
 3285TIP3   OH231269   6.178   5.689  15.824 -0.2628 -0.3817  0.3650
 3285TIP3    H131270   6.192   5.772  15.779 -1.0550  0.4991  1.6945
 3285TIP3    H231271   6.101   5.651  15.782  0.1465 -0.4984 -0.2944
 3286TIP3   OH231272   1.273   1.318  13.962  0.1840 -0.1598  0.5088
 3286TIP3    H131273   1.263   1.224  13.951  0.3589 -0.3101  1.5694
 3286TIP3    H231274   1.357   1.338  13.922  1.1669 -0.8135  2.1770
 3287TIP3   OH231275   2.001   3.584   4.695 -0.4956 -0.0634  0.5567
 3287TIP3    H131276   1.952   3.574   4.614  0.0324 -0.1594  0.2454
 3287TIP3    H231277   1.983   3.504   4.744 -0.2634 -0.3143  0.2328
 3288TIP3   OH231278   5.928   6.573  13.571 -0.0704 -0.0491 -0.2591
 3288TIP3    H131279   5.962   6.576  13.482 -0.6517  0.9276 -0.4513
 3288TIP3    H231280   5.996   6.615  13.624 -0.6341  1.2688 -0.5479
 3289TIP3   OH231281   3.856   6.554   4.039 -0.0986 -0.1512 -0.0259
 3289TIP3    H131282   3.930   6.562   3.980 -1.1297 -0.2177 -1.3714
 3289TIP3    H231283   3.849   6.640   4.081 -0.8597  0.7274 -1.8733
 3290TIP3   OH231284   0.632   6.095   1.465  0.0623  0.3133  0.3304
 3290TIP3    H131285   0.703   6.094   1.529 -0.3925 -0.6909  0.8509
 3290TIP3    H231286   0.562   6.146   1.508 -0.9155 -1.8327  1.4568
 3291TIP3   OH231287   0.234   2.683   2.968  0.6614 -0.4066  0.2060
 3291TIP3    H131288   0.266   2.714   2.884 -0.3458 -0.4953 -0.2282
 3291TIP3    H231289   0.225   2.762   3.021 -1.2658  0.0254 -0.6772
 3292TIP3   OH231290   2.806   2.627   3.263  0.2591  0.3440  0.5266
 3292TIP3    H131291   2.794   2.696   3.198 -1.4111 -0.2507  0.1494
 3292TIP3    H231292   2.749   2.556   3.233 -0.1333 -0.1636  2.3340
 3293TIP3   OH231293   6.333   5.134   4.321 -0.4669  0.2470 -0.0825
 3293TIP3    H131294   6.289   5.056   4.353  1.2427 -0.5971  0.2843
 3293TIP3    H231295   6.375   5.106   4.239  0.6071  0.6287  0.3299
 3294TIP3   OH231296   0.454   3.400  11.813 -0.1034  0.6810  0.2287
 3294TIP3    H131297   0.432   3.402  11.720  1.1379  0.9534 -0.0732
 3294TIP3    H231298   0.375   3.434  11.857 -1.2030 -0.6877 -0.6026
 3295TIP3   OH231299   4.014   1.865  16.290 -0.3740 -0.8652  0.3423
 3295TIP3    H131300   3.934   1.909  16.262  0.3692 -0.6199 -1.5188
 3295TIP3    H231301   4.021   1.885  16.384 -1.3705  0.9002  0.0795
 3296TIP3   OH231302   3.398   4.495   4.745 -0.2475  0.0220 -0.2207
 3296TIP3    H131303   3.455   4.525   4.816 -1.6300 -0.0357  0.9577
 3296TIP3    H231304   3.427   4.546   4.669  1.0032  0.3849  0.4576
 3297TIP3   OH231305   1.467   5.365  11.638 -0.2305  0.6541 -0.1891
 3297TIP3    H131306   1.553   5.323  11.630  0.1137  1.1892  0.6461
 3297TIP3    H231307   1.405   5.297  11.611  0.3933 -0.0108  0.0256
 3298TIP3   OH231308   2.900   3.660  14.796  0.2645  0.0056 -0.2067
 3298TIP3    H131309   2.926   3.601  14.868 -2.0117 -1.1582 -0.2357
 3298TIP3    H231310   2.866   3.738  14.841 -0.7143 -0.5233  0.0010
 3299TIP3   OH231311   1.692   4.281  15.165  0.1296 -0.0750  0.3805
 3299TIP3    H131312   1.699   4.332  15.246 -0.1806 -0.4196  0.6283
 3299TIP3    H231313   1.599   4.278  15.146  0.1505 -0.4848  0.3249
 3300TIP3   OH231314   4.215   5.617  12.094  0.2913  0.0889 -0.9392
 3300TIP3    H131315   4.227   5.690  12.032  0.4381  0.2521 -0.7187
 3300TIP3    H231316   4.303   5.585  12.111  0.5751  1.8580  1.3652
 3301TIP3   OH231317   6.625   1.082  13.826  1.0648 -0.0435 -0.4926
 3301TIP3    H131318   6.625   1.153  13.891 -0.1074  0.8697 -1.4245
 3301TIP3    H231319   6.636   1.002  13.877 -0.5046  0.5795  0.9332
 3302TIP3   OH231320   4.146   1.677   2.492 -0.0058 -0.5024  0.0999
 3302TIP3    H131321   4.076   1.655   2.430  1.7497  0.2324 -2.2960
 3302TIP3    H231322   4.140   1.610   2.560 -0.4233 -3.0060 -2.2340
 3303TIP3   OH231323   0.816   6.778  11.020  0.6328 -0.2323 -0.3275
 3303TIP3    H131324   0.871   6.739  10.952 -0.5145  0.6461 -1.8201
 3303TIP3    H231325   0.775   6.853  10.978 -0.2065  0.2936  1.3277
 3304TIP3   OH231326   1.720   4.066   5.124  0.1819  0.1236  0.0189
 3304TIP3    H131327   1.704   4.038   5.034  0.1314 -0.3942  0.1878
 3304TIP3    H231328   1.807   4.105   5.123  0.4535 -0.4876 -0.1153
 3305TIP3   OH231329   1.762   1.522  16.787 -0.3004 -0.0698  0.7940
 3305TIP3    H131330   1.831   1.457  16.775  0.0824 -0.1879  3.1391
 3305TIP3    H231331   1.734   1.511  16.878 -2.6762  0.7176  0.2441
 3306TIP3   OH231332   4.698   1.477  14.324  0.1775  0.0660  0.4533
 3306TIP3    H131333   4.735   1.422  14.255  0.2746  0.2171  0.3846
 3306TIP3    H231334   4.704   1.424  14.403 -1.7492 -0.9112  0.0065
 3307TIP3   OH231335   1.842   6.309  13.605 -0.2941 -0.4643 -0.0455
 3307TIP3    H131336   1.810   6.299  13.695  0.9928  0.1309  0.5025
 3307TIP3    H231337   1.836   6.221  13.568 -3.4765 -0.2326 -0.3351
 3308TIP3   OH231338   2.993   5.594  15.826 -0.3114 -0.3749  0.9771
 3308TIP3    H131339   3.037   5.621  15.745 -1.4489  2.5490  1.2035
 3308TIP3    H231340   3.063   5.587  15.890  0.1175  2.7100  0.9718
 3309TIP3   OH231341   1.000   1.926   2.728 -0.1108  0.1231 -0.1958
 3309TIP3    H131342   1.092   1.952   2.723  0.2646 -0.9368  0.7755
 3309TIP3    H231343   1.002   1.836   2.761 -1.5370  0.5740  1.2681
 3310TIP3   OH231344   3.224   4.891   2.070 -0.3037 -0.1943 -0.5657
 3310TIP3    H131345   3.265   4.864   2.153 -0.8240  1.5063  0.2833
 3310TIP3    H231346   3.297   4.900   2.009  0.1511 -0.8857 -0.1455
 3311TIP3   OH231347   0.731   6.664   5.679 -0.1287 -0.1615  0.2210
 3311TIP3    H131348   0.752   6.693   5.767  0.4701  1.7715 -0.5013
 3311TIP3    H231349   0.643   6.698   5.663  1.0869  2.7171 -1.1191
 3312TIP3   OH231350   0.748   0.751  13.667 -0.1386  0.2365 -0.0993
 3312TIP3    H131351   0.786   0.815  13.606  0.9334 -0.4960 -0.2288
 3312TIP3    H231352   0.654   0.758  13.653  0.0841 -0.1072 -2.0807
 3313TIP3   OH231353   0.120   2.113  11.934 -0.6172 -0.6079  0.3488
 3313TIP3    H131354   0.189   2.178  11.949 -0.1004 -0.4329 -2.2371
 3313TIP3    H231355   0.159   2.030  11.961 -1.0425 -0.0187  3.0431
 3314TIP3   OH231356   2.639   4.202   1.550  0.2795 -0.2360 -0.8993
 3314TIP3    H131357   2.618   4.197   1.457  1.9046  1.0394 -1.3846
 3314TIP3    H231358   2.711   4.265   1.555 -1.4571  1.7773  1.5231
 3315TIP3   OH231359   3.218   0.389  12.006 -0.1226 -0.2591 -0.7161
 3315TIP3    H131360   3.275   0.312  12.011 -1.8724 -1.6959 -1.7191
 3315TIP3    H231361   3.264   0.455  12.058  0.3962 -2.6482  2.2075
 3316TIP3   OH231362   1.855   6.735  15.353 -0.1924  0.6965  0.2795
 3316TIP3    H131363   1.800   6.813  15.359 -0.1330  0.8709 -1.1037
 3316TIP3    H231364   1.878   6.729  15.260 -0.6067 -1.2502  0.2629
 3317TIP3   OH231365   5.149   3.046  15.816  0.3181  0.2528 -0.8316
 3317TIP3    H131366   5.089   2.976  15.791  0.8932 -1.9894  3.2635
 3317TIP3    H231367   5.230   3.026  15.769  0.3998 -1.7793  0.0853
 3318TIP3   OH231368   6.310   3.980   2.287 -0.4283  0.3849 -0.2533
 3318TIP3    H131369   6.358   3.897   2.286  0.6421  0.8768  2.3117
 3318TIP3    H231370   6.336   4.024   2.206  3.0549  0.3297  0.6906
 3319TIP3   OH231371   6.043   1.388  10.379  0.0933 -0.1221 -0.2650
 3319TIP3    H131372   6.058   1.299  10.347 -2.4613 -0.6573 -0.2205
 3319TIP3    H231373   5.978   1.424  10.319 -0.6511  0.8590  1.0684
 3320TIP3   OH231374   0.799   6.393  15.845 -0.7834 -0.0816  0.2684
 3320TIP3    H131375   0.891   6.373  15.859 -0.9049  0.4593  2.1684
 3320TIP3    H231376   0.761   6.394  15.933 -1.9910  2.4932 -0.1816
 3321TIP3   OH231377   0.972   4.769   2.409  0.4838 -0.0728 -0.7051
 3321TIP3    H131378   1.001   4.859   2.421 -0.0315  0.0571 -0.3918
 3321TIP3    H231379   1.000   4.723   2.488  0.2928 -0.0628 -0.6294
 3322TIP3   OH231380   6.321   2.293  12.941  0.0586 -0.1253  0.1836
 3322TIP3    H131381   6.345   2.381  12.968 -1.6954 -0.1398  2.0056
 3322TIP3    H231382   6.404   2.247  12.932  0.9327  1.3192  0.5843
 3323TIP3   OH231383   3.828   0.857  13.338 -0.2651  0.0195  0.1275
 3323TIP3    H131384   3.773   0.904  13.275 -1.2216  0.1462  1.0163
 3323TIP3    H231385   3.828   0.766  13.306  0.4977  0.3486 -0.8604
 3324TIP3   OH231386   5.188   2.205   0.712  0.4551 -1.2105 -0.0928
 3324TIP3    H131387   5.098   2.182   0.690 -0.1117 -0.7495  1.5941
 3324TIP3    H231388   5.221   2.250   0.634 -1.8093  1.3762  0.2639
 3325TIP3   OH231389   0.963   2.894   0.738 -0.1876  0.0937 -0.1207
 3325TIP3    H131390   0.917   2.856   0.813  0.4204 -0.5604 -0.0654
 3325TIP3    H231391   0.924   2.981   0.727 -1.5509 -0.5023 -0.1958
 3326TIP3   OH231392   6.169   3.944  14.175  0.0874 -0.3626  0.0955
 3326TIP3    H131393   6.107   3.883  14.216  0.2273  0.7465  2.0754
 3326TIP3    H231394   6.181   4.013  14.240  0.4005  1.5013 -1.8264
 3327TIP3   OH231395   4.820   6.092   3.376 -0.2655 -0.1961 -0.2536
 3327TIP3    H131396   4.900   6.109   3.328 -0.0302 -1.6149 -0.3997
 3327TIP3    H231397   4.754   6.146   3.333 -0.1591 -1.7243 -2.4649
 3328TIP3   OH231398   5.830   2.858   0.953  0.1434  0.4254  0.8116
 3328TIP3    H131399   5.848   2.940   0.906 -1.3668 -0.8692 -2.3881
 3328TIP3    H231400   5.738   2.866   0.980  0.1107 -0.0090  0.8392
 3329TIP3   OH231401   2.984   5.492  11.664  0.2676 -0.2717 -0.3616
 3329TIP3    H131402   2.949   5.404  11.678 -0.8700 -0.1647 -2.1957
 3329TIP3    H231403   2.959   5.514  11.574 -0.6919  2.4625  0.4753
 3330TIP3   OH231404   3.100   0.953   5.127 -0.0682  0.1118 -0.1903
 3330TIP3    H131405   3.186   0.938   5.087  0.0989 -1.5864  0.6733
 3330TIP3    H231406   3.116   1.017   5.196  0.9071 -1.4247  1.0821
 3331TIP3   OH231407   4.083   3.284   3.387 -0.0604  0.2362 -0.1287
 3331TIP3    H131408   4.069   3.287   3.481 -1.6050 -1.0509 -0.2828
 3331TIP3    H231409   4.122   3.198   3.371 -0.2794  0.2395 -0.7076
 3332TIP3   OH231410   6.098   0.782  17.071  0.0622 -0.6227 -0.4182
 3332TIP3    H131411   6.061   0.714  17.014 -1.2923  0.3669 -0.7647
 3332TIP3    H231412   6.088   0.863  17.021  2.4848 -0.2433 -0.3861
 3333TIP3   OH231413   4.174   6.102   0.906  0.3014 -0.6827  0.0065
 3333TIP3    H131414   4.203   6.028   0.959 -1.4647 -0.1700  1.8098
 3333TIP3    H231415   4.255   6.138   0.869  1.4558 -1.9575  1.1729
 3334TIP3   OH231416   1.927   3.032  11.495  0.2354 -0.4250 -0.4134
 3334TIP3    H131417   2.005   3.074  11.530 -0.1248  1.5680 -1.8448
 3334TIP3    H231418   1.886   3.098  11.440 -2.6582 -1.2964  0.4976
 3335TIP3   OH231419   2.384   1.574  15.574  0.5247  0.0782  0.3861
 3335TIP3    H131420   2.293   1.580  15.602  0.4149  0.7927 -0.0757
 3335TIP3    H231421   2.410   1.484  15.592 -0.0730  0.0457  1.1235
 3336TIP3   OH231422   6.595   0.009  14.941  0.3105 -0.2909 -0.3485
 3336TIP3    H131423   6.682   0.028  14.975  0.7000  3.7372 -2.8875
 3336TIP3    H231424   6.541  -0.005  15.019  2.4345  1.3330  1.5620
 3337TIP3   OH231425   0.490   4.030  11.552  0.5067  0.3034 -0.0019
 3337TIP3    H131426   0.582   4.029  11.579 -0.0937  2.6598  2.7097
 3337TIP3    H231427   0.476   4.118  11.518 -0.4863 -0.4794 -1.7494
 3338TIP3   OH231428   6.103   1.330  12.745 -0.1939 -0.2195  0.4991
 3338TIP3    H131429   6.110   1.259  12.809 -0.0768 -0.7139 -0.0504
 3338TIP3    H231430   6.010   1.350  12.742 -0.0784  0.4984  1.5583
 3339TIP3   OH231431   5.387   0.460  13.404 -0.2292 -0.8242  0.3954
 3339TIP3    H131432   5.476   0.426  13.414  0.1235  0.3071  1.2736
 3339TIP3    H231433   5.379   0.480  13.311  0.4930 -0.7743  0.3401
 3340TIP3   OH231434   0.748   4.379  16.838 -0.3891 -0.7981 -0.0020
 3340TIP3    H131435   0.804   4.303  16.823 -0.5985 -1.2889  1.5263
 3340TIP3    H231436   0.805   4.455  16.824 -0.4752 -1.1286 -2.7740
 3341TIP3   OH231437   6.774   6.150   3.697 -0.4235  0.2455  0.1112
 3341TIP3    H131438   6.839   6.080   3.696 -1.0425 -0.3932  2.0085
 3341TIP3    H231439   6.786   6.194   3.613 -0.2229 -2.3026 -1.3090
 3342TIP3   OH231440   5.522   1.816  12.944  0.0427 -0.0798  0.5056
 3342TIP3    H131441   5.447   1.792  12.997 -0.8894 -0.6983 -1.0311
 3342TIP3    H231442   5.597   1.806  13.002 -0.5622 -3.8316  0.8806
 3343TIP3   OH231443   1.458   1.538  11.299  0.1165 -0.7234 -0.1061
 3343TIP3    H131444   1.522   1.544  11.228 -3.2560  2.2069 -3.3628
 3343TIP3    H231445   1.492   1.597  11.366  1.7461 -0.7022 -0.9077
 3344TIP3   OH231446   4.740   5.883   4.842  0.0810  0.2358  0.3043
 3344TIP3    H131447   4.782   5.945   4.900 -0.6275  0.6087  0.4384
 3344TIP3    H231448   4.750   5.922   4.754 -0.6561  0.7337  0.4243
 3345TIP3   OH231449   0.917   4.887   3.471 -0.2699  0.4167  0.3157
 3345TIP3    H131450   0.881   4.802   3.445 -0.1882  0.3962  0.2687
 3345TIP3    H231451   0.981   4.908   3.403  0.4074  0.0620  0.8329
 3346TIP3   OH231452   4.828   6.023   1.841 -0.1537 -0.3467  0.1704
 3346TIP3    H131453   4.803   6.091   1.903 -1.5237 -0.9535  0.3138
 3346TIP3    H231454   4.746   5.993   1.804  0.6131  0.0508 -2.0379
 3347TIP3   OH231455   3.303   0.082   1.107 -0.5391 -0.4320  0.0918
 3347TIP3    H131456   3.236   0.137   1.066 -0.8319 -0.1528  0.9439
 3347TIP3    H231457   3.385   0.117   1.074 -0.7718 -0.2059 -0.2581
 3348TIP3   OH231458   5.788   2.221   1.475 -0.3548 -0.0520  0.3358
 3348TIP3    H131459   5.751   2.277   1.406 -1.0621 -0.6794  0.1902
 3348TIP3    H231460   5.840   2.156   1.429  0.4099  0.4307  0.5016
 3349TIP3   OH231461   0.432   5.392   2.423 -0.0592  0.1451  0.8046
 3349TIP3    H131462   0.432   5.485   2.446 -1.9845  0.2266  0.6111
 3349TIP3    H231463   0.384   5.349   2.494  1.2338 -0.7915  1.1407
 3350TIP3   OH231464   5.708   6.089  11.248  0.9086 -0.0885  0.1886
 3350TIP3    H131465   5.785   6.093  11.191 -0.0822  0.4997 -1.1678
 3350TIP3    H231466   5.695   6.180  11.276 -0.1063  0.0983 -0.7796
 3351TIP3   OH231467   2.502   1.872   1.636 -0.2782  0.5633  0.2782
 3351TIP3    H131468   2.583   1.913   1.605 -0.1226  0.9410  1.1702
 3351TIP3    H231469   2.531   1.805   1.697 -0.5727 -0.4050 -0.6084
 3352TIP3   OH231470   2.630   2.578   0.364 -0.0368  0.4032 -0.0353
 3352TIP3    H131471   2.607   2.494   0.325 -0.8448  1.3632 -1.7160
 3352TIP3    H231472   2.726   2.581   0.360 -0.0479 -0.0356 -0.8773
 3353TIP3   OH231473   2.317   2.182  15.573  0.0463  0.5351 -0.6119
 3353TIP3    H131474   2.355   2.116  15.516  1.0110 -0.2041  0.8340
 3353TIP3    H231475   2.360   2.264  15.548  0.9148  0.1079 -0.5120
 3354TIP3   OH231476   1.873   2.777  10.978  0.1349  0.0684 -0.0470
 3354TIP3    H131477   1.882   2.704  10.917 -1.0519 -0.5453  0.4833
 3354TIP3    H231478   1.959   2.820  10.977  1.0187 -1.6122 -0.0009
 3355TIP3   OH231479   0.761   4.988   1.115  0.3022 -0.6749 -0.1654
 3355TIP3    H131480   0.705   4.955   1.185  0.1518  0.2945  0.1955
 3355TIP3    H231481   0.821   4.916   1.095  0.6786 -0.7998  1.3176
 3356TIP3   OH231482   1.869   6.726  14.023  0.5126 -0.2943  0.3185
 3356TIP3    H131483   1.815   6.805  14.020 -0.4282 -0.9543 -0.9513
 3356TIP3    H231484   1.907   6.727  14.111  1.2606  2.0339  0.0526
 3357TIP3   OH231485   2.438   5.082   5.453 -0.0198  0.3542 -0.0722
 3357TIP3    H131486   2.347   5.111   5.461  0.0516  0.9269 -1.1583
 3357TIP3    H231487   2.454   5.081   5.359  0.9516 -0.2207  0.0919
 3358TIP3   OH231488   2.096   3.069  11.262 -0.0575 -0.1714  0.0727
 3358TIP3    H131489   2.030   3.004  11.236 -0.3648  0.4111 -0.6194
 3358TIP3    H231490   2.102   3.060  11.358 -0.7315 -0.6139  0.0796
 3359TIP3   OH231491   6.507   4.759  11.089 -0.3597  0.1441 -0.1424
 3359TIP3    H131492   6.486   4.850  11.064  0.0004  0.8570  1.9563
 3359TIP3    H231493   6.422   4.715  11.089 -0.8860  1.0986  1.0544
 3360TIP3   OH231494   3.786   2.458  13.414  0.1030 -0.0686  0.6768
 3360TIP3    H131495   3.730   2.536  13.421  0.6125  0.1890  2.1590
 3360TIP3    H231496   3.738   2.390  13.462 -0.7409 -0.9622 -1.3008
 3361TIP3   OH231497   1.150   0.117  16.609 -0.3508  0.2439 -0.4007
 3361TIP3    H131498   1.119   0.175  16.679 -0.1582 -2.7483  2.3900
 3361TIP3    H231499   1.077   0.111  16.549 -1.6434  0.7113  1.0576
 3362TIP3   OH231500   4.149   1.218  14.441 -0.2123  0.0041  0.5817
 3362TIP3    H131501   4.134   1.209  14.347 -2.0027 -2.0236  1.0063
 3362TIP3    H231502   4.220   1.157  14.460 -0.2100  0.0223  0.6301
 3363TIP3   OH231503   6.374   3.902   1.981  0.5554 -0.7021 -0.1560
 3363TIP3    H131504   6.436   3.935   1.916 -0.5051 -2.1458 -2.0167
 3363TIP3    H231505   6.297   3.957   1.971  0.4654 -0.7890  0.0438
 3364TIP3   OH231506   1.875   4.695  12.546  0.4889  0.0773 -0.3424
 3364TIP3    H131507   1.950   4.723  12.493  2.5813  0.8550  2.7708
 3364TIP3    H231508   1.895   4.604  12.568  1.5149  0.7617  1.8633
 3365TIP3   OH231509   6.080   2.770  11.737 -0.6624 -0.0511 -0.3238
 3365TIP3    H131510   6.090   2.722  11.655 -0.7635 -0.4543 -0.1044
 3365TIP3    H231511   5.996   2.816  11.728  0.1007  1.2583 -1.1184
 3366TIP3   OH231512   0.584   0.437  12.325  0.3117 -0.5455  0.0059
 3366TIP3    H131513   0.520   0.507  12.324  1.6967  0.7856 -0.6611
 3366TIP3    H231514   0.561   0.383  12.400  0.4971  1.9129  1.9536
 3367TIP3   OH231515   3.112   1.102  12.438  0.1038 -0.0492  0.4538
 3367TIP3    H131516   3.088   1.068  12.352 -1.5586  0.8650  0.5206
 3367TIP3    H231517   3.180   1.167  12.419 -1.0323  0.9524 -0.3214
 3368TIP3   OH231518   3.869   3.117  16.745  0.2146 -0.6475 -0.1735
 3368TIP3    H131519   3.837   3.158  16.825  2.1173  2.8903 -1.0257
 3368TIP3    H231520   3.807   3.145  16.677  0.3409 -0.9885 -0.4361
 3369TIP3   OH231521   3.200   4.144   5.248 -0.2117  0.0283 -0.2334
 3369TIP3    H131522   3.213   4.056   5.214  2.5283  0.1561  0.1930
 3369TIP3    H231523   3.153   4.132   5.330 -0.8140 -0.9233 -0.7100
 3370TIP3   OH231524   6.062   5.557   1.249  0.5805 -0.6674  0.1081
 3370TIP3    H131525   6.049   5.619   1.321 -0.6472 -0.1585 -0.5284
 3370TIP3    H231526   6.081   5.474   1.293  0.0089 -0.3395  1.0118
 3371TIP3   OH231527   6.508   0.378  14.014  0.2564  0.5200 -0.3624
 3371TIP3    H131528   6.427   0.326  14.011  0.2940  0.2953  1.2626
 3371TIP3    H231529   6.578   0.313  14.011  0.3904  0.7044 -1.5865
 3372TIP3   OH231530   5.731   2.907  16.896  0.2696  0.1426  0.3634
 3372TIP3    H131531   5.783   2.979  16.860  1.7242 -1.4313 -0.8421
 3372TIP3    H231532   5.723   2.927  16.989 -1.0032  2.7919 -0.2154
 3373TIP3   OH231533   6.657   0.094   1.663 -0.6362 -0.6543  0.0377
 3373TIP3    H131534   6.685   0.003   1.655 -1.4964 -0.9351  0.0914
 3373TIP3    H231535   6.563   0.092   1.646 -0.8453  0.0811  0.9839
 3374TIP3   OH231536   0.431   1.383   2.102  0.0332  0.1178  0.0400
 3374TIP3    H131537   0.440   1.450   2.171 -0.5845  0.4380 -0.1841
 3374TIP3    H231538   0.520   1.350   2.090  0.1940  0.2318  0.8177
 3375TIP3   OH231539   6.720   1.167   3.343 -0.2305  0.5032  0.3540
 3375TIP3    H131540   6.631   1.171   3.378 -1.1783  0.2618 -1.8491
 3375TIP3    H231541   6.709   1.130   3.256  2.2745 -1.3606  0.7203
 3376TIP3   OH231542   6.729   3.368   1.181  0.0363  0.6518  0.2541
 3376TIP3    H131543   6.662   3.430   1.211 -0.5391  0.2383 -0.1501
 3376TIP3    H231544   6.700   3.283   1.215 -0.1942  0.3067 -0.7799
 3377TIP3   OH231545   4.760   4.839   1.991  0.3146 -0.0172  0.4256
 3377TIP3    H131546   4.788   4.762   1.942 -0.0734  0.1579 -0.0881
 3377TIP3    H231547   4.779   4.819   2.082  0.0957 -0.7736  0.3072
 3378TIP3   OH231548   0.851   0.023   0.255  0.8705  0.1861  0.5240
 3378TIP3    H131549   0.945   0.024   0.241  0.9249  0.2538  0.8639
 3378TIP3    H231550   0.837  -0.044   0.323  0.5625 -0.5249 -0.2285
 3379TIP3   OH231551   0.643   1.343  16.320  0.7119  0.5388  0.4747
 3379TIP3    H131552   0.688   1.324  16.403 -0.8303 -2.3361  0.7819
 3379TIP3    H231553   0.680   1.281  16.258  1.2093  2.0781 -0.8353
 3380TIP3   OH231554   1.845   3.134   3.542  0.0202  0.3440  0.0787
 3380TIP3    H131555   1.882   3.206   3.593  1.5141 -1.2397  1.3743
 3380TIP3    H231556   1.847   3.059   3.602 -2.5762 -0.5487 -0.8160
 3381TIP3   OH231557   2.020   5.542   3.131 -0.0110  0.4622 -0.1401
 3381TIP3    H131558   2.026   5.448   3.145  0.6043  0.3436 -1.1284
 3381TIP3    H231559   2.025   5.579   3.219  0.9498 -0.3720  0.1783
 3382TIP3   OH231560   6.752   2.223  11.722  0.1941 -0.1871  0.2173
 3382TIP3    H131561   6.796   2.171  11.789  1.8565  1.1494  0.2280
 3382TIP3    H231562   6.761   2.172  11.642 -0.7221 -1.2128  0.7358
 3383TIP3   OH231563   2.515   2.507  12.985 -0.1351  0.0799  0.1629
 3383TIP3    H131564   2.592   2.532  13.036 -0.7541 -0.5294  1.4390
 3383TIP3    H231565   2.547   2.437  12.927  0.5001  0.5473 -0.0607
 3384TIP3   OH231566   5.771   1.906  14.943 -0.1982 -0.0514  0.2457
 3384TIP3    H131567   5.758   1.861  14.860  0.4055  0.1462  0.0327
 3384TIP3    H231568   5.752   1.841  15.010 -0.2473 -0.3448 -0.0527
 3385TIP3   OH231569   5.732   5.440  11.818  0.6308 -0.6056  0.1336
 3385TIP3    H131570   5.798   5.443  11.749  2.8606 -0.7183  2.1258
 3385TIP3    H231571   5.711   5.347  11.827 -0.1886 -0.5295 -0.7944
 3386TIP3   OH231572   0.714   1.566   5.481  0.5696 -0.0655  0.1910
 3386TIP3    H131573   0.668   1.552   5.398 -0.5410 -0.3672  0.8391
 3386TIP3    H231574   0.785   1.502   5.480  1.3633  0.7649 -1.0662
 3387TIP3   OH231575   0.578   4.811   6.296 -0.1595  0.5404  0.4300
 3387TIP3    H131576   0.659   4.807   6.347 -0.6508 -3.3120  1.2096
 3387TIP3    H231577   0.509   4.827   6.360 -0.3267  0.9011  0.1709
 3388TIP3   OH231578   2.040   1.843  13.552  0.3892  0.6109  0.4363
 3388TIP3    H131579   2.124   1.841  13.597  2.0437  0.3441 -2.4011
 3388TIP3    H231580   2.023   1.937  13.537  1.2084  0.5985 -0.6708
 3389TIP3   OH231581   0.451   4.643   0.000 -0.1473 -0.2563 -0.2191
 3389TIP3    H131582   0.369   4.673   0.040 -0.2372 -1.0384  0.1932
 3389TIP3    H231583   0.446   4.674  -0.090 -0.6534  0.1649 -0.0538
 3390TIP3   OH231584   6.697   2.525  11.355  0.0437  0.2354 -0.6923
 3390TIP3    H131585   6.615   2.475  11.352 -1.2714  2.1447  0.6690
 3390TIP3    H231586   6.734   2.504  11.440  0.5838 -0.0575 -1.0008
 3391TIP3   OH231587   4.050   0.116  13.632  0.5670 -0.4897  0.0482
 3391TIP3    H131588   4.037   0.027  13.601  0.4723 -0.2438 -0.6424
 3391TIP3    H231589   3.987   0.168  13.582 -1.5461 -0.4265  2.5859
 3392TIP3   OH231590   0.591   5.564   1.049  0.4441 -0.1357 -0.0299
 3392TIP3    H131591   0.552   5.619   1.117 -0.9853  0.4663 -1.2765
 3392TIP3    H231592   0.672   5.610   1.025  2.8061 -2.0252  3.4403
 3393TIP3   OH231593   1.786   3.611  15.764  0.5441  0.3864 -0.2100
 3393TIP3    H131594   1.702   3.632  15.723  0.5023  1.3131  0.3402
 3393TIP3    H231595   1.835   3.693  15.765  1.8821 -0.3448 -1.4377
 3394TIP3   OH231596   3.198   5.216   4.798  0.0478 -0.1909 -0.0574
 3394TIP3    H131597   3.213   5.225   4.892  1.0350  0.1851 -0.2403
 3394TIP3    H231598   3.272   5.164   4.767 -0.6853 -0.9833 -0.5062
 3395TIP3   OH231599   4.883   6.151  14.514 -0.0092 -0.2732  0.0318
 3395TIP3    H131600   4.873   6.104  14.431 -0.9715  0.1258 -0.1010
 3395TIP3    H231601   4.798   6.142  14.557  0.4986 -0.5283  1.0145
 3396TIP3   OH231602   1.920   2.906  15.394 -0.3103 -0.6244  0.2434
 3396TIP3    H131603   1.904   2.993  15.357 -0.5100 -0.3173  1.0379
 3396TIP3    H231604   1.834   2.876  15.423 -0.3945 -1.4607 -0.7890
 3397TIP3   OH231605   6.557   5.292  13.829  0.2398  0.2934  0.4998
 3397TIP3    H131606   6.530   5.384  13.826 -2.1953 -0.3805 -0.8251
 3397TIP3    H231607   6.545   5.266  13.920  0.7264  1.1990  0.8342
 3398TIP3   OH231608   4.124   0.980  12.109  0.1949  0.0029 -0.3710
 3398TIP3    H131609   4.214   0.969  12.078  0.3719  1.6156 -0.5237
 3398TIP3    H231610   4.133   1.003  12.202  0.0041  1.0290 -0.5971
 3399TIP3   OH231611   1.429   5.985  14.447  0.3771  0.1892  0.3733
 3399TIP3    H131612   1.366   6.040  14.400  2.3683  1.5452 -0.8315
 3399TIP3    H231613   1.438   5.907  14.392  0.4051  0.3880  0.0934
 3400TIP3   OH231614   1.997   6.319  12.810 -0.6364  0.0698  0.8503
 3400TIP3    H131615   1.921   6.279  12.768 -0.7128 -0.0912  1.1424
 3400TIP3    H231616   1.973   6.412  12.819 -1.3405 -0.2148  2.1381
 3401TIP3   OH231617   5.806   6.483   0.291  0.0779  0.4626 -0.5119
 3401TIP3    H131618   5.877   6.422   0.313 -0.0487  0.2942 -0.5682
 3401TIP3    H231619   5.850   6.558   0.251  0.0567 -0.6481 -2.8023
 3402TIP3   OH231620   5.909   4.725   6.476 -0.0114 -0.3791 -0.1357
 3402TIP3    H131621   5.822   4.688   6.489 -0.3299 -0.0276 -1.1410
 3402TIP3    H231622   5.897   4.789   6.406  1.4689 -1.8875 -1.8634
 3403TIP3   OH231623   2.200   6.045   1.410  0.3310  0.0757  0.1470
 3403TIP3    H131624   2.150   5.969   1.380  1.0575 -0.3257 -0.0702
 3403TIP3    H231625   2.254   6.012   1.482  1.5634  0.0751 -0.7481
 3404TIP3   OH231626   6.112   0.071  15.694 -0.0031 -0.2941  0.0915
 3404TIP3    H131627   6.037   0.115  15.654  0.7515  1.0569  0.1085
 3404TIP3    H231628   6.169   0.049  15.621  1.0078  1.4727  0.2958
 3405TIP3   OH231629   4.041   4.368   3.864  0.4023 -0.4361  0.4430
 3405TIP3    H131630   3.968   4.430   3.868  0.1202 -0.6561 -1.0335
 3405TIP3    H231631   4.000   4.282   3.868  0.4849 -0.5778 -1.1580
 3406TIP3   OH231632   2.796   6.110   1.011  0.0630 -0.4488 -0.3889
 3406TIP3    H131633   2.724   6.140   1.067  1.0052 -0.7947  1.0568
 3406TIP3    H231634   2.830   6.032   1.055  0.9501 -0.6322 -1.3587
 3407TIP3   OH231635   3.662   0.438  16.246  0.2945 -0.4433 -0.3494
 3407TIP3    H131636   3.627   0.451  16.157 -0.3559  2.9606  0.2693
 3407TIP3    H231637   3.584   0.433  16.301  0.6975 -2.6153  0.0881
 3408TIP3   OH231638   2.489   5.726   3.155  0.2244 -0.3195  0.4306
 3408TIP3    H131639   2.466   5.636   3.180 -0.3224  0.1402  1.6634
 3408TIP3    H231640   2.416   5.755   3.100 -0.2712 -0.1903  1.1378
 3409TIP3   OH231641   4.710   0.871  14.980 -0.0326  0.6530 -0.4029
 3409TIP3    H131642   4.737   0.956  15.015 -0.1161  0.8227 -0.7508
 3409TIP3    H231643   4.789   0.835  14.941 -0.4390  1.4679 -2.0708
 3410TIP3   OH231644   6.747   5.487  14.347 -0.1859  0.6551  0.0863
 3410TIP3    H131645   6.771   5.560  14.405  0.0413  1.2850 -0.7867
 3410TIP3    H231646   6.724   5.529  14.264  1.8763 -0.3840 -1.0894
 3411TIP3   OH231647   6.281   2.280  17.058  0.2850  0.0422  0.0144
 3411TIP3    H131648   6.330   2.281  17.140 -1.0011 -1.7181  0.8839
 3411TIP3    H231649   6.231   2.362  17.058  0.1115 -0.0503  1.1244
 3412TIP3   OH231650   0.040   3.127   3.021 -0.0770  0.3245 -0.3275
 3412TIP3    H131651   0.093   3.151   3.097  1.4919  2.4423 -1.9384
 3412TIP3    H231652  -0.051   3.138   3.050  0.5031  2.1265  0.9774
 3413TIP3   OH231653   2.409   2.556   4.338  0.1682  0.7657  0.3318
 3413TIP3    H131654   2.398   2.523   4.249 -0.3391 -1.4073  1.1516
 3413TIP3    H231655   2.335   2.615   4.351 -0.2552  0.4009 -0.3899
 3414TIP3   OH231656   0.251   1.754   0.107  0.0892  0.6269  0.1832
 3414TIP3    H131657   0.192   1.810   0.056 -1.1517  1.3714  2.3196
 3414TIP3    H231658   0.196   1.715   0.174  1.0166 -2.9061 -0.9143
 3415TIP3   OH231659   2.520   1.584   3.035 -0.3532  0.1817 -0.3096
 3415TIP3    H131660   2.442   1.629   3.002 -0.6623  0.2188  0.4277
 3415TIP3    H231661   2.593   1.639   3.007 -0.7422  1.3533  0.8265
 3416TIP3   OH231662   5.930   1.158  12.418 -0.1030 -0.2646  0.3804
 3416TIP3    H131663   5.943   1.221  12.489 -0.9866  0.2867  0.0624
 3416TIP3    H231664   5.836   1.161  12.399  0.3627  1.0554 -2.1352
 3417TIP3   OH231665   2.723   6.795   5.650 -0.1264 -0.5178 -0.3907
 3417TIP3    H131666   2.771   6.825   5.573  2.0258 -1.7173  0.4044
 3417TIP3    H231667   2.763   6.844   5.723 -0.3433 -1.2836  0.2517
 3418TIP3   OH231668   6.074   6.371   5.383 -0.5564 -0.5125 -0.2762
 3418TIP3    H131669   6.076   6.458   5.422  1.0826  0.2278 -1.8427
 3418TIP3    H231670   6.132   6.319   5.438 -0.3640 -0.2014 -0.1794
 3419TIP3   OH231671   2.132   0.679  16.855 -0.3279  0.1600 -0.0457
 3419TIP3    H131672   2.083   0.648  16.779  0.4312  0.4036 -0.6417
 3419TIP3    H231673   2.076   0.745  16.895 -1.4526 -1.1215  0.5649
 3420TIP3   OH231674   3.039   0.902   3.216  0.1390 -0.6599  0.0621
 3420TIP3    H131675   3.059   0.844   3.143  0.8666 -0.6343  0.2373
 3420TIP3    H231676   3.119   0.953   3.230 -0.2479 -0.1201  0.3772
 3421TIP3   OH231677   2.310   0.804  15.283 -0.4445 -0.9043  0.7419
 3421TIP3    H131678   2.250   0.867  15.322 -0.1304  1.4213 -2.2021
 3421TIP3    H231679   2.267   0.776  15.202  0.6679 -2.4339  0.6238
 3422TIP3   OH231680   5.164   1.586   3.967  0.2003  0.0836 -0.0897
 3422TIP3    H131681   5.116   1.565   4.047  0.2943 -1.2856 -0.3720
 3422TIP3    H231682   5.191   1.677   3.979  0.5186 -0.1965  1.5909
 3423TIP3   OH231683   6.510   1.871   3.567  0.1404 -0.3853 -0.0051
 3423TIP3    H131684   6.514   1.779   3.596  0.8101 -0.3356  0.0840
 3423TIP3    H231685   6.551   1.870   3.481  2.2856  0.1763  0.9365
 3424TIP3   OH231686   2.460   5.359   1.198 -0.0771  0.0281  0.0811
 3424TIP3    H131687   2.523   5.337   1.130  0.6188  0.3483  0.6057
 3424TIP3    H231688   2.453   5.279   1.251  0.3212  0.1748  0.3548
 3425TIP3   OH231689   3.700   3.444  16.285 -0.5113  0.1599  0.3186
 3425TIP3    H131690   3.683   3.519  16.228 -0.5363 -0.2635 -0.2342
 3425TIP3    H231691   3.736   3.482  16.365 -0.9509  0.7991  0.2217
 3426TIP3   OH231692   3.394   6.710   1.336  0.5363  0.4855 -0.6853
 3426TIP3    H131693   3.343   6.786   1.306 -2.3092 -1.3043 -0.7823
 3426TIP3    H231694   3.405   6.724   1.430  0.4849  1.2633 -0.7894
 3427TIP3   OH231695   4.106   3.622  16.896  0.0304 -0.2181 -0.4231
 3427TIP3    H131696   4.164   3.656  16.827  3.3690 -0.4326  2.0203
 3427TIP3    H231697   4.064   3.701  16.931 -1.9780 -0.1333 -2.7546
 3428TIP3   OH231698   4.836   5.821  15.953  0.3061 -0.5946 -0.3451
 3428TIP3    H131699   4.923   5.790  15.978 -0.2489 -0.4950  1.8820
 3428TIP3    H231700   4.781   5.743  15.955  0.2135 -0.5620 -1.2011
 3429TIP3   OH231701   5.620   6.255  12.936  0.1896  0.9175 -0.2034
 3429TIP3    H131702   5.530   6.253  12.903 -0.3549  0.0390  1.2433
 3429TIP3    H231703   5.674   6.237  12.859 -0.9432  0.1775 -0.8540
 3430TIP3   OH231704   3.574   3.046  16.571  0.6297 -0.3024 -1.0924
 3430TIP3    H131705   3.547   3.102  16.498 -0.7367 -0.8707 -1.0432
 3430TIP3    H231706   3.533   2.962  16.554 -0.9933 -0.0390  1.0683
 3431TIP3   OH231707   3.647   0.466  14.731 -0.1007  0.3121  0.4945
 3431TIP3    H131708   3.656   0.539  14.670 -0.0949  0.8536  1.1333
 3431TIP3    H231709   3.588   0.498  14.799  0.4947 -0.0050  1.1863
 3432TIP3   OH231710   5.375   4.611  15.253  0.0570 -0.2474 -0.2412
 3432TIP3    H131711   5.355   4.654  15.337 -0.6456  1.6801 -1.3400
 3432TIP3    H231712   5.289   4.592  15.215  0.3697 -0.6800 -0.7384
 3433TIP3   OH231713   6.560   4.414  13.159  0.2283 -0.5291 -0.1684
 3433TIP3    H131714   6.557   4.508  13.138 -2.5446 -0.1473  1.4345
 3433TIP3    H231715   6.531   4.370  13.080  0.3424  0.0633 -0.5446
 3434TIP3   OH231716   5.269   3.872  11.866  0.3740 -0.0361  0.0996
 3434TIP3    H131717   5.216   3.910  11.795 -0.2415  0.6386  0.8919
 3434TIP3    H231718   5.338   3.937  11.880  1.8463 -1.2103 -1.3617
 3435TIP3   OH231719   1.281   3.124  16.463 -0.3817  0.2363  0.2982
 3435TIP3    H131720   1.295   3.151  16.554  0.0643  0.7065  0.0992
 3435TIP3    H231721   1.200   3.074  16.465 -1.2417  1.5925  0.6977
 3436TIP3   OH231722   1.240   2.003  12.486  0.6664  0.1200 -0.5087
 3436TIP3    H131723   1.285   2.081  12.517  0.7839 -0.2642  0.3071
 3436TIP3    H231724   1.153   2.008  12.525  0.4330  0.1927 -1.0225
 3437TIP3   OH231725   1.875   3.275   5.285 -0.0973 -0.2630  0.0305
 3437TIP3    H131726   1.858   3.334   5.358 -0.5950 -2.0115  1.4008
 3437TIP3    H231727   1.951   3.224   5.312  0.9625  0.3921 -1.5624
 3438TIP3   OH231728   1.603   3.353   3.868  0.1930  0.4724 -0.1599
 3438TIP3    H131729   1.619   3.403   3.788 -0.5396  2.0814  0.6445
 3438TIP3    H231730   1.564   3.417   3.928 -0.8546 -1.1044  0.9095
 3439TIP3   OH231731   2.988   5.285  17.038  0.7154 -0.3264 -0.5430
 3439TIP3    H131732   3.030   5.286  17.123  0.2834 -0.8327 -0.3155
 3439TIP3    H231733   3.041   5.226  16.985 -0.5188 -2.2120  0.1986
 3440TIP3   OH231734   6.100   6.224  11.293  0.1262  0.0009 -0.5635
 3440TIP3    H131735   6.168   6.283  11.328  1.5893 -2.0591  0.2463
 3440TIP3    H231736   6.109   6.231  11.198  2.0337 -0.7594 -0.4900
 3441TIP3   OH231737   5.402   5.355  14.478 -0.4775 -0.1200  0.7318
 3441TIP3    H131738   5.334   5.384  14.417  0.0724  0.5717  0.4349
 3441TIP3    H231739   5.452   5.290  14.428 -1.1384 -0.8996  1.0761
 3442TIP3   OH231740   0.108   1.922   4.756 -0.0031 -0.3908  0.0247
 3442TIP3    H131741   0.064   1.837   4.762  1.4116 -1.2847 -1.5504
 3442TIP3    H231742   0.066   1.966   4.682  0.1671 -0.2682  0.0007
 3443TIP3   OH231743   5.083   6.126   0.598  0.2748 -0.5730  0.7311
 3443TIP3    H131744   5.088   6.039   0.560  1.2603 -0.6538  1.0343
 3443TIP3    H231745   5.024   6.174   0.539  0.7081 -1.0838 -0.1446
 3444TIP3   OH231746   5.290   1.019  14.012  0.0192 -0.3098 -0.1669
 3444TIP3    H131747   5.246   0.951  14.062  0.5624 -1.8689 -1.7177
 3444TIP3    H231748   5.281   0.992  13.921  2.2689  0.4612 -0.6771
 3445TIP3   OH231749   3.597   3.421  15.814  0.1806  0.0385  0.2563
 3445TIP3    H131750   3.512   3.391  15.846 -0.1499  1.1678  0.4742
 3445TIP3    H231751   3.587   3.426  15.719  1.1444 -3.2611 -0.1529
 3446TIP3   OH231752   3.770   4.283  14.219  0.0983  0.0726 -0.0216
 3446TIP3    H131753   3.820   4.285  14.301 -0.9051 -0.3458  0.6325
 3446TIP3    H231754   3.771   4.373  14.188  1.6988 -0.0190 -0.3268
 3447TIP3   OH231755   1.589   5.627   5.493  0.7728  0.1896 -0.5690
 3447TIP3    H131756   1.677   5.663   5.486  1.1608 -0.8737 -1.5105
 3447TIP3    H231757   1.554   5.630   5.404  0.2374 -0.3109 -0.3851
 3448TIP3   OH231758   2.329   3.978  14.959 -0.3873 -0.0670  0.2577
 3448TIP3    H131759   2.333   4.073  14.971 -0.0329 -0.0865  0.3093
 3448TIP3    H231760   2.266   3.965  14.888 -1.0284  0.1585  0.7822
 3449TIP3   OH231761   4.339   5.774  13.107 -0.1498  0.7251 -0.3066
 3449TIP3    H131762   4.405   5.830  13.066 -0.5007  0.2240 -1.5870
 3449TIP3    H231763   4.390   5.713  13.161  0.4872  0.0632 -1.6214
 3450TIP3   OH231764   5.732   6.653   0.495 -0.1176 -0.0857  0.3503
 3450TIP3    H131765   5.824   6.630   0.510  0.2345  1.3683  0.5426
 3450TIP3    H231766   5.709   6.606   0.415  0.5184 -1.1847  0.7892
 3451TIP3   OH231767   4.893   4.652   4.988 -0.3673  0.3303 -0.2368
 3451TIP3    H131768   4.943   4.587   5.038  0.6370  1.6246  0.5010
 3451TIP3    H231769   4.915   4.634   4.897 -0.7119 -0.8338 -0.1142
 3452TIP3   OH231770   2.897   5.790   4.157  0.0650  0.3475  0.0004
 3452TIP3    H131771   2.943   5.785   4.074  0.4649  0.8036  0.1873
 3452TIP3    H231772   2.966   5.780   4.223 -0.0659  1.2583  0.2858
 3453TIP3   OH231773   0.380   3.025   3.257  0.2317 -0.2106 -0.4614
 3453TIP3    H131774   0.303   3.004   3.205 -0.8806 -0.8871  1.3882
 3453TIP3    H231775   0.356   3.103   3.306 -0.1779 -1.6786  1.8070
 3454TIP3   OH231776   0.877   4.977   2.732  0.0562 -0.5717 -0.4057
 3454TIP3    H131777   0.799   4.998   2.784 -0.7617 -2.5646 -0.7183
 3454TIP3    H231778   0.946   5.032   2.768 -1.7607  2.3868 -1.0661
 3455TIP3   OH231779   2.934   2.446   4.110  0.2768  0.2014  0.6181
 3455TIP3    H131780   2.943   2.383   4.038 -1.2862  1.9457 -1.2221
 3455TIP3    H231781   2.969   2.528   4.074  0.8412  0.7907  2.4140
 3456TIP3   OH231782   6.536   4.995   4.578 -0.2659  0.3503 -0.0189
 3456TIP3    H131783   6.529   5.039   4.494  0.6111  1.4177  0.4437
 3456TIP3    H231784   6.610   5.038   4.622 -0.2156 -0.7069  0.9809
 3457TIP3   OH231785   4.364   6.737  12.385  0.6089  0.3265  0.4242
 3457TIP3    H131786   4.372   6.649  12.349 -1.4748  0.2750 -0.0023
 3457TIP3    H231787   4.447   6.752  12.431  1.4352 -1.4037 -0.4428
 3458TIP3   OH231788   0.378   1.854  12.737 -0.1529 -1.0820  0.1758
 3458TIP3    H131789   0.428   1.894  12.808 -0.1980 -2.2903  0.9110
 3458TIP3    H231790   0.291   1.893  12.743  0.3160  0.0622 -0.2837
 3459TIP3   OH231791   3.777   0.552  14.202  0.0148  0.5137  0.0336
 3459TIP3    H131792   3.741   0.591  14.282 -0.1601  0.5841 -0.0800
 3459TIP3    H231793   3.746   0.462  14.203 -0.2717  0.6095 -0.1298
 3460TIP3   OH231794   3.999   5.436   2.713  0.3078  0.4347 -0.0504
 3460TIP3    H131795   4.069   5.484   2.669  0.0695  1.0506  0.2396
 3460TIP3    H231796   3.978   5.487   2.791 -0.1512  0.0168  0.1128
 3461TIP3   OH231797   5.552   1.292   3.892  0.4658 -0.4889  0.0601
 3461TIP3    H131798   5.468   1.339   3.895  0.7065  0.0746 -1.2494
 3461TIP3    H231799   5.618   1.360   3.907  0.7171 -0.8209  0.4702
 3462TIP3   OH231800   1.429   3.967  13.644 -1.4971  0.0235  0.2186
 3462TIP3    H131801   1.420   4.020  13.565 -0.1736  2.5934  1.6327
 3462TIP3    H231802   1.413   4.029  13.716 -0.2308 -1.6056  2.0104
 3463TIP3   OH231803   4.012   1.486  12.328 -0.5715 -0.0233 -0.2190
 3463TIP3    H131804   3.926   1.479  12.369  0.3467  0.7064  1.9561
 3463TIP3    H231805   4.074   1.488  12.401  1.3170 -0.5547 -1.7173
 3464TIP3   OH231806   1.984   5.973  13.859  0.0085 -1.0742  0.2209
 3464TIP3    H131807   2.038   5.904  13.820 -2.0109 -2.1771 -0.7409
 3464TIP3    H231808   1.903   5.971  13.809 -1.1347  0.1971  1.9418
 3465TIP3   OH231809   3.604   1.517   5.643 -0.2584 -0.3571  0.2011
 3465TIP3    H131810   3.671   1.451   5.661 -0.9079 -0.9348  0.5693
 3465TIP3    H231811   3.543   1.511   5.717  0.6873  2.0179  1.2875
 3466TIP3   OH231812   3.472   0.664  14.124 -0.0793 -0.3268  0.2202
 3466TIP3    H131813   3.552   0.692  14.078 -0.0249 -1.3825 -0.3556
 3466TIP3    H231814   3.483   0.697  14.213  1.0136 -0.4550  0.1483
 3467TIP3   OH231815   0.640   6.435   5.036  0.0755  0.5781 -0.5421
 3467TIP3    H131816   0.728   6.434   5.072 -1.0932 -4.0555  3.2011
 3467TIP3    H231817   0.592   6.497   5.091 -0.0368 -0.8921  1.0963
 3468TIP3   OH231818   3.915   3.686   2.259  0.1328 -0.6694  0.6583
 3468TIP3    H131819   4.005   3.654   2.261  0.1136 -0.6992  1.3765
 3468TIP3    H231820   3.903   3.729   2.344 -0.9901 -1.9768  1.1999
 3469TIP3   OH231821   0.564   4.185  10.605  0.0075  0.1722 -0.3783
 3469TIP3    H131822   0.584   4.212  10.515 -1.3882  0.0865 -0.7345
 3469TIP3    H231823   0.504   4.111  10.596 -0.0813  0.1001  0.6296
 3470TIP3   OH231824   0.360   2.094  14.701 -0.0320  0.1866  0.1396
 3470TIP3    H131825   0.373   2.103  14.607  0.6186  2.6874  0.3863
 3470TIP3    H231826   0.268   2.069  14.710  0.2889 -1.6817 -1.1517
 3471TIP3   OH231827   3.999   5.453   1.628 -0.1502  0.0271 -0.4945
 3471TIP3    H131828   3.990   5.403   1.709  0.3845 -1.0494 -1.0736
 3471TIP3    H231829   3.995   5.545   1.656  2.3301 -0.2366  1.0766
 3472TIP3   OH231830   6.318   2.131   3.913 -0.0752 -0.5152 -0.0639
 3472TIP3    H131831   6.318   2.043   3.876  2.2535 -0.8230  0.5283
 3472TIP3    H231832   6.283   2.187   3.843 -1.7896 -1.8797 -0.3696
 3473TIP3   OH231833   1.257   0.669   3.883  0.0138  0.5111  0.2450
 3473TIP3    H131834   1.172   0.653   3.841  0.8375 -4.1478 -0.2385
 3473TIP3    H231835   1.319   0.672   3.810  0.5283  1.4112  0.7122
 3474TIP3   OH231836   4.922   6.037   1.356  0.2424  0.8898 -0.2101
 3474TIP3    H131837   4.987   6.098   1.321  0.3368  0.3969 -0.9184
 3474TIP3    H231838   4.862   6.020   1.283  0.5523 -0.3024 -0.2140
 3475TIP3   OH231839   0.706   4.884  12.025 -0.0086  0.6438  0.0624
 3475TIP3    H131840   0.670   4.863  12.111 -1.1184 -0.5354 -0.6532
 3475TIP3    H231841   0.631   4.882  11.966  1.1454 -2.0173 -1.5064
 3476TIP3   OH231842   1.167   4.655  14.274 -0.4957 -0.3020 -0.0803
 3476TIP3    H131843   1.149   4.694  14.360  0.4610 -0.0230  0.0073
 3476TIP3    H231844   1.158   4.561  14.289  0.1699 -0.2870  0.4632
 3477TIP3   OH231845   1.099   3.549   2.291 -0.5051  0.0303 -0.7392
 3477TIP3    H131846   1.055   3.592   2.217 -1.7828  0.0719  0.0089
 3477TIP3    H231847   1.035   3.485   2.322 -0.2048  0.3884  0.6739
 3478TIP3   OH231848   6.224   2.794   1.529  0.3730 -0.5273 -0.3710
 3478TIP3    H131849   6.218   2.712   1.579  0.5098  0.4867  1.4031
 3478TIP3    H231850   6.317   2.818   1.534  0.4376 -0.5277 -1.3594
 3479TIP3   OH231851   1.080   4.939   1.394  0.3406  1.0622 -0.4652
 3479TIP3    H131852   1.064   5.019   1.444 -0.2689  0.2792  0.6226
 3479TIP3    H231853   1.097   4.970   1.304 -0.4983  2.3562 -0.2014
 3480TIP3   OH231854   2.170   5.733   3.743  0.5368  0.4300 -0.0214
 3480TIP3    H131855   2.148   5.826   3.754 -0.6745  0.0259  1.3060
 3480TIP3    H231856   2.239   5.732   3.677 -0.8539  2.1275 -1.6021
 3481TIP3   OH231857   5.513   0.973  12.260  0.0428 -0.0040 -0.0072
 3481TIP3    H131858   5.465   0.980  12.177 -1.2282  0.2800  0.7297
 3481TIP3    H231859   5.478   1.043  12.314  0.3202 -0.6548  1.0406
 3482TIP3   OH231860   1.701   5.609  13.289 -0.5019 -0.0118  0.4362
 3482TIP3    H131861   1.635   5.658  13.337 -1.4046 -0.4089 -0.3671
 3482TIP3    H231862   1.674   5.518  13.297  0.5521 -0.2933  0.9891
 3483TIP3   OH231863   2.793   1.519  12.131  0.3192  0.0601 -0.3382
 3483TIP3    H131864   2.792   1.553  12.042 -0.0029  0.9112 -0.0129
 3483TIP3    H231865   2.787   1.596  12.187 -0.0618 -0.5033  0.4147
 3484TIP3   OH231866   6.393   2.412   2.715 -0.5123 -0.0301 -0.4710
 3484TIP3    H131867   6.392   2.321   2.745  2.0661  0.0176  0.0074
 3484TIP3    H231868   6.484   2.427   2.688 -1.3079  1.8404 -2.3909
 3485TIP3   OH231869   3.205   2.024   1.480  0.0429 -0.3281 -0.9083
 3485TIP3    H131870   3.216   2.087   1.552 -1.1334 -0.9347 -0.1633
 3485TIP3    H231871   3.184   2.078   1.404 -1.3768  0.1827 -0.1880
 3486TIP3   OH231872   0.716   2.374  12.325 -0.1872  0.0486  1.0257
 3486TIP3    H131873   0.644   2.312  12.336 -0.6274  0.4025  0.2298
 3486TIP3    H231874   0.717   2.425  12.405 -1.2444  0.4686  0.7878
 3487TIP3   OH231875   4.612   6.073   0.124  0.5252 -0.5305  0.3512
 3487TIP3    H131876   4.698   6.055   0.162  0.5297  0.1589  0.6712
 3487TIP3    H231877   4.604   6.168   0.127 -1.1484 -0.6686  2.2825
 3488TIP3   OH231878   5.381   4.880   2.455  0.7472  0.4769 -0.0852
 3488TIP3    H131879   5.314   4.827   2.497 -0.3702  1.2622 -0.7940
 3488TIP3    H231880   5.446   4.897   2.523  1.5570 -2.3959 -0.0411
 3489TIP3   OH231881   5.547   2.761  15.690  0.4284  0.7899 -0.5806
 3489TIP3    H131882   5.626   2.757  15.744 -0.7464 -1.2846  1.1331
 3489TIP3    H231883   5.510   2.673  15.696 -1.2991  1.3212 -2.4714
 3490TIP3   OH231884   3.873   6.769  11.333 -0.2849 -0.0427  0.4651
 3490TIP3    H131885   3.956   6.757  11.379  0.1791  0.9419 -0.0608
 3490TIP3    H231886   3.897   6.820  11.255 -1.1598 -1.0313 -0.4712
 3491TIP3   OH231887   5.002   1.213   2.748  0.2382  0.2693 -0.4831
 3491TIP3    H131888   4.957   1.178   2.825 -0.3381 -1.3249 -1.4891
 3491TIP3    H231889   5.078   1.259   2.784  0.3603 -1.0105  1.0170
 3492TIP3   OH231890   4.996   0.596   1.907  0.4995 -0.3027 -0.0309
 3492TIP3    H131891   5.069   0.634   1.858  0.1998 -0.2551 -0.4532
 3492TIP3    H231892   4.933   0.570   1.839  0.3358 -0.7851  0.3024
 3493TIP3   OH231893   5.041   0.361  11.307  0.5315 -0.1284 -0.3790
 3493TIP3    H131894   5.047   0.270  11.336  0.4769 -0.0702 -0.1812
 3493TIP3    H231895   5.103   0.367  11.235 -1.2609 -0.9622 -2.0643
 3494TIP3   OH231896   6.078   5.950  13.130  0.2772 -0.2125 -0.6498
 3494TIP3    H131897   6.016   5.910  13.068  0.8474 -1.2133 -0.6029
 3494TIP3    H231898   6.151   5.888  13.133  1.1124  0.7651 -0.4136
 3495TIP3   OH231899   0.478   2.788  16.740 -0.0628  0.1597 -0.0957
 3495TIP3    H131900   0.445   2.711  16.692 -3.0842  0.1543  1.6990
 3495TIP3    H231901   0.494   2.854  16.672 -1.3081 -0.7805 -1.3683
 3496TIP3   OH231902   2.508   6.546   6.058 -0.1389  0.1631 -0.4815
 3496TIP3    H131903   2.479   6.637   6.062 -0.3138  0.0838  0.7381
 3496TIP3    H231904   2.512   6.519   6.150 -1.3696 -1.4548 -0.8522
 3497TIP3   OH231905   3.122   1.182  14.095 -0.4252  0.2185 -0.2442
 3497TIP3    H131906   3.157   1.152  14.012 -0.6098  0.2486 -0.3346
 3497TIP3    H231907   3.044   1.233  14.071 -0.2610  0.5536 -0.0783
 3498TIP3   OH231908   1.091   0.850  10.849 -0.4627  0.5356 -0.2659
 3498TIP3    H131909   1.110   0.883  10.937 -1.8579 -2.2716  1.2427
 3498TIP3    H231910   0.995   0.856  10.842 -0.2934  1.7792 -2.1211
 3499TIP3   OH231911   0.018   6.422  13.518 -0.0481  0.1204  0.3539
 3499TIP3    H131912  -0.054   6.426  13.582  0.9945 -0.4394  1.6024
 3499TIP3    H231913  -0.015   6.364  13.450  0.2317 -2.5834  2.3322
 3500TIP3   OH231914   3.797   2.589  15.355 -0.0503  0.4488 -0.0919
 3500TIP3    H131915   3.830   2.669  15.313 -1.1502  1.3698  0.7200
 3500TIP3    H231916   3.702   2.592  15.339 -0.3886  0.4157  1.7625
 3501TIP3   OH231917   5.636   2.160  11.788  0.2921  0.0281  0.4100
 3501TIP3    H131918   5.627   2.088  11.850  1.6343 -0.7005 -0.1830
 3501TIP3    H231919   5.635   2.239  11.842  1.5474 -0.5944  1.3909
 3502TIP3   OH231920   2.643   2.150  16.714 -0.0621  0.0250 -0.1482
 3502TIP3    H131921   2.617   2.102  16.793  0.3998 -0.0738 -0.0544
 3502TIP3    H231922   2.580   2.122  16.647 -0.6157  0.3061  0.2502
 3503TIP3   OH231923   6.255   4.090   4.376  0.1739 -0.2942  0.0559
 3503TIP3    H131924   6.350   4.096   4.374  0.2599 -1.1729  0.7094
 3503TIP3    H231925   6.237   3.996   4.373 -0.6617 -0.1454  0.2223
 3504TIP3   OH231926   2.584   4.265  12.773  0.1874 -0.2544  0.8418
 3504TIP3    H131927   2.629   4.339  12.733  0.9316 -0.3486  1.4737
 3504TIP3    H231928   2.523   4.304  12.835 -0.1082 -0.1442  0.4836
 3505TIP3   OH231929   4.790   3.913  13.562 -0.0839  0.0141 -0.5074
 3505TIP3    H131930   4.803   4.003  13.532  1.2133 -0.2583 -0.8203
 3505TIP3    H231931   4.725   3.877  13.502  0.5436  0.2834 -1.3704
 3506TIP3   OH231932   5.683   3.171  15.395  0.2533 -0.8869 -0.1846
 3506TIP3    H131933   5.591   3.147  15.380  0.1314 -0.7953  0.4116
 3506TIP3    H231934   5.709   3.120  15.471  0.6974 -0.8944 -0.3382
 3507TIP3   OH231935   6.600   0.719   6.304 -0.1126 -0.0872  0.0314
 3507TIP3    H131936   6.528   0.706   6.243  0.5176  2.5297 -1.4323
 3507TIP3    H231937   6.588   0.808   6.337  2.0950  0.2231  0.1579
 3508TIP3   OH231938   2.355   3.813   4.624 -0.4623  0.5298  0.0977
 3508TIP3    H131939   2.331   3.776   4.709 -0.8389 -0.1591 -0.3104
 3508TIP3    H231940   2.274   3.848   4.589 -0.4259  0.2606 -0.2563
 3509TIP3   OH231941   0.367   1.155   5.587  0.2567  0.6061 -0.1517
 3509TIP3    H131942   0.395   1.107   5.665 -0.4813 -1.7503 -1.2648
 3509TIP3    H231943   0.394   1.100   5.514 -1.1766  1.6066 -1.4944
 3510TIP3   OH231944   3.024   3.310  13.962  0.0511  0.0296 -0.0305
 3510TIP3    H131945   3.051   3.227  13.922  0.2661  0.0532  0.0640
 3510TIP3    H231946   2.988   3.361  13.889  1.6609  0.5938 -0.4821
 3511TIP3   OH231947   3.115   0.495   1.199  0.1988 -0.5833 -0.1976
 3511TIP3    H131948   3.174   0.480   1.125 -0.3496  0.0146 -0.7652
 3511TIP3    H231949   3.057   0.419   1.198  0.5324 -0.8397 -0.0549
 3512TIP3   OH231950   0.561   3.134  11.848 -0.4466  0.1682 -0.3583
 3512TIP3    H131951   0.488   3.192  11.829  0.4453  1.1159 -1.0286
 3512TIP3    H231952   0.624   3.189  11.894  0.3387 -0.3087 -0.8387
 3513TIP3   OH231953   4.927   0.659  11.262  0.0542  0.2834  0.4099
 3513TIP3    H131954   5.006   0.677  11.211  0.0252 -1.7700 -0.4273
 3513TIP3    H231955   4.860   0.715  11.222  0.5373  0.2719 -0.4395
 3514TIP3   OH231956   4.346   0.353   5.507  0.0684  0.2796 -0.3404
 3514TIP3    H131957   4.259   0.371   5.543 -0.3936 -2.2542 -0.0475
 3514TIP3    H231958   4.330   0.304   5.427  1.2217 -1.2074  0.2911
 3515TIP3   OH231959   3.476   2.318   5.025 -0.2618  0.2861  0.9423
 3515TIP3    H131960   3.450   2.367   5.103 -1.0753  1.0598  0.2004
 3515TIP3    H231961   3.546   2.370   4.986 -0.1567  0.1212  0.9084
 3516TIP3   OH231962   6.277   3.212   2.962  0.3727 -0.3822  0.2919
 3516TIP3    H131963   6.267   3.124   2.997  0.0205 -0.3497  0.2799
 3516TIP3    H231964   6.371   3.228   2.962  0.6865 -1.7003 -1.9591
 3517TIP3   OH231965   4.970   1.371  17.018 -0.9971  0.8596  0.7432
 3517TIP3    H131966   4.915   1.323  16.956 -0.9006  2.8491 -0.9910
 3517TIP3    H231967   4.981   1.311  17.092 -1.2053 -1.6099 -1.1077
 3518TIP3   OH231968   2.277   2.343   3.070 -0.0830  0.1365 -0.0099
 3518TIP3    H131969   2.362   2.386   3.069  1.7769 -3.1232 -1.7544
 3518TIP3    H231970   2.270   2.306   3.158 -0.5905  1.8814  0.7143
 3519TIP3   OH231971   6.450   5.894  13.537 -0.0583  0.1620  0.7675
 3519TIP3    H131972   6.437   5.858  13.625 -1.7614 -0.8770  0.1187
 3519TIP3    H231973   6.420   5.985  13.544 -0.9088 -0.1314  1.0917
 3520TIP3   OH231974   6.367   5.629   5.338 -0.9438 -0.1276  0.1690
 3520TIP3    H131975   6.288   5.610   5.388 -0.8031 -2.1364 -0.2836
 3520TIP3    H231976   6.435   5.640   5.404 -1.1105 -0.9575  0.4885
 3521TIP3   OH231977   5.224   2.758   4.127 -0.2669 -0.5299 -0.1599
 3521TIP3    H131978   5.261   2.783   4.043  0.9961 -2.3196 -0.1955
 3521TIP3    H231979   5.284   2.691   4.161 -1.3825 -0.7050  1.6224
 3522TIP3   OH231980   1.911   3.011   2.450 -0.2432  0.1123 -0.8168
 3522TIP3    H131981   1.838   2.989   2.392 -1.3404 -2.5085  1.3459
 3522TIP3    H231982   1.876   2.998   2.538  2.2240  1.0305  0.3819
 3523TIP3   OH231983   5.125   4.580   5.775 -0.0183 -0.4079  0.8632
 3523TIP3    H131984   5.166   4.646   5.720  0.8061  0.1098  2.0316
 3523TIP3    H231985   5.147   4.607   5.865 -0.0060 -2.0374  1.3871
 3524TIP3   OH231986   5.339   0.368   5.068  0.5752 -0.3398 -0.1040
 3524TIP3    H131987   5.347   0.283   5.025  1.0231 -0.7136  0.7064
 3524TIP3    H231988   5.324   0.430   4.996 -2.9187 -1.4615 -0.5101
 3525TIP3   OH231989   1.411   0.645  12.447 -0.4111 -0.1053  0.4482
 3525TIP3    H131990   1.444   0.706  12.381 -0.2910  0.6359  1.1856
 3525TIP3    H231991   1.384   0.700  12.520  1.8261 -1.0192  2.0908
 3526TIP3   OH231992   1.209   5.575   4.475 -0.0739 -0.2816 -0.7094
 3526TIP3    H131993   1.187   5.543   4.562 -2.4633 -0.1735 -1.2274
 3526TIP3    H231994   1.224   5.495   4.424 -0.8972 -0.4298 -0.7323
 3527TIP3   OH231995   1.422   3.441  14.432 -0.2525  0.0879  0.3489
 3527TIP3    H131996   1.366   3.492  14.373 -0.1283  2.2600  1.9614
 3527TIP3    H231997   1.511   3.465  14.407 -0.0918 -1.3014 -0.4814
 3528TIP3   OH231998   6.099   2.570  11.516 -0.2816  0.2383  0.2072
 3528TIP3    H131999   6.067   2.589  11.428 -2.1278  1.1796  1.0172
 3528TIP3    H232000   6.025   2.528  11.560 -0.0953  1.5366  1.8618
 3529TIP3   OH232001   6.032   0.605  15.205 -0.0364 -0.4395 -0.0073
 3529TIP3    H132002   6.050   0.511  15.211 -2.2069 -1.0153 -1.5302
 3529TIP3    H232003   5.938   0.613  15.222  0.2103  1.5546  0.7206
 3530TIP3   OH232004   1.709   4.976   3.276  0.0190  0.4672 -0.6213
 3530TIP3    H132005   1.646   5.048   3.281  0.8871  1.2937 -1.2424
 3530TIP3    H232006   1.774   4.996   3.344  0.1566  0.1608 -0.6594
 3531TIP3   OH232007   3.855   0.267  15.406 -0.1908  0.4944  0.1294
 3531TIP3    H132008   3.912   0.227  15.340  0.1123  0.1226  0.6086
 3531TIP3    H232009   3.808   0.336  15.359  0.8736  1.0099 -0.2030
 3532TIP3   OH232010   4.909   2.240   0.716 -0.2028  0.1477 -0.2042
 3532TIP3    H132011   4.894   2.266   0.807 -0.8089 -1.5164  0.2074
 3532TIP3    H232012   4.885   2.318   0.665 -0.9755  0.7300  0.9858
 3533TIP3   OH232013   0.749   6.469  10.886  0.2853  0.1298 -0.6419
 3533TIP3    H132014   0.804   6.542  10.859  1.2605 -0.6479 -0.8134
 3533TIP3    H232015   0.782   6.446  10.973  0.3757 -0.4760 -0.8331
 3534TIP3   OH232016   5.573   6.571  13.804  0.2863 -0.1105  0.1917
 3534TIP3    H132017   5.495   6.593  13.752 -0.3746 -0.4980  1.0022
 3534TIP3    H232018   5.640   6.631  13.772 -0.7491  1.2684  0.5175
 3535TIP3   OH232019   2.204   5.970   0.466  0.0708 -0.2457 -0.3560
 3535TIP3    H132020   2.147   6.035   0.425  1.4020 -0.3767 -2.5150
 3535TIP3    H232021   2.168   5.960   0.555 -1.6668  1.5610 -0.7880
 3536TIP3   OH232022   3.460   2.556  17.158  0.7247 -0.1879 -0.1489
 3536TIP3    H132023   3.545   2.515  17.171  1.3474  0.9395 -0.5345
 3536TIP3    H232024   3.396   2.487  17.178  1.7110 -0.8749  0.6974
 3537TIP3   OH232025   4.244   5.306  16.581 -0.1248  0.3751 -0.0189
 3537TIP3    H132026   4.321   5.362  16.578  0.9140 -1.0011  0.0257
 3537TIP3    H232027   4.252   5.257  16.662 -1.0661  0.2295  0.0026
 3538TIP3   OH232028   0.100   1.344  14.570 -0.0313 -0.3326 -0.5028
 3538TIP3    H132029   0.145   1.424  14.599  1.0012 -1.3167  0.7600
 3538TIP3    H232030   0.165   1.298  14.518  0.9995 -2.3460  2.3263
 3539TIP3   OH232031   6.592   1.185  14.231  0.4066  0.0451 -0.3831
 3539TIP3    H132032   6.623   1.176  14.321  0.5137  1.0897 -0.2923
 3539TIP3    H232033   6.509   1.138  14.228 -0.8580  2.0182  0.9572
 3540TIP3   OH232034   6.107   1.555   5.036  0.1107 -0.6359  0.8750
 3540TIP3    H132035   6.094   1.525   4.945 -0.1119  0.4370  0.5438
 3540TIP3    H232036   6.176   1.497   5.070 -0.4274 -1.6350  0.3140
 3541TIP3   OH232037   3.642   5.520   5.636  0.5030 -0.3543  0.2532
 3541TIP3    H132038   3.660   5.492   5.726 -0.0791  0.4191  0.6275
 3541TIP3    H232039   3.578   5.591   5.646  0.7428  0.0123 -0.7507
 3542TIP3   OH232040   3.275   2.821   2.460  0.0297  0.4549 -0.0451
 3542TIP3    H132041   3.296   2.732   2.430 -2.2222  0.2077 -1.0230
 3542TIP3    H232042   3.314   2.878   2.394  0.8106  0.1921  0.1702
 3543TIP3   OH232043   4.167   4.278  14.846  0.3974  0.0452 -0.3227
 3543TIP3    H132044   4.249   4.228  14.837  0.4699  0.4675 -2.9660
 3543TIP3    H232045   4.099   4.217  14.819 -0.1204 -0.0730  1.1672
 3544TIP3   OH232046   5.443   3.663  14.169  0.3659 -0.1968  0.0694
 3544TIP3    H132047   5.508   3.608  14.214  1.2012  0.9327  0.3005
 3544TIP3    H232048   5.487   3.690  14.088 -0.0451  0.1255 -0.0462
 3545TIP3   OH232049   0.407   6.600  13.692  0.1103  0.2717  0.3092
 3545TIP3    H132050   0.484   6.558  13.730  1.3149  1.1260 -1.0912
 3545TIP3    H232051   0.406   6.688  13.730  0.3844  0.5770 -0.3748
 3546TIP3   OH232052   3.921   1.342   1.551  0.0447  0.0310 -0.0728
 3546TIP3    H132053   4.006   1.368   1.587  0.6160  0.1782 -1.4497
 3546TIP3    H232054   3.941   1.266   1.496 -0.1978  1.6443 -2.5629
 3547TIP3   OH232055   4.425   5.720   2.854 -0.0920 -0.9129 -0.4548
 3547TIP3    H132056   4.461   5.677   2.932 -1.1189 -2.0322 -0.5605
 3547TIP3    H232057   4.340   5.754   2.882  0.6837  1.0656 -0.3955
 3548TIP3   OH232058   0.950   6.314  16.246  0.3013  0.3724 -0.1527
 3548TIP3    H132059   0.991   6.323  16.332 -1.4291  1.6810  0.6061
 3548TIP3    H232060   1.013   6.264  16.194  1.2806 -0.6982  1.9464
 3549TIP3   OH232061   4.637   2.117   5.386  0.3009  0.0274  0.2291
 3549TIP3    H132062   4.730   2.097   5.372  0.5576  3.0313 -4.6308
 3549TIP3    H232063   4.591   2.044   5.344  0.6786  0.5539 -1.1643
 3550TIP3   OH232064   1.690   0.184   1.793  0.2461  0.0368 -0.1113
 3550TIP3    H132065   1.609   0.141   1.820 -0.5108  0.6864 -1.2550
 3550TIP3    H232066   1.741   0.114   1.752 -0.4533 -0.0468 -0.8671
 3551TIP3   OH232067   1.965   6.169  10.593 -0.5560 -0.2736 -0.2052
 3551TIP3    H132068   2.005   6.248  10.555 -2.2543  0.1198 -1.3323
 3551TIP3    H232069   2.030   6.100  10.579  0.1964  0.5467 -0.9324
 3552TIP3   OH232070   5.625   3.576   2.880 -0.1263  0.2069 -0.1785
 3552TIP3    H132071   5.713   3.579   2.844 -1.0304  2.3392 -2.5841
 3552TIP3    H232072   5.614   3.661   2.924 -0.8094 -0.2408  0.5486
 3553TIP3   OH232073   2.844   1.270   1.797  0.1437 -0.7559  0.2572
 3553TIP3    H132074   2.841   1.294   1.704  0.3289  0.8704  0.6534
 3553TIP3    H232075   2.936   1.282   1.822 -0.1792  0.2483  1.0016
 3554TIP3   OH232076   2.744   1.091  15.208 -0.1334 -0.2523 -0.0930
 3554TIP3    H132077   2.695   1.150  15.151  0.3930  2.1353  1.7557
 3554TIP3    H232078   2.678   1.051  15.264 -0.4026 -0.7116 -0.7266
 3555TIP3   OH232079   0.732   0.830  15.593  0.4853  0.0506  0.4071
 3555TIP3    H132080   0.813   0.857  15.637  0.8639  0.5695 -0.5654
 3555TIP3    H232081   0.729   0.884  15.514 -1.5182  1.0281  1.0740
 3556TIP3   OH232082   0.850   0.219   3.478 -0.1943  0.3081  0.1743
 3556TIP3    H132083   0.939   0.198   3.449 -0.7524 -0.5688 -0.9703
 3556TIP3    H232084   0.797   0.210   3.399 -1.6351 -1.1902  1.2684
 3557TIP3   OH232085   3.211   3.615   5.179  0.2538 -0.5505 -0.1918
 3557TIP3    H132086   3.187   3.592   5.089  2.2591  1.7734 -1.4202
 3557TIP3    H232087   3.251   3.535   5.214  0.7946 -1.0566 -1.8863
 3558TIP3   OH232088   6.571   3.504  16.547 -0.4470 -0.0888  0.3148
 3558TIP3    H132089   6.479   3.525  16.530  0.0970  1.4251 -0.9149
 3558TIP3    H232090   6.611   3.497  16.461  0.7089 -0.2896  0.8417
 3559TIP3   OH232091   1.610   0.449  14.391  0.1537 -0.1409  0.5827
 3559TIP3    H132092   1.628   0.395  14.314 -0.3144  0.7974 -0.2091
 3559TIP3    H232093   1.539   0.506  14.364  0.9003  1.1596  1.2507
 3560TIP3   OH232094   1.430   0.165   0.748  0.6659  0.2121 -0.0925
 3560TIP3    H132095   1.451   0.258   0.740  2.2343 -0.1879 -1.2343
 3560TIP3    H232096   1.513   0.120   0.732 -0.0917 -1.4025  0.2377
 3561TIP3   OH232097   2.688   1.019   3.984  0.1872  0.7630  0.7108
 3561TIP3    H132098   2.723   1.072   3.912  0.2302 -1.3749 -0.9689
 3561TIP3    H232099   2.671   0.934   3.944 -0.5549 -0.2888  3.0950
 3562TIP3   OH232100   1.736   4.956  12.141 -0.5330 -0.4232 -0.1154
 3562TIP3    H132101   1.724   4.862  12.151 -0.6405 -0.9882 -3.9934
 3562TIP3    H232102   1.651   4.988  12.111  0.0922  0.4999 -0.9521
 3563TIP3   OH232103   3.991   5.014   5.226 -0.2072  0.4268 -0.4497
 3563TIP3    H132104   4.085   5.024   5.209 -0.2408  0.7261 -0.4690
 3563TIP3    H232105   3.965   4.939   5.172  0.6562 -1.7403  1.9533
 3564TIP3   OH232106   6.318   2.615  15.874  0.1062  0.1491 -0.0597
 3564TIP3    H132107   6.263   2.691  15.895  0.8105  0.6696 -0.0650
 3564TIP3    H232108   6.260   2.540  15.885  0.1239  0.4520  2.6595
 3565TIP3   OH232109   3.703   1.911   3.579 -0.1402  0.1871 -0.6199
 3565TIP3    H132110   3.799   1.910   3.581 -0.1565 -0.7070  0.1727
 3565TIP3    H232111   3.677   1.838   3.634 -1.3012  1.1312  0.1381
 3566TIP3   OH232112   0.969   1.284  17.055 -0.2524  0.2741  0.1997
 3566TIP3    H132113   1.027   1.211  17.033 -1.0354  0.2778 -2.2031
 3566TIP3    H232114   0.893   1.244  17.097  0.5677  0.0544  1.5134
 3567TIP3   OH232115   0.407   1.923  10.190  0.5023  0.2709 -0.3029
 3567TIP3    H132116   0.374   2.012  10.193 -0.9021 -0.2464  0.2467
 3567TIP3    H232117   0.338   1.872  10.147  1.3810 -0.5192 -0.8300
 3568TIP3   OH232118   6.180   2.645   2.014  0.7403 -0.1657 -0.2499
 3568TIP3    H132119   6.160   2.556   2.043 -0.9253  0.2223 -0.1131
 3568TIP3    H232120   6.107   2.698   2.046  0.0931  0.7256 -2.9023
 3569TIP3   OH232121   4.337   3.829  14.998 -1.2089 -0.0348 -0.4553
 3569TIP3    H132122   4.368   3.760  14.938 -0.1134  0.3690 -0.3691
 3569TIP3    H232123   4.410   3.843  15.058 -1.9121  0.3081  0.3358
 3570TIP3   OH232124   1.174   0.184  16.061  0.8512 -0.3642  0.0823
 3570TIP3    H132125   1.219   0.121  16.116  0.2468 -0.1262  0.8731
 3570TIP3    H232126   1.081   0.161  16.070  0.5894  0.8311  0.6539
 3571TIP3   OH232127   4.422   2.169   5.541  0.2497  0.3719  0.1138
 3571TIP3    H132128   4.507   2.133   5.514  0.5814  0.3031  1.2273
 3571TIP3    H232129   4.408   2.242   5.481  1.1002  0.4031 -0.0692
 3572TIP3   OH232130   4.906   0.326   1.257  0.1479  0.2871  0.5201
 3572TIP3    H132131   4.993   0.286   1.247  0.4538  1.1260 -0.2447
 3572TIP3    H232132   4.923   0.409   1.300  0.0986  1.7986 -2.1698
 3573TIP3   OH232133   3.909   2.473   0.803 -0.0253  0.6419  0.2879
 3573TIP3    H132134   3.816   2.492   0.806  0.0265  0.8301  1.6936
 3573TIP3    H232135   3.923   2.415   0.879  0.7371 -0.6294 -0.7878
 3574TIP3   OH232136   0.898   2.156  15.128 -0.3506  0.1706  0.1651
 3574TIP3    H132137   0.902   2.247  15.098  2.8429  0.0364 -0.1280
 3574TIP3    H232138   0.889   2.104  15.047 -0.9675  0.1470  0.2409
 3575TIP3   OH232139   5.912   2.277  13.858  0.3422  0.0058 -0.0560
 3575TIP3    H132140   5.921   2.247  13.767  2.6119  1.1395 -0.2649
 3575TIP3    H232141   5.876   2.366  13.850 -2.0047 -0.8259  0.3508
 3576TIP3   OH232142   4.847   2.504  14.610 -0.4152 -0.0365 -0.5585
 3576TIP3    H132143   4.825   2.543  14.695 -0.7274  0.4180 -0.8441
 3576TIP3    H232144   4.933   2.465  14.624 -0.9656 -0.9995  0.3099
 3577TIP3   OH232145   6.330   1.877   3.783 -0.2255  0.6334 -0.0990
 3577TIP3    H132146   6.378   1.867   3.701  1.6747  0.3235  0.9913
 3577TIP3    H232147   6.381   1.827   3.847  0.1753  3.4466  1.9703
 3578TIP3   OH232148   3.532   0.497  17.162  0.0955 -0.0598 -0.3827
 3578TIP3    H132149   3.503   0.475  17.073  1.3644  1.3249 -1.1839
 3578TIP3    H232150   3.503   0.587  17.174  0.7421  0.0684  0.2571
 3579TIP3   OH232151   2.331   6.496   2.624 -0.1828 -0.6464  0.4945
 3579TIP3    H132152   2.283   6.488   2.541 -1.3885  0.1870  1.0725
 3579TIP3    H232153   2.361   6.407   2.643 -1.4845 -1.2004  0.0769
 3580TIP3   OH232154   2.396   3.541   0.512 -0.4545  0.4725 -0.7298
 3580TIP3    H132155   2.335   3.486   0.560  0.7680 -0.1248  0.2012
 3580TIP3    H232156   2.434   3.483   0.445  1.9778 -0.4070  1.2219
 3581TIP3   OH232157   5.048   2.382   2.745 -0.1798  0.0817  0.3186
 3581TIP3    H132158   5.041   2.302   2.796 -1.1996  0.4915  0.8428
 3581TIP3    H232159   4.965   2.428   2.759 -0.0088  0.7674 -0.7597
 3582TIP3   OH232160   3.560   4.538   3.955 -0.3929 -0.2880 -0.1678
 3582TIP3    H132161   3.494   4.582   4.009 -0.2128 -0.2642  0.0356
 3582TIP3    H232162   3.515   4.517   3.874 -0.0300  1.8479 -0.9878
 3583TIP3   OH232163   3.310   3.841   3.904  0.3287 -0.6612  0.3913
 3583TIP3    H132164   3.233   3.870   3.953  0.1029  1.5655 -1.0985
 3583TIP3    H232165   3.354   3.923   3.879  0.5701 -1.6290 -2.8107
 3584TIP3   OH232166   5.415   2.912  16.326 -0.2127  0.6874  0.2030
 3584TIP3    H132167   5.386   2.824  16.301 -1.0779  1.0022  0.0647
 3584TIP3    H232168   5.374   2.970  16.262  0.8124  1.1502 -0.0500
 3585TIP3   OH232169   1.401   6.465  14.729  0.3338 -0.3923  0.1520
 3585TIP3    H132170   1.422   6.557  14.713  0.4723 -0.5037 -0.3099
 3585TIP3    H232171   1.454   6.442  14.806  0.9379 -0.3186 -0.2383
 3586TIP3   OH232172   3.671   4.220   0.988  0.0926  0.0733  0.4581
 3586TIP3    H132173   3.702   4.133   0.964  0.7728  0.8121 -1.5275
 3586TIP3    H232174   3.701   4.233   1.078  0.2468 -1.5973  0.6684
 3587TIP3   OH232175   5.379   4.576   2.574  0.0019  0.6059 -0.7399
 3587TIP3    H132176   5.327   4.614   2.645  2.1883 -1.8584  2.4909
 3587TIP3    H232177   5.337   4.492   2.556  0.1502  0.7018 -1.5797
 3588TIP3   OH232178   1.834   1.385   3.662 -0.3173 -0.2962 -0.4385
 3588TIP3    H132179   1.786   1.304   3.676  1.6986 -1.5130 -0.2318
 3588TIP3    H232180   1.925   1.358   3.651  1.1111  2.0884  3.2791
 3589TIP3   OH232181   1.907   3.718  13.299 -0.6019  0.3872  0.5279
 3589TIP3    H132182   1.829   3.747  13.347 -2.1251 -2.6592  0.1119
 3589TIP3    H232183   1.968   3.690  13.367 -1.9466 -1.9491  0.8945
 3590TIP3   OH232184   4.658   2.575  10.800 -0.2894  0.6913 -0.2477
 3590TIP3    H132185   4.627   2.658  10.764  2.0856  1.0311 -1.6730
 3590TIP3    H232186   4.634   2.509  10.735 -1.5772  0.3245  0.5690
 3591TIP3   OH232187   3.328   2.380   4.196 -0.4616 -0.4932  0.0342
 3591TIP3    H132188   3.416   2.344   4.192 -0.5770 -0.8996  0.9618
 3591TIP3    H232189   3.277   2.326   4.135 -0.7295 -2.2466  1.7081
 3592TIP3   OH232190   0.717   5.411   6.076 -0.4130  0.0849 -0.4931
 3592TIP3    H132191   0.671   5.475   6.022 -0.2456  0.1280 -0.5865
 3592TIP3    H232192   0.740   5.458   6.156  0.7928  0.5130 -1.0609
 3593TIP3   OH232193   6.160   0.220  14.392  0.4640  0.3212 -0.3610
 3593TIP3    H132194   6.194   0.135  14.368 -1.0019 -0.0759 -1.1595
 3593TIP3    H232195   6.098   0.242  14.323  0.8944  2.1076 -0.2495
 3594TIP3   OH232196   3.108   4.537  14.838 -0.0288  0.5720  0.1085
 3594TIP3    H132197   3.091   4.622  14.880  0.2242  0.3309  0.7206
 3594TIP3    H232198   3.150   4.485  14.907 -0.9634 -0.3352  0.0129
 3595TIP3   OH232199   4.544   2.593  12.631 -0.4499  0.2435 -0.1725
 3595TIP3    H132200   4.590   2.533  12.573 -1.9457 -0.1796 -0.9684
 3595TIP3    H232201   4.453   2.593  12.600 -1.1321  0.6317  1.6549
 3596TIP3   OH232202   4.281   4.559  15.564 -0.4589  0.4889 -0.1493
 3596TIP3    H132203   4.189   4.585  15.555 -0.7515 -0.4980 -0.1884
 3596TIP3    H232204   4.308   4.535  15.475 -0.2110  0.6093 -0.1083
 3597TIP3   OH232205   0.312   0.512  16.674  0.0761  0.1697  0.3548
 3597TIP3    H132206   0.372   0.439  16.691 -0.0440  0.2812  1.3777
 3597TIP3    H232207   0.243   0.475  16.620  0.1436 -0.4227  0.6629
 3598TIP3   OH232208   6.518   5.975  14.377 -0.0488 -0.4078 -0.1830
 3598TIP3    H132209   6.434   5.936  14.352  0.9464 -1.4895 -2.0351
 3598TIP3    H232210   6.584   5.920  14.336  1.5652  0.9383  0.4656
 3599TIP3   OH232211   0.382   5.742  14.281 -0.4457  0.9638  0.7590
 3599TIP3    H132212   0.464   5.761  14.236 -0.6644  2.2271  0.8655
 3599TIP3    H232213   0.394   5.653  14.315 -0.1112  0.1306 -1.3804
 3600TIP3   OH232214   2.268   3.493  13.689 -0.1976  0.1670 -0.0085
 3600TIP3    H132215   2.348   3.451  13.657 -0.4280 -0.6179  0.4177
 3600TIP3    H232216   2.297   3.579  13.719  0.6040 -0.3273  0.6737
 3601TIP3   OH232217   0.056   1.688   1.838  0.3233  0.6691 -0.2999
 3601TIP3    H132218   0.118   1.632   1.884 -0.1463  0.1961 -0.2293
 3601TIP3    H232219  -0.029   1.667   1.876  0.0261  0.8177 -0.8592
 3602TIP3   OH232220   1.317   2.352  16.444 -0.1423 -0.6348 -0.4505
 3602TIP3    H132221   1.284   2.292  16.511 -0.5967 -1.1351 -1.1100
 3602TIP3    H232222   1.243   2.411  16.426  0.0827 -0.2994 -0.2897
 3603TIP3   OH232223   2.077   5.338   2.397  0.0649 -0.4185 -0.4380
 3603TIP3    H132224   2.097   5.321   2.489 -0.2014 -0.2988 -0.3554
 3603TIP3    H232225   1.988   5.305   2.385  0.2524 -0.8097 -0.7608
 3604TIP3   OH232226   2.156   4.789   5.882  0.6813 -0.6148 -0.2897
 3604TIP3    H132227   2.105   4.806   5.961 -1.3309  0.5492 -1.7541
 3604TIP3    H232228   2.178   4.696   5.887  1.1614 -0.4381  1.9011
 3605TIP3   OH232229   0.618   0.310  11.528  0.3822 -0.4747 -0.2511
 3605TIP3    H132230   0.555   0.242  11.508  0.6648 -1.1620  1.0472
 3605TIP3    H232231   0.680   0.269  11.589  1.6806  0.3762 -0.9269
 3606TIP3   OH232232   2.271   2.901   1.627 -0.2967  0.2653 -0.6223
 3606TIP3    H132233   2.325   2.980   1.627  1.3824 -0.8135 -0.2847
 3606TIP3    H232234   2.247   2.888   1.535  0.7599  0.3184 -0.9215
 3607TIP3   OH232235   2.503   0.206  14.683  0.3652  0.1988 -0.2679
 3607TIP3    H132236   2.519   0.273  14.616 -0.5575 -0.4370 -1.1472
 3607TIP3    H232237   2.583   0.153  14.683 -1.3053 -2.9244 -4.5795
 3608TIP3   OH232238   5.504   6.609  11.978 -0.2281  0.3479 -0.4288
 3608TIP3    H132239   5.532   6.659  11.901  2.1610  0.7713  0.6210
 3608TIP3    H232240   5.572   6.542  11.989 -1.8039 -1.2707 -0.0454
 3609TIP3   OH232241   2.952   0.358  12.030 -0.3670  0.0851 -0.3725
 3609TIP3    H132242   2.920   0.446  12.015  0.4856  0.0321 -3.1092
 3609TIP3    H232243   3.047   0.368  12.036 -0.3446 -0.5383  0.5649
 3610TIP3   OH232244   5.051   0.791   1.715  0.3560 -0.4244  0.2533
 3610TIP3    H132245   4.963   0.785   1.753 -0.4112  1.1970 -1.1180
 3610TIP3    H232246   5.059   0.883   1.689  2.0674 -0.7794 -0.5909
 3611TIP3   OH232247   4.399   4.060   1.554 -0.5684  0.6863 -0.2706
 3611TIP3    H132248   4.460   4.027   1.619  0.4690 -1.4204 -2.1704
 3611TIP3    H232249   4.319   4.009   1.567 -1.3484  2.1339  0.9918
 3612TIP3   OH232250   4.459   0.635  14.617  0.0225 -0.0879 -0.4066
 3612TIP3    H132251   4.522   0.692  14.663  2.0632 -2.3714 -0.1795
 3612TIP3    H232252   4.453   0.672  14.529 -0.2036  1.5337  0.2401
 3613TIP3   OH232253   6.415   5.023   2.961 -0.2217  0.0419 -0.0358
 3613TIP3    H132254   6.454   5.028   2.874 -0.6035 -2.2015 -0.4026
 3613TIP3    H232255   6.473   4.965   3.010 -0.1322  1.1039  1.1605
 3614TIP3   OH232256   2.005   0.562   0.145  0.1455 -0.1412 -0.6214
 3614TIP3    H132257   2.089   0.524   0.172  0.7000  0.6189 -1.2061
 3614TIP3    H232258   1.976   0.612   0.221  0.1962 -0.4589 -0.3927
 3615TIP3   OH232259   5.353   0.997   3.358 -0.1956 -0.0236  0.1311
 3615TIP3    H132260   5.322   1.034   3.441 -0.2357 -0.5575  0.3590
 3615TIP3    H232261   5.347   0.902   3.371  0.8410 -0.1257 -0.0885
 3616TIP3   OH232262   0.081   2.080   0.187 -0.5908  0.2705  0.1421
 3616TIP3    H132263   0.135   2.035   0.253 -0.3202 -0.0495 -0.2938
 3616TIP3    H232264   0.008   2.117   0.237  0.6614  1.7724  0.9360
 3617TIP3   OH232265   1.401   5.303  13.300 -0.2683  0.5671  0.1914
 3617TIP3    H132266   1.366   5.318  13.388 -1.7141  0.6929 -0.3659
 3617TIP3    H232267   1.362   5.373  13.248 -0.5933 -0.3560 -0.8348
 3618TIP3   OH232268   4.924   0.053  11.710  0.6176  0.1887 -0.6441
 3618TIP3    H132269   5.004   0.005  11.732  0.2645 -0.5230 -0.9147
 3618TIP3    H232270   4.916   0.118  11.780 -0.5277 -2.0789  1.4690
 3619TIP3   OH232271   3.772   2.716  13.772  0.1470 -0.8018 -0.4860
 3619TIP3    H132272   3.696   2.757  13.730  0.6298 -0.6174 -1.2001
 3619TIP3    H232273   3.788   2.768  13.850 -0.2629 -0.6455 -0.5022
 3620TIP3   OH232274   2.588   2.418   1.544  0.2693  0.0673  0.0442
 3620TIP3    H132275   2.594   2.403   1.449 -0.2117 -1.5271  0.2296
 3620TIP3    H232276   2.666   2.469   1.565  1.7812 -1.7576 -0.8280
 3621TIP3   OH232277   6.623   3.896   4.021  0.4019 -0.4997 -0.2642
 3621TIP3    H132278   6.587   3.963   3.964  0.6803 -1.5740 -1.7727
 3621TIP3    H232279   6.645   3.824   3.962 -0.1530 -2.0432  1.3207
 3622TIP3   OH232280   1.057   0.286  15.488 -0.2260  0.5219  0.0716
 3622TIP3    H132281   1.144   0.314  15.459 -0.0475 -0.1321 -0.0346
 3622TIP3    H232282   1.031   0.218  15.426  0.0168 -0.6583  1.2017
 3623TIP3   OH232283   5.426   2.938   2.957 -0.0087  0.5183  0.2911
 3623TIP3    H132284   5.408   2.944   2.863 -0.5676 -2.6747  0.0820
 3623TIP3    H232285   5.339   2.931   2.997  0.2452 -2.4546  0.5245
 3624TIP3   OH232286   2.040   3.653   6.015  0.5095  0.0513 -0.2167
 3624TIP3    H132287   2.047   3.565   6.053  0.9555  0.4473  0.6373
 3624TIP3    H232288   2.128   3.690   6.024  0.2957  0.6287 -0.4775
 3625TIP3   OH232289   5.986   0.858  10.861  0.0875 -0.2071  0.2212
 3625TIP3    H132290   6.065   0.806  10.846  1.0084  0.9349  0.9344
 3625TIP3    H232291   5.964   0.842  10.953 -0.0867  0.0491  0.2235
 3626TIP3   OH232292   6.285   0.613   1.082  0.4644  0.6166 -0.1870
 3626TIP3    H132293   6.190   0.609   1.096  0.1898  2.7191 -1.0552
 3626TIP3    H232294   6.316   0.526   1.106 -1.6312 -0.0209  0.4706
 3627TIP3   OH232295   4.844   0.956  11.431  0.1176 -0.3502 -0.0305
 3627TIP3    H132296   4.924   0.906  11.449  0.5134 -0.0201 -0.8139
 3627TIP3    H232297   4.783   0.891  11.395  0.4001 -0.4095 -0.4153
 3628TIP3   OH232298   4.906   6.385  11.029 -0.1646 -0.2490 -1.0190
 3628TIP3    H132299   4.825   6.342  11.000  0.0237 -0.9215 -0.5851
 3628TIP3    H232300   4.928   6.446  10.959 -0.8119 -0.3764 -1.3391
 3629TIP3   OH232301   0.094   3.131   1.701 -0.6366  0.6607  0.6707
 3629TIP3    H132302   0.020   3.094   1.749  0.3549  0.0301  1.7533
 3629TIP3    H232303   0.170   3.086   1.737  0.2199  0.7759 -0.9309
 3630TIP3   OH232304   0.687   0.594  15.442  0.1607 -0.6922 -0.3301
 3630TIP3    H132305   0.647   0.612  15.357 -0.3201  1.2382  0.2446
 3630TIP3    H232306   0.688   0.679  15.486  1.3715 -1.4404  1.1914
 3631TIP3   OH232307   5.864   5.625  14.509 -0.2584  0.0292  0.6997
 3631TIP3    H132308   5.788   5.667  14.468  0.3315  1.6092  1.1509
 3631TIP3    H232309   5.933   5.629  14.444 -0.4169 -1.0442  0.4396
 3632TIP3   OH232310   2.657   3.050  14.420 -0.0446 -0.8562  0.1480
 3632TIP3    H132311   2.752   3.064  14.422 -0.0980 -0.4883  0.1475
 3632TIP3    H232312   2.626   3.111  14.353 -0.2872 -0.9470  0.1793
 3633TIP3   OH232313   5.054   4.455   5.112  0.2988 -0.2537  0.0556
 3633TIP3    H132314   5.119   4.387   5.100 -0.5314 -0.7635 -1.9069
 3633TIP3    H232315   5.041   4.459   5.207  3.6661  0.4140  0.6195
 3634TIP3   OH232316   6.540   3.055  11.055 -0.3697  0.3452  0.3508
 3634TIP3    H132317   6.593   2.978  11.071 -1.0849 -0.1193  0.5225
 3634TIP3    H232318   6.551   3.109  11.133  1.6205  1.3247 -0.5382
 3635TIP3   OH232319   0.469   6.321   0.868 -0.4361  0.2710  0.0097
 3635TIP3    H132320   0.522   6.375   0.927 -0.2120 -0.3475  0.3790
 3635TIP3    H232321   0.454   6.377   0.792 -0.9879  1.1925  0.7742
 3636TIP3   OH232322   3.988   0.199   3.244  0.2273  0.0336  0.3017
 3636TIP3    H132323   3.972   0.292   3.228  0.9544  0.2296  0.6413
 3636TIP3    H232324   4.071   0.197   3.292  0.7610 -0.8513 -0.6047
 3637TIP3   OH232325   6.718   1.305   2.398 -0.1608  0.3009  0.1135
 3637TIP3    H132326   6.638   1.345   2.362 -0.6975 -1.2772 -0.5167
 3637TIP3    H232327   6.747   1.245   2.330  1.1562  0.3010  0.6603
 3638TIP3   OH232328   1.315   4.881   2.724 -0.1162  0.8583 -0.4555
 3638TIP3    H132329   1.238   4.842   2.765 -1.0206  2.6930 -0.3263
 3638TIP3    H232330   1.386   4.868   2.788  0.5835 -3.5216 -1.7657
 3639TIP3   OH232331   0.412   0.584  17.116 -0.7010 -0.4783 -0.0143
 3639TIP3    H132332   0.336   0.636  17.144  0.0730  2.1708 -2.2733
 3639TIP3    H232333   0.469   0.581  17.192 -0.8471  2.0748  0.2903
 3640TIP3   OH232334   0.985   3.889  14.633 -0.3782 -0.4840  0.4878
 3640TIP3    H132335   0.999   3.900  14.727  0.4478 -1.2759  0.4745
 3640TIP3    H232336   0.974   3.977  14.599  0.2178 -0.1305  1.1936
 3641TIP3   OH232337   2.200   6.544  11.255  0.8646  0.6938  1.0589
 3641TIP3    H132338   2.138   6.500  11.313 -1.2991  1.9635 -0.1364
 3641TIP3    H232339   2.223   6.479  11.190 -1.3263  0.8636  0.0270
 3642TIP3   OH232340   5.157   4.017   1.824  0.2014  0.7533  0.6675
 3642TIP3    H132341   5.168   3.939   1.877 -0.0894  0.7447  0.7158
 3642TIP3    H232342   5.079   4.060   1.859 -0.8009  0.0363 -0.6168
 3643TIP3   OH232343   2.151   6.734   4.398  0.3814  0.3280  0.9230
 3643TIP3    H132344   2.069   6.718   4.352  0.5405 -0.0864  0.7820
 3643TIP3    H232345   2.190   6.647   4.410  1.5645  0.6274 -0.4201
 3644TIP3   OH232346   2.459   1.218   1.489 -0.4921 -0.1756 -0.6630
 3644TIP3    H132347   2.500   1.143   1.533 -1.6784 -0.7194 -0.4356
 3644TIP3    H232348   2.377   1.231   1.536 -1.0395  0.2622 -1.7077
 3645TIP3   OH232349   2.621   2.374   5.247  0.2623  0.1889 -0.6345
 3645TIP3    H132350   2.625   2.282   5.221 -1.2326 -0.0342 -0.1791
 3645TIP3    H232351   2.560   2.414   5.185 -1.4797  0.1646  0.9732
 3646TIP3   OH232352   0.845   6.048  16.279  0.6994  0.0419 -0.2500
 3646TIP3    H132353   0.866   6.139  16.259 -0.7111  0.6645  0.9332
 3646TIP3    H232354   0.876   6.035  16.368 -1.9862  0.4215  0.8387
 3647TIP3   OH232355   1.344   0.193  13.881  0.4701  0.3922 -0.2253
 3647TIP3    H132356   1.330   0.288  13.883  0.8839  0.5856 -3.1445
 3647TIP3    H232357   1.439   0.183  13.887  0.5319  0.2666 -1.2475
 3648TIP3   OH232358   5.378   4.166   1.999  0.1780 -0.2999 -0.3006
 3648TIP3    H132359   5.304   4.136   1.947 -1.3381 -0.5280  1.8772
 3648TIP3    H232360   5.409   4.088   2.045 -0.0593  0.3057  0.9374
 3649TIP3   OH232361   2.558   1.573   4.372 -0.0155 -0.2431 -0.0553
 3649TIP3    H132362   2.596   1.547   4.455 -0.0502 -0.5338 -0.1284
 3649TIP3    H232363   2.566   1.495   4.316 -0.9514 -0.4079  0.0126
 3650TIP3   OH232364   2.335   1.405  14.538  0.3309  0.3981  0.8323
 3650TIP3    H132365   2.303   1.493  14.560 -0.0903  0.2581  0.7783
 3650TIP3    H232366   2.291   1.382  14.457  3.8225  1.9852 -1.8171
 3651TIP3   OH232367   2.604   4.404   6.049 -0.2573  0.0368  0.3181
 3651TIP3    H132368   2.561   4.337   6.102 -0.5318  0.3405  0.4842
 3651TIP3    H232369   2.556   4.404   5.967 -0.3667  0.1536  0.3833
 3652TIP3   OH232370   6.713   1.389  15.541 -0.5200 -0.4407 -0.5819
 3652TIP3    H132371   6.748   1.388  15.630 -0.5263 -0.3437 -0.5779
 3652TIP3    H232372   6.670   1.474  15.534 -1.1030 -0.7180 -0.4522
 3653TIP3   OH232373   6.503   3.541   1.562 -0.3680 -0.3594 -0.3249
 3653TIP3    H132374   6.454   3.578   1.635 -1.1000  0.2088 -1.0799
 3653TIP3    H232375   6.537   3.458   1.594  0.2179  0.3575  0.9989
 3654TIP3   OH232376   6.649   6.630   4.269  0.2261  0.1403  0.1050
 3654TIP3    H132377   6.570   6.684   4.266 -0.4738 -0.8389 -3.1953
 3654TIP3    H232378   6.630   6.557   4.211  2.5453 -1.6918  1.4753
 3655TIP3   OH232379   1.801   3.337   4.408  0.2107 -0.0966  0.4837
 3655TIP3    H132380   1.738   3.355   4.338 -0.6421  0.1287  1.2797
 3655TIP3    H232381   1.830   3.423   4.437 -0.6264 -0.1132  1.4329
 3656TIP3   OH232382   2.203   6.350   2.137 -0.0949 -0.2836  0.1392
 3656TIP3    H132383   2.294   6.377   2.128 -0.4177  0.6382 -0.5878
 3656TIP3    H232384   2.207   6.256   2.151  0.9312 -0.4794 -1.2103
 3657TIP3   OH232385   3.597   1.452  14.718  0.0902  0.1795  0.1383
 3657TIP3    H132386   3.571   1.371  14.761  0.9763  0.6222  1.5930
 3657TIP3    H232387   3.548   1.453  14.635 -2.4135 -0.2591  1.5266
 3658TIP3   OH232388   6.437   4.852  15.268 -0.3170  0.4893  0.5279
 3658TIP3    H132389   6.386   4.928  15.299 -0.1108  0.2694  1.4312
 3658TIP3    H232390   6.517   4.855  15.319 -0.6776 -0.8318  1.2099
 3659TIP3   OH232391   2.967   2.770  11.837 -1.0355  0.1849 -0.2139
 3659TIP3    H132392   2.916   2.843  11.869 -1.5750 -0.0538 -0.5143
 3659TIP3    H232393   2.984   2.791  11.745 -2.3087 -0.6556 -0.6745
 3660TIP3   OH232394   5.238   1.292   4.675 -1.0664  0.0612  0.0366
 3660TIP3    H132395   5.241   1.238   4.754  0.4409  0.7355  0.4633
 3660TIP3    H232396   5.182   1.366   4.699 -0.1415  0.5672  0.6879
 3661TIP3   OH232397   3.821   0.465  10.463 -0.1988  0.1340  0.0095
 3661TIP3    H132398   3.732   0.446  10.490 -0.2571 -0.3034 -0.4840
 3661TIP3    H232399   3.876   0.416  10.524 -0.3540 -3.1026 -2.2199
 3662TIP3   OH232400   2.887   5.043  14.513  0.1168 -0.1458  0.3819
 3662TIP3    H132401   2.951   5.003  14.455 -0.7036 -0.4176 -0.3618
 3662TIP3    H232402   2.844   5.110  14.459 -0.6318 -0.3720  0.6796
 3663TIP3   OH232403   0.833   0.795  12.195  0.0095 -0.0444 -0.2781
 3663TIP3    H132404   0.803   0.866  12.137 -0.2094  0.9216  0.9703
 3663TIP3    H232405   0.827   0.716  12.142  1.2410  0.9927 -2.0565
 3664TIP3   OH232406   0.251   3.535   3.950  0.1152 -0.1229  0.2599
 3664TIP3    H132407   0.321   3.552   4.013  1.6901 -1.6892 -0.9630
 3664TIP3    H232408   0.186   3.486   4.000  0.9516 -0.6390  0.8685
 3665TIP3   OH232409   0.911   3.473  11.018  0.1496 -0.5338  0.1752
 3665TIP3    H132410   0.999   3.476  11.056 -0.5021  0.1141  1.7469
 3665TIP3    H232411   0.876   3.561  11.032 -1.1672 -1.1102  0.6472
 3666TIP3   OH232412   1.715   0.548  11.583  0.1375 -0.2393 -0.2661
 3666TIP3    H132413   1.804   0.515  11.592 -0.5998 -2.4333 -0.3022
 3666TIP3    H232414   1.672   0.522  11.665 -0.6250  0.2695 -0.4959
 3667TIP3   OH232415   5.039   6.083  13.869  0.0571 -0.3219  0.9521
 3667TIP3    H132416   5.022   6.164  13.819  2.6167 -0.1594  0.2292
 3667TIP3    H232417   5.064   6.019  13.803  3.3513 -0.1552  1.8926
 3668TIP3   OH232418   1.453   1.706   6.433 -0.5533 -0.2666  0.0525
 3668TIP3    H132419   1.387   1.701   6.364  0.3383 -1.5064 -0.7572
 3668TIP3    H232420   1.531   1.667   6.394  1.4018  3.1178  0.1994
 3669TIP3   OH232421   2.057   0.691  16.295  0.4651 -0.0865  0.5557
 3669TIP3    H132422   1.981   0.636  16.317  0.5866 -0.4443  0.0698
 3669TIP3    H232423   2.018   0.774  16.268  0.2473 -0.2264  0.4307
 3670TIP3   OH232424   4.925   6.055   5.686  0.1249  0.0267  0.0466
 3670TIP3    H132425   4.939   6.008   5.768 -2.4653 -1.7888 -0.4425
 3670TIP3    H232426   4.953   6.145   5.705  1.6323 -0.8043  2.2012
 3671TIP3   OH232427   0.284   4.990   2.389  0.3737  0.3534  0.2060
 3671TIP3    H132428   0.358   5.027   2.437 -0.2369  1.1263  0.5807
 3671TIP3    H232429   0.323   4.925   2.330  1.2892  0.4139  0.7264
 3672TIP3   OH232430   2.563   5.017   2.330  0.6969  0.5755  0.1713
 3672TIP3    H132431   2.631   5.060   2.383  1.0841  0.3425 -0.1333
 3672TIP3    H232432   2.611   4.977   2.257  0.1317  1.2571 -0.5962
 3673TIP3   OH232433   4.342   0.211   1.725 -0.1593  0.1743 -0.4952
 3673TIP3    H132434   4.437   0.212   1.741 -0.6141  0.6792  2.8754
 3673TIP3    H232435   4.333   0.176   1.636  3.2017  1.0460 -1.3186
 3674TIP3   OH232436   6.783   3.300  11.117 -0.1451 -0.1693 -0.3686
 3674TIP3    H132437   6.807   3.223  11.169  0.7727 -0.0822 -0.6306
 3674TIP3    H232438   6.688   3.305  11.123 -0.0435  0.1011  1.6523
 3675TIP3   OH232439   4.695   6.694  13.202 -0.0352  0.2990  0.2405
 3675TIP3    H132440   4.743   6.755  13.258  1.0418 -0.8211  0.6048
 3675TIP3    H232441   4.755   6.619  13.192 -0.5353  0.1078 -1.7422
 3676TIP3   OH232442   4.634   2.899  13.660 -0.6259  0.0333  0.1524
 3676TIP3    H132443   4.602   2.944  13.738  0.0328 -0.1260  0.5162
 3676TIP3    H232444   4.694   2.833  13.693 -0.8667 -0.4902 -0.4494
 3677TIP3   OH232445   4.383   1.042  16.873  0.5774  0.0449  0.2870
 3677TIP3    H132446   4.312   1.003  16.822  1.2043 -0.8938  0.1041
 3677TIP3    H232447   4.339   1.100  16.936 -0.3111 -0.1446 -0.1499
 3678TIP3   OH232448   1.848   4.671  13.906 -0.0922 -0.0462 -0.2377
 3678TIP3    H132449   1.781   4.627  13.959  0.5674 -1.0100 -0.1705
 3678TIP3    H232450   1.814   4.668  13.816  0.5401 -1.9831 -0.4594
 3679TIP3   OH232451   1.277   5.689  16.882 -0.5937 -0.1400 -0.3757
 3679TIP3    H132452   1.295   5.700  16.976 -1.2305  0.2568 -0.2898
 3679TIP3    H232453   1.218   5.762  16.861  0.7109  0.6511 -1.4323
 3680TIP3   OH232454   6.420   0.171   5.368 -0.2434 -0.0402  0.2886
 3680TIP3    H132455   6.384   0.192   5.455  1.3587  1.1231  0.7155
 3680TIP3    H232456   6.344   0.139   5.318 -0.8825 -2.4576  2.5963
 3681TIP3   OH232457   6.533   3.657   5.324  0.2615  0.3285  0.3272
 3681TIP3    H132458   6.462   3.677   5.263  0.0144 -0.7906  0.2322
 3681TIP3    H232459   6.564   3.743   5.352 -0.4551  0.8508 -0.4030
 3682TIP3   OH232460   2.755   6.489  13.663 -0.3464  0.0604  0.1674
 3682TIP3    H132461   2.801   6.562  13.705  0.7488 -1.2169  1.3031
 3682TIP3    H232462   2.710   6.445  13.735 -0.2309 -0.9043 -0.3343
 3683TIP3   OH232463   6.065   0.344  15.532  0.0055  0.4115 -0.4369
 3683TIP3    H132464   6.006   0.270  15.518 -0.0836 -0.0232  1.8115
 3683TIP3    H232465   6.013   0.408  15.580  0.9111  0.6485  0.2701
 3684TIP3   OH232466   1.657   0.354  11.823 -0.9801 -0.1435 -0.7428
 3684TIP3    H132467   1.738   0.312  11.794 -0.6086 -0.1125  0.2084
 3684TIP3    H232468   1.671   0.369  11.917 -2.7974 -1.8203 -0.1498
 3685TIP3   OH232469   5.351   2.968  15.632 -0.2671  1.0453  0.4118
 3685TIP3    H132470   5.405   2.897  15.667  0.9181  1.8656  0.2922
 3685TIP3    H232471   5.403   3.047  15.645 -0.1102  1.5091 -2.3834
 3686TIP3   OH232472   5.255   3.134  13.181 -0.5613  0.3742  0.5301
 3686TIP3    H132473   5.270   3.215  13.132  2.0478  1.0598  2.2364
 3686TIP3    H232474   5.322   3.135  13.250 -1.4274 -2.5092  1.5640
 3687TIP3   OH232475   4.885   0.526   5.403 -0.2876 -0.2112 -0.5586
 3687TIP3    H132476   4.906   0.560   5.490 -1.2289 -0.9750 -0.0109
 3687TIP3    H232477   4.937   0.446   5.395 -0.1504 -0.1065 -0.7373
 3688TIP3   OH232478   2.734   5.241   5.098  0.0597 -0.0367 -0.3541
 3688TIP3    H132479   2.785   5.169   5.135 -2.4546 -2.3066 -0.9732
 3688TIP3    H232480   2.786   5.273   5.025  1.4511 -0.9194  0.2203
 3689TIP3   OH232481   6.334   1.351   4.113 -0.2129  0.4186  0.2135
 3689TIP3    H132482   6.329   1.279   4.175 -0.6403  0.0122 -0.2886
 3689TIP3    H232483   6.243   1.370   4.090 -0.0690  0.7015 -0.1387
 3690TIP3   OH232484   4.311   1.597   0.270 -0.1768  0.2729 -0.6669
 3690TIP3    H132485   4.223   1.584   0.305  0.0466  1.2671  0.3079
 3690TIP3    H232486   4.343   1.509   0.253 -0.7136 -0.1961  0.6146
 3691TIP3   OH232487   2.508   4.691  16.621  0.4253 -0.0792  0.4411
 3691TIP3    H132488   2.448   4.616  16.624 -2.4319  2.0836  0.8157
 3691TIP3    H232489   2.546   4.688  16.533 -0.0333 -1.6423  0.2676
 3692TIP3   OH232490   1.297   0.848  11.900  0.8582  0.6500 -0.1368
 3692TIP3    H132491   1.296   0.923  11.841 -0.7097  0.6062 -0.1982
 3692TIP3    H232492   1.297   0.887  11.988  0.4859  0.7207 -0.1685
 3693TIP3   OH232493   2.591   1.836  14.978  0.0127  0.0655  0.1797
 3693TIP3    H132494   2.657   1.817  15.044 -1.1854 -2.2857  0.8078
 3693TIP3    H232495   2.533   1.899  15.020  0.1278 -0.2282  0.7934
 3694TIP3   OH232496   2.226   4.698  16.111 -0.0026 -0.2485 -0.2754
 3694TIP3    H132497   2.278   4.764  16.158  0.3016  1.0620 -2.3149
 3694TIP3    H232498   2.214   4.735  16.024 -0.4494 -2.6040 -1.2896
 3695TIP3   OH232499   3.096   0.795   4.227  0.5554 -0.0553  0.0176
 3695TIP3    H132500   3.082   0.844   4.146  0.0706 -0.6753 -0.2761
 3695TIP3    H232501   3.189   0.807   4.247  0.5083  0.7368 -0.2083
 3696TIP3   OH232502   4.997   1.506  14.500  0.0151  0.6502 -0.2605
 3696TIP3    H132503   4.916   1.468  14.535  0.4199  1.1323  1.2542
 3696TIP3    H232504   5.047   1.531  14.577  0.6351  2.4465 -1.2005
 3697TIP3   OH232505   6.256   2.636   3.086 -0.6027 -0.4485 -0.0223
 3697TIP3    H132506   6.351   2.629   3.074 -0.6584  0.0832 -0.8763
 3697TIP3    H232507   6.220   2.622   2.998 -1.1370  2.0255 -0.2748
 3698TIP3   OH232508   3.790   4.233   3.892 -0.7665 -0.7259 -0.2105
 3698TIP3    H132509   3.790   4.138   3.895  0.0032 -0.7079  0.8010
 3698TIP3    H232510   3.745   4.260   3.972  0.9517 -0.2594  0.6561
 3699TIP3   OH232511   0.021   6.197  16.329  0.3742 -0.0629  0.0007
 3699TIP3    H132512   0.111   6.168  16.322  0.3321 -0.1942 -0.0013
 3699TIP3    H232513  -0.006   6.215  16.239 -0.1019 -1.5515 -0.1732
 3700TIP3   OH232514   5.336   0.975   1.717 -0.2444  0.0061  0.0613
 3700TIP3    H132515   5.376   1.014   1.639  0.0108 -0.8935 -0.2749
 3700TIP3    H232516   5.245   1.004   1.714 -0.2048  0.0943 -0.4994
 3701TIP3   OH232517   0.338   2.565  16.130  0.1959 -0.4363  0.0719
 3701TIP3    H132518   0.367   2.542  16.218  0.6541 -0.2804 -0.0317
 3701TIP3    H232519   0.260   2.512  16.115  0.1456 -0.4999  0.5524
 3702TIP3   OH232520   5.753   2.247  16.355 -0.4346 -0.4131  0.2222
 3702TIP3    H132521   5.689   2.246  16.426 -0.4215 -0.7899  0.2268
 3702TIP3    H232522   5.838   2.255  16.399 -0.5316  1.4331  0.1777
 3703TIP3   OH232523   3.774   3.158  11.628 -0.0540  0.6035 -0.3216
 3703TIP3    H132524   3.810   3.158  11.717 -1.1901 -0.4272  0.1599
 3703TIP3    H232525   3.803   3.075  11.591 -1.7282 -0.1676  0.0148
 3704TIP3   OH232526   1.170   5.289   3.445  0.1199 -0.1090  0.3431
 3704TIP3    H132527   1.159   5.286   3.540 -0.9750 -1.9453  0.2152
 3704TIP3    H232528   1.235   5.221   3.427 -1.1867 -1.2416 -0.3343
 3705TIP3   OH232529   3.019   5.975   2.973 -0.2937 -0.0065 -0.0203
 3705TIP3    H132530   2.998   5.888   2.940 -0.1928 -0.1753  0.3499
 3705TIP3    H232531   3.104   5.996   2.934 -0.6592  0.2368 -0.6892
 3706TIP3   OH232532   1.520   0.294  15.987  0.4018  0.5406  0.2171
 3706TIP3    H132533   1.505   0.230  15.918  1.1002  0.2620  0.3123
 3706TIP3    H232534   1.432   0.316  16.019  0.1445 -0.3239  0.1407
 3707TIP3   OH232535   1.417   6.205   5.351 -0.2297 -0.7920 -0.5661
 3707TIP3    H132536   1.392   6.156   5.429  2.9540  0.2303  1.2454
 3707TIP3    H232537   1.466   6.143   5.298  1.4192 -0.3893  0.4216
 3708TIP3   OH232538   2.512   1.876  11.360  0.3953 -0.1038  0.4726
 3708TIP3    H132539   2.534   1.846  11.272  1.2176 -1.9656  1.2400
 3708TIP3    H232540   2.592   1.860  11.411 -0.0474  0.9755  1.5485
 3709TIP3   OH232541   3.152   3.788  15.138 -0.2026  0.0708 -0.1876
 3709TIP3    H132542   3.119   3.747  15.218 -2.1159  0.7911 -0.5731
 3709TIP3    H232543   3.202   3.718  15.094  0.7221 -0.3828  1.5029
 3710TIP3   OH232544   3.569   1.428   0.635 -0.2818 -0.2809 -0.5377
 3710TIP3    H132545   3.572   1.506   0.689 -2.2220 -0.4057 -0.1880
 3710TIP3    H232546   3.658   1.419   0.600  0.2253  1.4790  0.2288
 3711TIP3   OH232547   4.244   0.411  14.043 -0.1026  0.3411 -0.0219
 3711TIP3    H132548   4.182   0.425  13.971  0.6290 -0.0826 -0.7501
 3711TIP3    H232549   4.307   0.483  14.035  0.0427  0.2318  0.1238
 3712TIP3   OH232550   4.586   4.121  15.931  0.1419  0.6552  0.4647
 3712TIP3    H132551   4.574   4.096  15.839  0.2585  1.8176  0.1156
 3712TIP3    H232552   4.681   4.135  15.940  0.2138 -0.0751  0.9385
 3713TIP3   OH232553   4.395   6.304   2.635 -0.3010 -0.2911 -0.1095
 3713TIP3    H132554   4.308   6.307   2.596 -0.9415  0.4179  1.3116
 3713TIP3    H232555   4.428   6.394   2.628 -0.1890 -0.2860  0.4599
 3714TIP3   OH232556   1.793   2.374  12.322  0.5320 -0.0874 -0.0603
 3714TIP3    H132557   1.818   2.466  12.333 -1.4996  0.4098  0.9855
 3714TIP3    H232558   1.860   2.325  12.369  1.1304  0.9233  0.1803
 3715TIP3   OH232559   0.600   6.610  13.360  0.3536  0.1884 -0.6323
 3715TIP3    H132560   0.514   6.618  13.401  0.4354  0.9108 -0.5812
 3715TIP3    H232561   0.582   6.588  13.269  0.1128  0.2732 -0.6056
 3716TIP3   OH232562   2.415   2.705  15.714 -0.2396 -0.2891  0.7683
 3716TIP3    H132563   2.507   2.693  15.687  0.4577 -0.4802  3.0318
 3716TIP3    H232564   2.396   2.796  15.693  0.0540 -0.5421 -0.7768
 3717TIP3   OH232565   2.013   0.557  12.671 -0.0600 -0.0773 -0.1122
 3717TIP3    H132566   1.972   0.531  12.754 -0.6724  0.6277 -0.1810
 3717TIP3    H232567   2.028   0.651  12.681  0.0883 -0.0361 -0.7119
 3718TIP3   OH232568   3.452   0.747   0.048  0.7252  0.0987  0.0524
 3718TIP3    H132569   3.370   0.788   0.078  0.5777 -0.9756  1.2154
 3718TIP3    H232570   3.514   0.819   0.040 -0.1641  0.8482 -0.2389
 3719TIP3   OH232571   6.451   1.985   5.625 -0.2703 -0.2827 -0.1716
 3719TIP3    H132572   6.360   1.969   5.598 -0.7362  2.1865 -0.2927
 3719TIP3    H232573   6.453   2.078   5.648  2.2025 -0.3282  0.0187
 3720TIP3   OH232574   0.786   1.963   3.012  0.4290 -0.1588 -0.0770
 3720TIP3    H132575   0.718   1.991   2.951  0.4965 -1.2983 -0.6877
 3720TIP3    H232576   0.773   2.019   3.089  0.0267  0.9498 -0.9210
 3721TIP3   OH232577   4.362   2.404  15.059 -0.7339  0.2853  0.2753
 3721TIP3    H132578   4.338   2.364  15.143 -2.6022  0.9676  0.1115
 3721TIP3    H232579   4.353   2.333  14.996  0.1304 -0.0863  0.5494
 3722TIP3   OH232580   1.767   6.115   2.643  0.1216  0.1383 -0.0341
 3722TIP3    H132581   1.812   6.038   2.607 -0.0932 -0.6233  1.2530
 3722TIP3    H232582   1.677   6.085   2.656 -0.5077  1.2919 -1.5155
 3723TIP3   OH232583   0.467   4.508  12.793  0.9246  0.3008 -0.2450
 3723TIP3    H132584   0.397   4.471  12.846  3.1563 -0.6967  2.2674
 3723TIP3    H232585   0.467   4.601  12.815 -0.8714  0.7670 -1.9353
 3724TIP3   OH232586   2.609   0.764   3.181 -0.0607 -0.1278  0.0546
 3724TIP3    H132587   2.529   0.786   3.227 -0.5012 -2.1809  0.3816
 3724TIP3    H232588   2.680   0.791   3.240 -0.5299  0.5567  0.3091
 3725TIP3   OH232589   0.002   2.359  11.184  0.6995  0.3839  0.5558
 3725TIP3    H132590  -0.058   2.425  11.218 -1.3888 -1.9477  1.7033
 3725TIP3    H232591   0.073   2.409  11.144 -0.3282  3.2790  2.0978
 3726TIP3   OH232592   6.071   2.340   3.302  0.3573  0.2613 -0.8032
 3726TIP3    H132593   6.065   2.334   3.207 -2.1107  1.1406 -0.7660
 3726TIP3    H232594   6.151   2.390   3.317  0.3354  0.8697 -2.4666
 3727TIP3   OH232595   5.356   1.845  13.944 -0.1356  0.5992 -0.5446
 3727TIP3    H132596   5.308   1.914  13.990  3.0230  0.6476  3.0829
 3727TIP3    H232597   5.423   1.892  13.894  2.0981  0.3584  2.0264
 3728TIP3   OH232598   2.360   4.893   0.908  0.0770 -0.0305  0.5685
 3728TIP3    H132599   2.345   4.968   0.850 -0.3455  0.4933  1.3341
 3728TIP3    H232600   2.389   4.933   0.991  1.6201 -0.8024  0.4425
 3729TIP3   OH232601   1.136   1.572  16.045 -0.3056 -0.7744 -0.2411
 3729TIP3    H132602   1.056   1.570  15.991  0.6366 -0.9692 -1.7079
 3729TIP3    H232603   1.199   1.618  15.990  0.4885 -0.2933  1.0582
 3730TIP3   OH232604   3.978   5.821  16.882 -0.4569  0.2366 -0.1006
 3730TIP3    H132605   3.928   5.815  16.800  0.4297  0.2619 -0.6648
 3730TIP3    H232606   4.021   5.907  16.877 -0.9609  0.5413  0.7300
 3731TIP3   OH232607   6.794   3.368  14.423 -0.1979  0.0558  0.2226
 3731TIP3    H132608   6.716   3.406  14.383 -1.4038 -0.8704  1.5659
 3731TIP3    H232609   6.781   3.382  14.517  0.3471 -1.7144  0.5993
 3732TIP3   OH232610   4.516   6.604   3.073  0.1726  0.4524 -0.3040
 3732TIP3    H132611   4.515   6.539   3.002  1.1648  0.4383 -0.3092
 3732TIP3    H232612   4.424   6.632   3.080  0.2485  1.4305 -2.4957
 3733TIP3   OH232613   4.213   5.626   0.356 -0.5821  0.0466 -0.4817
 3733TIP3    H132614   4.263   5.686   0.412  0.8879 -2.9299  1.7394
 3733TIP3    H232615   4.153   5.582   0.416 -0.0163 -2.2350 -1.4708
 3734TIP3   OH232616   3.203   1.374  14.554  0.3323 -0.1349 -0.1685
 3734TIP3    H132617   3.149   1.376  14.633  1.2863 -0.5392  0.5144
 3734TIP3    H232618   3.202   1.283  14.526 -2.7993  0.5091 -2.6619
 3735TIP3   OH232619   1.523   1.324   5.256  0.9119  0.0618 -0.9302
 3735TIP3    H132620   1.518   1.255   5.322 -0.6205  0.3861 -0.6667
 3735TIP3    H232621   1.519   1.405   5.306 -1.1923  0.3226 -1.4022
 3736TIP3   OH232622   5.431   2.001   1.578 -0.0990 -0.4571 -0.3837
 3736TIP3    H132623   5.474   2.038   1.501 -1.8323 -0.8245 -1.5785
 3736TIP3    H232624   5.466   1.912   1.584  1.6338  0.2343  0.5774
 3737TIP3   OH232625   2.989   1.800  13.770  0.0136  0.0662  0.0759
 3737TIP3    H132626   2.968   1.709  13.751  0.6629 -0.5465  2.0447
 3737TIP3    H232627   3.043   1.829  13.697  4.2802 -2.8025  1.7142
 3738TIP3   OH232628   5.449   1.419   5.426  0.2306 -0.4348  0.3443
 3738TIP3    H132629   5.543   1.428   5.408 -0.0537  1.5024 -0.5088
 3738TIP3    H232630   5.444   1.364   5.504  1.8689 -3.7452 -1.7133
 3739TIP3   OH232631   2.102   5.393   0.565 -0.0602  0.6272 -0.1706
 3739TIP3    H132632   2.077   5.482   0.589  0.7002  0.4614  1.3942
 3739TIP3    H232633   2.194   5.400   0.540  0.2456  0.1758  0.7697
 3740TIP3   OH232634   5.531   3.471  11.316 -0.2721  0.3963  0.1346
 3740TIP3    H132635   5.522   3.401  11.381  0.5992 -0.6593 -0.8270
 3740TIP3    H232636   5.474   3.444  11.244 -2.3035  2.2444  0.9626
 3741TIP3   OH232637   5.017   0.967  11.084  0.5649 -0.0221  0.8608
 3741TIP3    H132638   5.071   0.949  11.161 -0.4357 -0.2360  1.5261
 3741TIP3    H232639   4.929   0.981  11.118  0.4268  1.6714 -0.0791
 3742TIP3   OH232640   0.008   3.073  14.657 -0.1286 -0.1768  0.2620
 3742TIP3    H132641  -0.078   3.044  14.687 -0.8656 -0.3396 -1.7924
 3742TIP3    H232642   0.011   3.166  14.677 -0.8599 -0.1329  0.1975
 3743TIP3   OH232643   2.278   4.699  13.463  0.0571  0.5469 -0.3573
 3743TIP3    H132644   2.216   4.741  13.523  0.4229 -1.6196  1.7015
 3743TIP3    H232645   2.223   4.652  13.401 -0.3972  0.1011  0.3574
 3744TIP3   OH232646   4.232   2.252  14.220  0.4982 -0.0522 -0.2563
 3744TIP3    H132647   4.236   2.185  14.288  0.4999 -0.2729 -0.4701
 3744TIP3    H232648   4.139   2.265  14.205  0.4975 -0.0025 -0.2110
 3745TIP3   OH232649   5.846   0.536  17.164 -1.0067 -0.2724  0.3760
 3745TIP3    H132650   5.868   0.612  17.217  0.8398 -0.7725  0.3767
 3745TIP3    H232651   5.856   0.461  17.223  0.0846 -0.7456 -0.3743
 3746TIP3   OH232652   3.392   0.390  16.946  0.7227  0.7278  0.8269
 3746TIP3    H132653   3.407   0.307  16.991 -1.1612 -1.5164 -2.2813
 3746TIP3    H232654   3.321   0.371  16.884  1.4125  4.2020 -1.2903
 3747TIP3   OH232655   1.461   0.441   6.206 -0.1403 -0.2678  0.2646
 3747TIP3    H132656   1.374   0.453   6.244 -0.3256 -2.3418  0.6127
 3747TIP3    H232657   1.455   0.359   6.158  0.9818  0.7160 -1.7088
 3748TIP3   OH232658   2.018   5.662  13.825  0.6280  0.2565  0.1669
 3748TIP3    H132659   1.948   5.606  13.792 -1.8763  2.4272  1.3977
 3748TIP3    H232660   2.097   5.632  13.779 -1.1272 -2.0946 -1.5600
 3749TIP3   OH232661   4.870   2.726  11.182 -0.4710 -0.1396 -0.1619
 3749TIP3    H132662   4.868   2.821  11.183  1.3241 -0.0106 -1.9877
 3749TIP3    H232663   4.834   2.702  11.097  0.2752 -0.9996 -0.2584
 3750TIP3   OH232664   2.676   5.089  11.131 -0.1812  0.3498 -0.0712
 3750TIP3    H132665   2.726   5.078  11.050 -1.3182  0.6128 -0.8314
 3750TIP3    H232666   2.596   5.038  11.116  0.6867 -1.8087  1.9168
 3751TIP3   OH232667   4.688   5.665  15.145 -0.1702  0.1658  0.1792
 3751TIP3    H132668   4.691   5.570  15.156  0.8775  0.1568 -0.0508
 3751TIP3    H232669   4.625   5.695  15.211  0.1789 -0.6007  0.8868
 3752TIP3   OH232670   1.452   4.495   0.484 -0.6799 -0.4553 -0.2787
 3752TIP3    H132671   1.374   4.484   0.430 -0.3166  0.2339 -0.9676
 3752TIP3    H232672   1.488   4.580   0.457 -0.2712 -0.2766  0.7716
 3753TIP3   OH232673   3.423   1.841  12.539  0.6952 -0.1168 -0.1171
 3753TIP3    H132674   3.506   1.887  12.527 -0.0972  0.9199 -2.0376
 3753TIP3    H232675   3.431   1.763  12.484  1.2975 -1.3706  1.6490
 3754TIP3   OH232676   6.624   2.669   4.496 -0.2571  0.0929 -0.4296
 3754TIP3    H132677   6.710   2.647   4.461  0.1035 -0.3145  0.6459
 3754TIP3    H232678   6.628   2.641   4.588 -1.3265  0.6340 -0.1991
 3755TIP3   OH232679   4.825   0.684   4.444  0.4692  0.0916  0.0208
 3755TIP3    H132680   4.741   0.720   4.415  0.1532  0.6256  1.4961
 3755TIP3    H232681   4.889   0.719   4.382 -0.2256  0.8354 -0.2878
 3756TIP3   OH232682   5.929   0.038   5.952  0.0039  0.1443 -0.3831
 3756TIP3    H132683   5.941  -0.034   6.014  0.4295 -2.4905 -3.2531
 3756TIP3    H232684   6.015   0.080   5.947 -0.0236  0.3479  0.7276
 3757TIP3   OH232685   0.230   0.006   1.250  0.3974 -0.3446 -0.3605
 3757TIP3    H132686   0.205  -0.065   1.308  0.9525 -0.3080 -0.0669
 3757TIP3    H232687   0.148   0.037   1.212 -0.0819  0.2835  1.1535
 3758TIP3   OH232688   0.429   2.883   4.013  0.3766 -0.2301  0.1790
 3758TIP3    H132689   0.450   2.790   4.010 -0.5748 -0.4491 -0.2237
 3758TIP3    H232690   0.445   2.915   3.924  1.4161  0.1735  0.4944
 3759TIP3   OH232691   2.169   3.157   4.667 -0.2084 -0.1036 -0.7102
 3759TIP3    H132692   2.116   3.158   4.587 -0.0669 -0.2148 -0.8051
 3759TIP3    H232693   2.188   3.065   4.683  0.6372 -0.0115 -1.1267
 3760TIP3   OH232694   0.197   1.104   3.144 -0.1284 -0.2357 -0.1744
 3760TIP3    H132695   0.272   1.046   3.156  0.9579  1.3031  0.7928
 3760TIP3    H232696   0.120   1.047   3.155  0.8718 -1.2062  2.3926
 3761TIP3   OH232697   4.348   1.599  13.786 -0.0800  0.3466  0.6428
 3761TIP3    H132698   4.266   1.589  13.834 -0.3515  1.5227  0.4657
 3761TIP3    H232699   4.327   1.567  13.698  0.3826 -1.6879  1.2300
 3762TIP3   OH232700   5.486   4.691   0.370 -1.0259 -0.9003 -0.6124
 3762TIP3    H132701   5.457   4.709   0.280 -0.4228 -2.2927 -1.1173
 3762TIP3    H232702   5.537   4.768   0.394 -1.4074 -0.3922 -1.3643
 3763TIP3   OH232703   3.853   0.129   5.258 -0.1610 -0.0517 -0.0421
 3763TIP3    H132704   3.900   0.160   5.335 -1.3742  2.9080 -0.3569
 3763TIP3    H232705   3.764   0.114   5.288 -0.3132 -0.2547 -0.5743
 3764TIP3   OH232706   1.880   1.320  13.512  0.3116  0.3756  0.0072
 3764TIP3    H132707   1.900   1.399  13.460 -0.1902 -0.3422 -1.3330
 3764TIP3    H232708   1.905   1.343  13.601 -0.1430  2.1833 -0.2859
 3765TIP3   OH232709   4.661   1.244  15.820 -0.0356 -0.2060  0.3444
 3765TIP3    H132710   4.638   1.253  15.912  1.4845 -0.8615  0.8043
 3765TIP3    H232711   4.756   1.254  15.817  0.0834 -1.4260 -0.9879
 3766TIP3   OH232712   5.907   5.584  17.144  0.4211  0.1468  0.4963
 3766TIP3    H132713   5.849   5.508  17.157 -0.2392  0.8636  1.8724
 3766TIP3    H232714   5.850   5.651  17.107  1.1883 -0.2401 -1.5235
 3767TIP3   OH232715   1.691   4.457  15.364  0.4324  0.2526  0.0948
 3767TIP3    H132716   1.682   4.522  15.294 -0.1839  0.7742  0.6395
 3767TIP3    H232717   1.756   4.495  15.423  1.4978 -0.5181 -0.5322
 3768TIP3   OH232718   1.362   3.457   2.273  0.9448  0.1472  0.0546
 3768TIP3    H132719   1.275   3.478   2.307 -0.2076 -3.9069  0.1502
 3768TIP3    H232720   1.404   3.407   2.342  2.3091 -0.1637 -0.9543
 3769TIP3   OH232721   6.755   0.453  16.626 -0.4464  0.2722  0.0505
 3769TIP3    H132722   6.841   0.425  16.595 -1.1434 -1.0027 -0.8309
 3769TIP3    H232723   6.741   0.401  16.706  0.5231  2.1413  1.5152
 3770TIP3   OH232724   5.258   3.329   2.537  0.1746 -0.3684 -0.0983
 3770TIP3    H132725   5.307   3.387   2.595 -0.6198 -0.1997  0.4279
 3770TIP3    H232726   5.222   3.386   2.470 -0.0131 -0.3576  0.0103
 3771TIP3   OH232727   3.149   4.416   1.664  0.2447 -0.1336  0.3923
 3771TIP3    H132728   3.144   4.343   1.603 -3.4480 -0.3353  0.6889
 3771TIP3    H232729   3.162   4.376   1.750 -0.5324 -0.3752  0.4046
 3772TIP3   OH232730   1.124   1.568  10.631  0.5359 -1.1197 -0.1428
 3772TIP3    H132731   1.062   1.512  10.679 -0.8511 -0.5417 -1.2182
 3772TIP3    H232732   1.183   1.506  10.589  0.4581 -1.6998  0.5711
 3773TIP3   OH232733   2.825   5.999   4.363  0.2557 -0.0025 -0.1389
 3773TIP3    H132734   2.841   5.943   4.287  0.6184  1.0935 -0.8963
 3773TIP3    H232735   2.732   5.985   4.384 -0.0351  0.1905 -1.2311
 3774TIP3   OH232736   0.583   5.178  12.213 -0.1047  0.2410  0.1179
 3774TIP3    H132737   0.611   5.169  12.122 -0.3366  0.2747  0.0418
 3774TIP3    H232738   0.489   5.159  12.211 -0.0289 -0.1966  0.4187
 3775TIP3   OH232739   6.186   5.385   3.962 -0.1354  0.0568  0.5155
 3775TIP3    H132740   6.094   5.397   3.985 -0.5207 -0.9060 -0.4335
 3775TIP3    H232741   6.234   5.432   4.030 -1.3142  0.2821  1.2244
 3776TIP3   OH232742   4.895   4.884  14.399  0.3798 -0.6085 -0.5421
 3776TIP3    H132743   4.913   4.792  14.415 -1.5526 -1.0435 -0.6396
 3776TIP3    H232744   4.934   4.930  14.473 -3.0826 -2.0212  2.4324
 3777TIP3   OH232745   1.705   6.329  13.844 -0.4079 -0.1388 -0.1906
 3777TIP3    H132746   1.644   6.387  13.889 -0.0907 -0.4075  0.5985
 3777TIP3    H232747   1.790   6.346  13.885 -0.4089 -1.5677  0.4710
 3778TIP3   OH232748   2.059   0.939   3.248 -0.0457 -0.2984 -0.0272
 3778TIP3    H132749   2.108   0.874   3.299  2.4964  1.7159  0.2870
 3778TIP3    H232750   2.046   1.012   3.308 -1.6511  0.0741 -0.7730
 3779TIP3   OH232751   4.854   6.071  10.387 -0.0339  0.4345 -0.0502
 3779TIP3    H132752   4.806   6.043  10.465  0.0505  0.1470 -0.1025
 3779TIP3    H232753   4.857   6.167  10.395 -0.7559  0.4671 -0.1332
 3780TIP3   OH232754   1.617   2.536   5.431  0.0942  0.1344  0.0909
 3780TIP3    H132755   1.657   2.611   5.386  1.1510 -0.0949  0.6240
 3780TIP3    H232756   1.624   2.557   5.524 -0.8327 -0.0267  0.2087
 3781TIP3   OH232757   4.077   1.093   5.482  0.3572  0.1881  0.1569
 3781TIP3    H132758   4.094   1.099   5.576  2.1465  0.2096 -0.1324
 3781TIP3    H232759   4.136   1.023   5.452 -1.1177 -0.6964 -0.7543
 3782TIP3   OH232760   5.522   4.483  16.483 -0.1423  0.2678 -0.2960
 3782TIP3    H132761   5.498   4.448  16.569 -0.6883 -1.3804 -1.0643
 3782TIP3    H232762   5.474   4.566  16.476 -0.2779  0.2970  0.8842
 3783TIP3   OH232763   2.845   6.635   3.413 -0.0585 -0.0610 -0.1213
 3783TIP3    H132764   2.764   6.596   3.380 -0.1588 -0.7952  0.9548
 3783TIP3    H232765   2.855   6.716   3.363 -0.7236 -0.6483 -1.2324
 3784TIP3   OH232766   4.653   4.454  14.273 -0.6797 -0.3016 -0.5112
 3784TIP3    H132767   4.670   4.428  14.363 -2.3698 -0.5746 -0.2396
 3784TIP3    H232768   4.724   4.516  14.252  0.0285 -0.6340  0.8013
 3785TIP3   OH232769   5.967   0.709  16.831 -0.6900  0.0156  0.0752
 3785TIP3    H132770   5.872   0.723  16.837 -0.6905  0.7622 -1.2998
 3785TIP3    H232771   6.005   0.796  16.830 -0.0153 -0.2696  0.1835
 3786TIP3   OH232772   2.411   0.684  11.522  0.0313 -0.0100  0.3365
 3786TIP3    H132773   2.347   0.646  11.582 -0.5366  0.1048 -0.1970
 3786TIP3    H232774   2.455   0.608  11.483  0.0440 -0.0924  0.5101
 3787TIP3   OH232775   3.563   5.115  16.953  0.8532 -0.5195 -0.2434
 3787TIP3    H132776   3.545   5.194  16.903 -1.6779 -2.3308 -2.4764
 3787TIP3    H232777   3.641   5.078  16.912  0.3099 -0.6602 -1.1671
 3788TIP3   OH232778   1.852   5.769  14.879  0.4176  0.3698  0.4257
 3788TIP3    H132779   1.880   5.687  14.839 -1.6019 -0.7892  1.2119
 3788TIP3    H232780   1.781   5.744  14.938 -1.2264  2.8329 -0.3342
 3789TIP3   OH232781   5.088   2.650   1.493 -0.2004  0.2545 -0.7709
 3789TIP3    H132782   5.176   2.629   1.526 -0.7979  1.0403  1.5225
 3789TIP3    H232783   5.096   2.740   1.460  0.2120 -0.2568 -2.1352
 3790TIP3   OH232784   5.130   3.476   1.925  1.2104 -0.5513 -0.0192
 3790TIP3    H132785   5.178   3.439   1.999 -0.6361 -1.5095  0.7872
 3790TIP3    H232786   5.140   3.412   1.855  2.4566  0.0646 -0.4307
 3791TIP3   OH232787   1.526   6.360   2.739  0.0858 -0.2156 -0.0108
 3791TIP3    H132788   1.449   6.363   2.795  1.2176  0.5850  1.5661
 3791TIP3    H232789   1.536   6.267   2.716 -0.5625 -0.5125  0.8667
 3792TIP3   OH232790   1.137   1.237  11.021  0.4248 -0.1958  0.2453
 3792TIP3    H132791   1.159   1.330  11.009  0.4824 -0.2298  0.0891
 3792TIP3    H232792   1.149   1.198  10.934 -4.4852  0.6316 -1.0936
 3793TIP3   OH232793   4.544   4.046   2.951 -0.5027 -0.0036 -0.0826
 3793TIP3    H132794   4.552   4.103   2.875  0.9453  1.6250  1.2157
 3793TIP3    H232795   4.626   3.997   2.954 -1.1594 -1.1596 -0.3811
 3794TIP3   OH232796   3.691   6.654  16.095  0.1719 -0.3132  0.2839
 3794TIP3    H132797   3.669   6.747  16.108 -0.7523 -0.5961  0.8395
 3794TIP3    H232798   3.787   6.652  16.094  0.2005  0.6638  0.1565
 3795TIP3   OH232799   1.283   5.889  16.377 -0.3898  0.1923  0.4758
 3795TIP3    H132800   1.252   5.878  16.467  0.5452 -1.7986  0.6271
 3795TIP3    H232801   1.366   5.935  16.385 -0.5539  0.4711  0.5804
 3796TIP3   OH232802   3.696   5.361   5.013 -0.0773 -0.3946 -0.3762
 3796TIP3    H132803   3.723   5.450   5.038 -1.2784 -0.2955  0.6784
 3796TIP3    H232804   3.729   5.305   5.083 -1.1086 -0.4900  0.0470
 3797TIP3   OH232805   3.104   4.389  11.422 -0.2425 -0.0284  0.0548
 3797TIP3    H132806   3.096   4.474  11.466 -2.0517 -0.0576 -0.1385
 3797TIP3    H232807   3.190   4.391  11.381 -0.0486  1.5114  0.4796
 3798TIP3   OH232808   3.530   6.264  13.285  0.1827  0.1641  0.4257
 3798TIP3    H132809   3.493   6.242  13.371 -1.6805 -0.6574 -0.5345
 3798TIP3    H232810   3.499   6.195  13.227  0.7798  1.1089 -1.0839
 3799TIP3   OH232811   0.213   2.790   2.711  0.5153 -0.0534 -0.4620
 3799TIP3    H132812   0.195   2.884   2.709  1.1489  0.0885  0.1106
 3799TIP3    H232813   0.296   2.781   2.665  0.5726 -0.2985 -0.3121
 3800TIP3   OH232814   1.107   6.020   3.506 -0.0388 -0.5905 -0.5603
 3800TIP3    H132815   1.118   6.036   3.412 -1.9310 -1.9435 -1.0609
 3800TIP3    H232816   1.143   5.933   3.520 -0.0812 -0.5337 -0.0922
 3801TIP3   OH232817   1.018   6.792   5.966 -0.2341 -0.1146  0.1579
 3801TIP3    H132818   1.059   6.841   5.894 -1.2386 -0.5162 -0.7165
 3801TIP3    H232819   1.057   6.829   6.045 -0.3641  1.5514 -0.5133
 3802TIP3   OH232820   2.852   0.206  14.650  0.1515 -0.1460 -0.5256
 3802TIP3    H132821   2.854   0.199  14.745  1.8556  1.3933 -0.3981
 3802TIP3    H232822   2.877   0.119  14.619  0.7017 -0.3562  0.4628
 3803TIP3   OH232823   3.895   3.649  11.260 -0.4282  0.1078 -0.5407
 3803TIP3    H132824   3.918   3.695  11.179 -1.2631 -0.6338 -1.2358
 3803TIP3    H232825   3.972   3.597  11.281  0.5552  1.8405  0.3031
 3804TIP3   OH232826   2.321   1.179   5.495 -0.0956 -0.4158 -0.1617
 3804TIP3    H132827   2.312   1.103   5.552  0.9829 -0.1936  0.3329
 3804TIP3    H232828   2.407   1.167   5.453  0.3787  0.8360  0.4061
 3805TIP3   OH232829   3.044   0.211   4.276 -0.0927  0.1673  0.2553
 3805TIP3    H132830   3.037   0.147   4.206  2.8994  2.1024 -2.0588
 3805TIP3    H232831   2.985   0.282   4.251  3.0126  2.1569 -2.0922
 3806TIP3   OH232832   2.766   0.584  15.274  0.3520 -0.0852  0.9949
 3806TIP3    H132833   2.697   0.634  15.231  1.5451  0.8606  0.1104
 3806TIP3    H232834   2.806   0.647  15.335 -0.4233 -1.0157  2.5168
 3807TIP3   OH232835   2.228   1.710   5.808 -0.5063 -0.0798  0.1251
 3807TIP3    H132836   2.314   1.752   5.807  0.1800 -1.4096  0.2947
 3807TIP3    H232837   2.204   1.702   5.716 -1.0130  1.3546  0.1110
 3808TIP3   OH232838   3.055   5.738   3.929 -0.2350 -0.2956 -0.5750
 3808TIP3    H132839   3.047   5.683   3.852 -0.5406 -1.3027  0.1452
 3808TIP3    H232840   3.099   5.683   3.994 -0.3756  0.3723  0.1123
 3809TIP3   OH232841   1.675   3.666   5.647  0.1616 -0.1667 -0.3640
 3809TIP3    H132842   1.755   3.697   5.690 -1.5507  0.8802  2.3076
 3809TIP3    H232843   1.624   3.745   5.630 -1.9597 -0.9691  1.6729
 3810TIP3   OH232844   2.768   6.695   4.179 -0.4934  0.4155 -0.1145
 3810TIP3    H132845   2.826   6.751   4.128 -0.5027  1.5643  1.0591
 3810TIP3    H232846   2.734   6.632   4.117  1.3842  0.2050 -1.0082
 3811TIP3   OH232847   3.743   3.940   4.513 -0.3655  0.4964 -0.0211
 3811TIP3    H132848   3.696   3.971   4.436  0.6515  0.8039 -0.5394
 3811TIP3    H232849   3.825   3.989   4.513  0.8501 -1.4227 -0.2836
 3812TIP3   OH232850   1.519   5.859   0.545 -0.1601  0.7861  0.5212
 3812TIP3    H132851   1.429   5.848   0.515  0.7525  0.2446 -2.3725
 3812TIP3    H232852   1.539   5.951   0.526  0.1695  0.6658  0.2701
 3813TIP3   OH232853   3.563   6.614   4.733  0.1027 -0.0634  0.5777
 3813TIP3    H132854   3.484   6.590   4.684  0.2134  1.1715 -0.2316
 3813TIP3    H232855   3.562   6.555   4.809 -1.3376 -0.3913  0.3373
 3814TIP3   OH232856   5.521   1.762   2.357  0.0777 -0.5578  0.4597
 3814TIP3    H132857   5.518   1.709   2.277  1.0004  0.6834 -0.4335
 3814TIP3    H232858   5.434   1.753   2.395 -0.8148 -0.1388 -1.3722
 3815TIP3   OH232859   1.892   4.593   5.358  0.3221  0.0582  0.3052
 3815TIP3    H132860   1.912   4.681   5.326 -1.7087  0.5198  0.1442
 3815TIP3    H232861   1.847   4.607   5.442 -0.8684 -0.7383 -0.1681
 3816TIP3   OH232862   6.329   4.217   2.058 -0.3048  0.5152 -0.1683
 3816TIP3    H132863   6.299   4.285   1.997 -1.4301 -0.2738 -0.5467
 3816TIP3    H232864   6.325   4.259   2.144 -0.1584  1.1816 -0.4765
 3817TIP3   OH232865   3.512   5.449   6.040 -0.3231  0.4241  0.4203
 3817TIP3    H132866   3.548   5.422   5.956 -0.3923  0.7677  0.2801
 3817TIP3    H232867   3.466   5.371   6.072 -0.7926  0.4733 -0.1262
 3818TIP3   OH232868   1.215   3.410   2.997  0.4988 -0.6282 -0.0786
 3818TIP3    H132869   1.181   3.496   3.022  4.2069  1.8413 -2.5821
 3818TIP3    H232870   1.277   3.387   3.066  0.3004 -0.7954  0.0464
 3819TIP3   OH232871   0.069   6.138   6.477 -0.0653  0.0259  0.2692
 3819TIP3    H132872   0.087   6.232   6.486  1.0051 -0.2425  1.2140
 3819TIP3    H232873   0.099   6.117   6.389 -3.5639  1.2076 -1.3934
 3820TIP3   OH232874   5.894   1.582  15.924 -0.3297  0.3129 -0.6415
 3820TIP3    H132875   5.888   1.643  15.850  0.1935 -1.0485 -1.8558
 3820TIP3    H232876   5.828   1.612  15.986 -1.1686  1.1727 -1.9157
 3821TIP3   OH232877   6.210   0.161  13.750 -0.3044 -0.3374 -0.5743
 3821TIP3    H132878   6.169   0.243  13.722  0.3353  0.4356  0.6672
 3821TIP3    H232879   6.242   0.121  13.670 -1.3953  0.1971 -1.2992
 3822TIP3   OH232880   1.851   4.155   1.591  0.2156 -0.2619  0.0787
 3822TIP3    H132881   1.775   4.107   1.624 -1.6534  3.1490  1.2718
 3822TIP3    H232882   1.924   4.124   1.644 -0.9513 -1.4201  1.0682
 3823TIP3   OH232883   4.773   5.824  12.331  0.4772  0.1254 -0.6429
 3823TIP3    H132884   4.715   5.837  12.407  2.6136  1.0606  0.9436
 3823TIP3    H232885   4.831   5.752  12.358 -0.3970 -1.3686 -2.5256
 3824TIP3   OH232886   3.135   3.577  12.651  0.4189 -0.2364 -0.0322
 3824TIP3    H132887   3.145   3.510  12.719 -0.3045 -0.6872 -0.3688
 3824TIP3    H232888   3.204   3.557  12.587  1.6167  0.6506  0.9138
 3825TIP3   OH232889   5.345   2.387   0.030 -0.3409 -0.3727 -0.3135
 3825TIP3    H132890   5.249   2.387   0.032 -0.3925  0.2572 -1.5531
 3825TIP3    H232891   5.367   2.348  -0.055  0.5094 -0.7245  0.0568
 3826TIP3   OH232892   1.576   3.272  14.058 -0.7138  0.4570  0.4592
 3826TIP3    H132893   1.530   3.307  13.982 -2.1182  1.0318  1.5386
 3826TIP3    H232894   1.642   3.339  14.078 -1.3698  1.0607  0.6679
 3827TIP3   OH232895   1.512   2.960  16.599  0.2864  0.3848  0.1074
 3827TIP3    H132896   1.520   3.056  16.599  0.1727  0.3940  0.3228
 3827TIP3    H232897   1.597   2.929  16.568 -0.1461  0.5977 -1.3608
 3828TIP3   OH232898   4.898   0.913  12.576 -0.3275 -0.3955  0.8182
 3828TIP3    H132899   4.907   1.006  12.554 -0.3288 -0.4600  0.5462
 3828TIP3    H232900   4.825   0.911  12.638 -0.2644 -0.2037  0.9009
 3829TIP3   OH232901   3.953   5.345  13.676 -0.2486  0.1011 -0.6572
 3829TIP3    H132902   3.925   5.367  13.765 -0.5060 -0.2858 -0.6424
 3829TIP3    H232903   3.902   5.268  13.653 -0.3803  0.3605 -1.2430
 3830TIP3   OH232904   0.342   4.591   4.150 -0.4876  0.3718  0.0813
 3830TIP3    H132905   0.344   4.495   4.152  0.1098  0.3850  1.0116
 3830TIP3    H232906   0.373   4.615   4.063  1.5152 -0.2581  0.5719
 3831TIP3   OH232907   0.418   0.288   5.598  0.0363 -0.0129 -0.4060
 3831TIP3    H132908   0.332   0.248   5.593 -0.3488  0.9124 -1.8157
 3831TIP3    H232909   0.479   0.218   5.574 -0.0920 -1.2085  2.4490
 3832TIP3   OH232910   6.752   1.329  11.645 -0.2344  0.7486 -0.6139
 3832TIP3    H132911   6.683   1.392  11.622 -0.6525 -0.0095 -1.4647
 3832TIP3    H232912   6.779   1.291  11.561 -0.0077 -0.2324 -0.1030
 3833TIP3   OH232913   6.611   4.185   4.165  0.3595  0.1692  0.3102
 3833TIP3    H132914   6.578   4.154   4.081  0.0300 -0.3273  0.6196
 3833TIP3    H232915   6.697   4.222   4.144 -0.3805  1.5009 -0.5101
 3834TIP3   OH232916   1.254   6.734  11.293 -0.6148  0.5204 -0.0541
 3834TIP3    H132917   1.160   6.749  11.288 -0.4893  1.5115  0.2262
 3834TIP3    H232918   1.277   6.691  11.211 -1.1054  1.5126 -0.7264
 3835TIP3   OH232919   4.129   1.920   2.606  0.2597 -0.0923 -0.1634
 3835TIP3    H132920   4.148   1.832   2.575  1.8617  0.4446 -0.8110
 3835TIP3    H232921   4.078   1.907   2.686 -2.6839 -1.5334 -2.0797
 3836TIP3   OH232922   2.616   3.436   2.959 -0.1297 -0.5881  0.0245
 3836TIP3    H132923   2.650   3.524   2.977  3.3097 -1.3469 -1.9313
 3836TIP3    H232924   2.617   3.392   3.044  0.8411  0.4276  0.5656
 3837TIP3   OH232925   5.006   2.994   1.197 -0.3704 -0.0668  0.3907
 3837TIP3    H132926   4.913   2.974   1.208 -0.6557  0.3441 -1.1236
 3837TIP3    H232927   5.012   3.089   1.208 -0.3011  0.0468 -0.5953
 3838TIP3   OH232928   1.659   2.320   6.184  0.2319 -0.7676  0.5473
 3838TIP3    H132929   1.674   2.401   6.233  0.0235 -0.5439  0.2412
 3838TIP3    H232930   1.737   2.310   6.130 -0.6475  0.3869 -1.0323
 3839TIP3   OH232931   0.295   3.399  13.528  0.1521  0.0532  0.4201
 3839TIP3    H132932   0.360   3.456  13.570  1.0210 -1.1633  0.7795
 3839TIP3    H232933   0.324   3.392  13.437 -0.3319  0.6966  0.2073
 3840TIP3   OH232934   5.047   5.162   5.008 -0.3306  0.2686  0.6399
 3840TIP3    H132935   5.031   5.083   4.956 -0.6171 -0.6814  2.1181
 3840TIP3    H232936   5.117   5.138   5.068  1.7699  2.1264 -0.8828
 3841TIP3   OH232937   5.490   5.216  12.213 -0.1458 -0.3721  0.1844
 3841TIP3    H132938   5.556   5.215  12.143 -1.2310 -1.1334 -0.8641
 3841TIP3    H232939   5.453   5.304  12.210 -1.5931 -0.9870 -1.6116
 3842TIP3   OH232940   0.429   1.313  13.666 -0.5561 -0.3308  0.2254
 3842TIP3    H132941   0.446   1.401  13.632 -0.0154 -0.6966 -0.5012
 3842TIP3    H232942   0.410   1.326  13.759  0.1345  0.4978  0.2675
 3843TIP3   OH232943   6.296   6.188  14.493 -0.6637  0.9335 -0.1425
 3843TIP3    H132944   6.367   6.195  14.429 -0.1516  1.0072  0.4265
 3843TIP3    H232945   6.302   6.268  14.545  1.5263 -0.8600  2.6244
 3844TIP3   OH232946   6.603   3.929  14.716  0.3614 -0.2372 -0.3142
 3844TIP3    H132947   6.693   3.939  14.749 -0.6586  0.8086  2.3538
 3844TIP3    H232948   6.564   3.862  14.772 -0.7765 -0.1222 -0.9473
 3845TIP3   OH232949   2.701   5.423  15.050  0.1825  0.0352 -0.1331
 3845TIP3    H132950   2.742   5.468  14.976  2.1297  3.7961  2.8723
 3845TIP3    H232951   2.614   5.461  15.057  0.4011  0.5000  0.1119
 3846TIP3   OH232952   6.507   6.754  11.072  0.1648  0.1520  0.1034
 3846TIP3    H132953   6.601   6.738  11.062 -0.3069 -1.6237 -2.5260
 3846TIP3    H232954   6.481   6.794  10.989 -1.3400  1.0968  0.9910
 3847TIP3   OH232955   6.540   0.823  11.442 -0.7432  0.8149  0.1355
 3847TIP3    H132956   6.611   0.879  11.411  0.5477 -0.2728  1.0212
 3847TIP3    H232957   6.581   0.738  11.458 -2.0079  0.4486  1.7041
 3848TIP3   OH232958   4.212   1.507   3.928 -0.5804  0.7162  0.0551
 3848TIP3    H132959   4.141   1.482   3.987 -2.0889  0.9933 -1.5729
 3848TIP3    H232960   4.188   1.595   3.897  0.6329  0.9415 -0.3046
 3849TIP3   OH232961   1.863   1.366   2.149 -0.0723  0.0529  0.6586
 3849TIP3    H132962   1.891   1.275   2.146 -0.2813 -0.0353  1.1917
 3849TIP3    H232963   1.935   1.412   2.193  0.6276  0.3902 -0.7826
 3850TIP3   OH232964   5.649   0.732   4.600 -0.1079  0.0801  0.1860
 3850TIP3    H132965   5.605   0.700   4.521  0.7020 -0.5427 -0.0265
 3850TIP3    H232966   5.629   0.825   4.602  1.1463  0.4407 -1.6315
 3851TIP3   OH232967   2.476   2.121   3.810  0.2767 -0.3160 -0.2135
 3851TIP3    H132968   2.452   2.029   3.822 -0.0337 -0.2142 -0.0432
 3851TIP3    H232969   2.572   2.121   3.807  0.2609 -0.8234 -1.6435
 3852TIP3   OH232970   6.215   3.484  10.727  0.0535 -0.4371 -0.2554
 3852TIP3    H132971   6.300   3.444  10.709  0.4968  1.3481 -2.5166
 3852TIP3    H232972   6.232   3.543  10.800  0.2296 -1.5857  0.6690
 3853TIP3   OH232973   1.479   4.464  12.005 -0.0595 -0.2335 -0.2021
 3853TIP3    H132974   1.463   4.493  12.095 -2.2564 -0.7089 -0.4042
 3853TIP3    H232975   1.518   4.377  12.015 -0.5671 -0.4110  0.2775
 3854TIP3   OH232976   3.618   5.850   2.303 -0.1290  0.2790  0.6458
 3854TIP3    H132977   3.671   5.789   2.355 -1.3606 -0.5691  0.9326
 3854TIP3    H232978   3.528   5.834   2.330 -0.6527  0.9650 -0.5940
 3855TIP3   OH232979   1.028   4.997   3.076  0.2206 -0.5861 -0.1382
 3855TIP3    H132980   0.988   5.012   2.991 -3.6534 -0.5995  1.4796
 3855TIP3    H232981   1.073   5.078   3.097  1.2488 -0.5973 -2.1343
 3856TIP3   OH232982   3.390   2.435   1.630 -0.3360  0.1910 -0.4391
 3856TIP3    H132983   3.433   2.364   1.679  0.3561  1.4235  0.8197
 3856TIP3    H232984   3.433   2.434   1.545 -1.2042 -1.6767 -0.9224
 3857TIP3   OH232985   6.057   1.177  14.979 -0.5958  0.6031  0.4966
 3857TIP3    H132986   6.002   1.098  14.980 -1.2810  1.0589  0.0185
 3857TIP3    H232987   6.129   1.156  15.038 -0.3076 -0.6995 -0.2582
 3858TIP3   OH232988   5.434   0.967   2.688 -0.5007 -0.4107  0.2426
 3858TIP3    H132989   5.526   0.993   2.686 -0.3605 -0.8252  0.9223
 3858TIP3    H232990   5.393   1.021   2.621  0.6724 -1.8846 -1.7765
 3859TIP3   OH232991   5.370   6.597  13.641 -0.3389 -0.7912 -0.0747
 3859TIP3    H132992   5.316   6.667  13.679  0.7556 -0.4938  0.9941
 3859TIP3    H232993   5.340   6.590  13.550 -0.0921  1.5067 -0.3949
 3860TIP3   OH232994   6.358   5.910   3.285 -1.0527  0.1560  0.0980
 3860TIP3    H132995   6.304   5.958   3.349 -1.9203 -0.8070  0.1133
 3860TIP3    H232996   6.389   5.833   3.333  0.1436  0.5501  0.0046
 3861TIP3   OH232997   2.661   0.351  15.804  0.1036  0.6527 -0.0183
 3861TIP3    H132998   2.707   0.303  15.873 -1.5971 -0.2336  0.5487
 3861TIP3    H232999   2.701   0.320  15.722  1.9286  1.4878  0.5006
 3862TIP3   OH233000   4.488   5.900  13.509 -0.3084  0.3142  0.2662
 3862TIP3    H133001   4.546   5.859  13.445  1.3519  2.0779  0.5621
 3862TIP3    H233002   4.482   5.836  13.580  2.9411  0.7901  1.1241
 3863TIP3   OH233003   5.672   4.700  11.437 -0.6090 -0.0125  0.2543
 3863TIP3    H133004   5.748   4.736  11.390 -0.7756  0.9938  0.7278
 3863TIP3    H233005   5.608   4.771  11.435 -0.7012 -0.0152  1.8110
 3864TIP3   OH233006   5.914   0.577  14.925 -0.6877  0.8001 -0.8740
 3864TIP3    H133007   5.888   0.607  15.012  0.0169  0.0167 -0.3760
 3864TIP3    H233008   5.973   0.645  14.892 -0.4854  0.8162 -0.4830
 3865TIP3   OH233009   6.731   0.671   1.533 -0.2686  0.3671 -0.0604
 3865TIP3    H133010   6.689   0.757   1.537 -0.1694  0.3659  1.7687
 3865TIP3    H233011   6.819   0.685   1.567 -0.0991 -0.3745 -0.1686
 3866TIP3   OH233012   5.897   6.257   2.849 -0.1758  0.3682 -0.0910
 3866TIP3    H133013   5.893   6.174   2.802 -1.0063 -0.1531  0.8667
 3866TIP3    H233014   5.926   6.321   2.784  0.3737 -0.6507 -0.8647
 3867TIP3   OH233015   5.434   1.123  16.665 -0.3511 -0.2793  0.9042
 3867TIP3    H133016   5.464   1.033  16.652  0.9079  0.2115  0.1898
 3867TIP3    H233017   5.470   1.148  16.750  0.0475 -0.1770  0.7090
 3868TIP3   OH233018   3.387   0.419  10.763  0.7256  0.2912  0.7448
 3868TIP3    H133019   3.307   0.471  10.770  0.4758 -0.1490  1.2546
 3868TIP3    H233020   3.356   0.331  10.742  1.1840  0.4700 -0.7282
 3869TIP3   OH233021   6.578   1.087  14.882 -0.3453 -0.4092  0.2450
 3869TIP3    H133022   6.542   1.176  14.876  0.6077 -0.0365 -0.1633
 3869TIP3    H233023   6.625   1.086  14.966 -0.2006 -0.4707  0.1626
 3870TIP3   OH233024   5.252   4.295  14.126 -0.0337  0.0494  0.2295
 3870TIP3    H133025   5.296   4.222  14.084  0.0514  1.5994 -2.6064
 3870TIP3    H233026   5.159   4.280  14.110 -0.0004  0.6626 -0.5619
 3871TIP3   OH233027   2.297   1.047   5.986 -0.5319 -0.5236 -0.0236
 3871TIP3    H133028   2.349   0.968   5.976  1.2601  0.7196 -1.2667
 3871TIP3    H233029   2.289   1.060   6.080  1.1437 -0.9514  0.1971
 3872TIP3   OH233030   3.975   2.134   2.009 -0.2114 -0.1488  0.1330
 3872TIP3    H133031   3.891   2.133   2.054 -0.6292  0.3951 -0.6188
 3872TIP3    H233032   3.956   2.100   1.922  0.4558 -0.5482  0.1332
 3873TIP3   OH233033   1.489   6.347  17.019  0.4136 -0.0392  0.0020
 3873TIP3    H133034   1.490   6.420  17.081  0.8461  3.0502 -3.2922
 3873TIP3    H233035   1.578   6.345  16.984 -0.0253 -1.0661 -1.1077
 3874TIP3   OH233036   3.619   5.040  12.012 -0.1178 -0.7910  0.0067
 3874TIP3    H133037   3.596   4.970  12.072 -2.8921  0.0824  0.1135
 3874TIP3    H233038   3.535   5.074  11.981  1.1464  1.3122 -1.4149
 3875TIP3   OH233039   0.150   3.182  13.983 -0.2372  0.5473  0.4098
 3875TIP3    H133040   0.148   3.266  14.027  0.8498  1.4069 -1.0815
 3875TIP3    H233041   0.211   3.194  13.910 -0.3356 -1.4191 -0.0689
 3876TIP3   OH233042   3.094   5.715   5.556  0.1187 -0.8086  0.6235
 3876TIP3    H133043   3.085   5.630   5.513 -1.7420 -0.4643  0.2478
 3876TIP3    H233044   3.052   5.777   5.497  0.7745  0.2709  1.2488
 3877TIP3   OH233045   0.723   1.802  11.024  0.3094  0.3317  0.4239
 3877TIP3    H133046   0.630   1.778  11.021  0.3711  0.1039  0.3152
 3877TIP3    H233047   0.757   1.777  10.939 -0.5617  4.7384 -1.5301
 3878TIP3   OH233048   6.330   5.315   2.072 -0.3443 -0.2193  0.3411
 3878TIP3    H133049   6.280   5.391   2.102 -1.6812 -0.8345 -0.2156
 3878TIP3    H233050   6.272   5.240   2.088  0.7178 -1.0573  0.3618
 3879TIP3   OH233051   1.155   2.226   5.940 -0.0382 -1.0142 -0.1023
 3879TIP3    H133052   1.157   2.148   5.884  0.7967 -0.3262 -1.0886
 3879TIP3    H233053   1.223   2.211   6.006 -0.1940 -1.3179 -0.0127
 3880TIP3   OH233054   2.120   5.483   0.214  0.3093 -0.8349 -0.0764
 3880TIP3    H133055   2.171   5.559   0.242 -2.1380  0.6128  0.8253
 3880TIP3    H233056   2.176   5.408   0.233  2.8600  0.6884 -1.0685
 3881TIP3   OH233057   3.332   6.335  16.054  0.2690 -0.4135 -0.2008
 3881TIP3    H133058   3.317   6.420  16.096  0.1280 -0.6259  0.1753
 3881TIP3    H233059   3.285   6.272  16.108  0.8786 -0.8207 -0.1420
 3882TIP3   OH233060   4.437   2.881   1.004  0.4775  0.0744  0.2211
 3882TIP3    H133061   4.529   2.861   0.982  0.3778 -0.6994  0.4697
 3882TIP3    H233062   4.411   2.946   0.939  1.0989  0.0436 -0.0731
 3883TIP3   OH233063   0.396   2.712   6.914  0.3967  0.2863 -0.0844
 3883TIP3    H133064   0.480   2.667   6.927 -0.1838 -1.2543 -1.3230
 3883TIP3    H233065   0.330   2.647   6.939 -0.4757  0.3175 -2.1464
 3884TIP3   OH233066   4.349   4.199   0.901 -0.1415 -0.1427 -0.4717
 3884TIP3    H133067   4.334   4.105   0.908  2.2814 -0.5116  1.1230
 3884TIP3    H233068   4.262   4.238   0.902 -1.1691 -2.3061  0.1808
 3885TIP3   OH233069   6.339   5.750   4.673  0.0994  0.1741  0.0531
 3885TIP3    H133070   6.354   5.801   4.753  0.7996 -0.0154  0.0440
 3885TIP3    H233071   6.245   5.732   4.674  0.1238  0.0510  0.9144
 3886TIP3   OH233072   0.808   5.749   0.994  0.5368  0.2304  0.1815
 3886TIP3    H133073   0.814   5.798   0.913  0.8339 -0.2657 -0.1044
 3886TIP3    H233074   0.863   5.797   1.056  0.6974  0.3462 -0.0499
 3887TIP3   OH233075   6.205   0.809  12.034 -0.1613 -0.1639 -0.3742
 3887TIP3    H133076   6.249   0.876  11.980 -1.5399 -0.0500 -1.4015
 3887TIP3    H233077   6.243   0.726  12.005  1.3963  0.0876  0.7508
 3888TIP3   OH233078   5.888   1.632  12.637 -0.1992  0.2851 -0.9587
 3888TIP3    H133079   5.891   1.597  12.726  0.4499  2.0232 -0.2564
 3888TIP3    H233080   5.978   1.627  12.605 -0.0046  1.7009 -0.6704
 3889TIP3   OH233081   0.911   2.173   6.577 -0.0531  0.2519 -0.0865
 3889TIP3    H133082   0.945   2.187   6.665 -0.1744  0.6391 -0.1006
 3889TIP3    H233083   0.988   2.180   6.520 -0.0695  0.5878 -0.0672
 3890TIP3   OH233084   1.681   4.736   3.722  0.2597 -0.8620 -0.8452
 3890TIP3    H133085   1.614   4.668   3.736 -1.1652  0.4884 -0.8872
 3890TIP3    H233086   1.697   4.734   3.627  0.8506 -1.6967 -0.7366
 3891TIP3   OH233087   1.908   2.506   0.641  0.0985  0.1931 -0.2048
 3891TIP3    H133088   1.942   2.418   0.626 -0.7462  0.0850 -1.7154
 3891TIP3    H233089   1.827   2.493   0.690  0.3590  0.1871  0.2256
 3892TIP3   OH233090   5.926   6.017  11.069 -0.0582  0.2556 -0.1121
 3892TIP3    H133091   5.910   6.103  11.030 -1.0141  0.0654 -0.1687
 3892TIP3    H233092   5.998   5.980  11.018  1.7570  1.8217  1.1903
 3893TIP3   OH233093   1.686   1.593  11.118 -0.5431  0.8371  0.2758
 3893TIP3    H133094   1.751   1.581  11.049 -1.9350 -0.6489 -0.8664
 3893TIP3    H233095   1.667   1.686  11.117 -0.0264  0.9532 -0.9053
 3894TIP3   OH233096   2.632   1.018   6.540 -0.0844 -0.1577  0.2746
 3894TIP3    H133097   2.598   1.067   6.615 -0.8255 -0.0438 -0.1170
 3894TIP3    H233098   2.574   1.044   6.467 -1.0101 -2.1917  0.2219
 3895TIP3   OH233099   0.799   1.418  13.356 -0.2928 -0.5290 -0.1306
 3895TIP3    H133100   0.815   1.404  13.263 -0.5397  0.3165 -0.3076
 3895TIP3    H233101   0.737   1.348  13.381  0.5160 -1.3450 -0.3656
 3896TIP3   OH233102   5.649   0.247  10.720  0.0119  0.1877 -0.3966
 3896TIP3    H133103   5.558   0.226  10.743 -0.6989  1.3904 -1.9829
 3896TIP3    H233104   5.642   0.316  10.655  2.1434  1.9460  1.1091
 3897TIP3   OH233105   1.351   2.257   1.815 -0.6110  0.2511  0.5316
 3897TIP3    H133106   1.277   2.216   1.770 -1.8647  1.2928  1.5449
 3897TIP3    H233107   1.397   2.305   1.747 -3.3932  3.1591  0.4622
 3898TIP3   OH233108   4.162   0.422   6.103 -0.0939 -0.0350 -0.2490
 3898TIP3    H133109   4.087   0.400   6.158  0.2955 -1.7763 -0.3688
 3898TIP3    H233110   4.235   0.428   6.164 -0.1781  0.9379 -0.2275
 3899TIP3   OH233111   5.676   6.352  13.484  0.0608 -0.2457  0.0275
 3899TIP3    H133112   5.748   6.363  13.421  0.3502  1.9750  0.6432
 3899TIP3    H233113   5.719   6.359  13.570 -0.7226 -0.0400  0.4090
 3900TIP3   OH233114   2.543   3.033  12.414 -0.2176  0.1179  0.3373
 3900TIP3    H133115   2.618   3.017  12.471  1.9010 -0.4912 -2.3885
 3900TIP3    H233116   2.573   3.099  12.352 -1.8537 -0.2742 -0.9570
 3901TIP3   OH233117   2.368   0.429  14.835 -0.6191 -0.5553 -0.9073
 3901TIP3    H133118   2.421   0.374  14.776  1.8964 -0.2155  0.8749
 3901TIP3    H233119   2.432   0.473  14.890 -2.7747 -1.7866  2.9511
 3902TIP3   OH233120   1.543   5.095   3.854  0.3326  0.1060  0.0889
 3902TIP3    H133121   1.453   5.079   3.885 -0.2957 -0.9291 -2.1182
 3902TIP3    H233122   1.590   5.121   3.933 -1.6566 -0.3376  1.5157
 3903TIP3   OH233123   5.210   1.307   5.307 -0.9980 -0.1566 -0.1445
 3903TIP3    H133124   5.142   1.362   5.346 -1.3165  0.0611 -0.9713
 3903TIP3    H233125   5.292   1.344   5.339 -1.1989  0.9079 -0.7983
 3904TIP3   OH233126   2.249   2.667   3.817  0.5406  0.2858 -0.1283
 3904TIP3    H133127   2.292   2.611   3.752  2.2886 -0.2425  1.4032
 3904TIP3    H233128   2.298   2.749   3.813  0.4528  0.3603  0.2918
 3905TIP3   OH233129   5.207   6.134  15.235 -0.6454 -0.6463 -0.0333
 3905TIP3    H133130   5.154   6.068  15.280 -0.8805 -1.1707 -1.0459
 3905TIP3    H233131   5.219   6.203  15.300 -1.7214 -0.9764  0.5465
 3906TIP3   OH233132   4.824   6.004  12.624  0.2747 -0.1473  0.7695
 3906TIP3    H133133   4.763   6.077  12.615 -0.7724 -1.1443 -0.6402
 3906TIP3    H233134   4.899   6.028  12.569  0.1417  0.0774  0.6889
 3907TIP3   OH233135   5.530   1.008   1.928  0.2595  0.2788  0.4694
 3907TIP3    H133136   5.491   1.059   2.000  0.1708  1.0176 -0.0901
 3907TIP3    H233137   5.464   1.010   1.859  0.7499  0.4180 -0.0020
 3908TIP3   OH233138   5.346   0.292   3.698  0.0931 -0.4985 -0.4392
 3908TIP3    H133139   5.322   0.345   3.622  0.2906 -1.9038 -1.5323
 3908TIP3    H233140   5.437   0.314   3.715  0.4004 -0.9926 -1.3597
 3909TIP3   OH233141   1.810   0.152  16.322  0.1583  0.8402 -0.3463
 3909TIP3    H133142   1.793   0.247  16.321  0.6171  0.9388  0.3506
 3909TIP3    H233143   1.793   0.126  16.412 -2.5983 -0.2677 -1.0882
 3910TIP3   OH233144   3.485   3.268   1.721  0.1774  0.1009 -0.2965
 3910TIP3    H133145   3.420   3.280   1.652  0.3046  1.7772 -0.1664
 3910TIP3    H233146   3.435   3.270   1.803  0.1527 -0.8290 -0.2761
 3911TIP3   OH233147   0.711   3.759   6.199 -0.1584  0.0567 -0.1535
 3911TIP3    H133148   0.760   3.805   6.131 -2.0389  0.7270 -1.1286
 3911TIP3    H233149   0.677   3.829   6.255 -0.4609 -0.3549  0.1829
 3912TIP3   OH233150   5.049   1.903  11.852 -0.1835  0.0309  0.2329
 3912TIP3    H133151   4.968   1.883  11.805 -0.5038 -0.4602  0.9675
 3912TIP3    H233152   5.085   1.980  11.808  0.0541 -0.9975 -1.4542
 3913TIP3   OH233153   1.796   1.893  16.093  0.4681  0.1305 -0.1504
 3913TIP3    H133154   1.731   1.858  16.154  0.7987  0.6306  0.4966
 3913TIP3    H233155   1.802   1.986  16.115  2.4798 -0.1691  0.8121
 3914TIP3   OH233156   1.126   1.055  11.227  0.1574  0.5562  0.2068
 3914TIP3    H133157   1.120   1.136  11.177  0.2755  1.4159  1.5389
 3914TIP3    H233158   1.187   1.001  11.177 -1.1484  0.6152 -1.5586
 3915TIP3   OH233159   4.793   1.334  11.978  0.3072 -0.0920 -0.5312
 3915TIP3    H133160   4.837   1.313  12.060 -0.0629 -0.8470 -0.5135
 3915TIP3    H233161   4.864   1.358  11.918  0.6717 -0.5167 -0.2790
 3916TIP3   OH233162   3.111   4.253   2.587  0.7818  0.6434 -0.2544
 3916TIP3    H133163   3.181   4.313   2.612  0.6526  1.0691 -0.8972
 3916TIP3    H233164   3.060   4.302   2.522  0.3320  0.0554 -0.3462
 3917TIP3   OH233165   6.686   2.904   5.515 -0.2017  0.2683  0.5600
 3917TIP3    H133166   6.773   2.917   5.553 -0.0264  0.2400  0.1761
 3917TIP3    H233167   6.627   2.904   5.590  0.0504  0.9660  0.7630
 3918TIP3   OH233168   5.302   4.908   1.823  0.3149 -0.4914 -0.0899
 3918TIP3    H133169   5.237   4.951   1.768 -0.4683 -1.4057  0.0936
 3918TIP3    H233170   5.253   4.839   1.868  1.2426 -0.6619  0.6776
 3919TIP3   OH233171   5.737   0.080  10.912 -0.4573 -0.7171  0.4673
 3919TIP3    H133172   5.740   0.136  10.834  0.4174 -0.1231  0.9053
 3919TIP3    H233173   5.657   0.029  10.902 -1.4878  0.8644  0.2061
 3920TIP3   OH233174   0.206   2.338  16.406 -0.0910  0.1180  0.1023
 3920TIP3    H133175   0.282   2.392  16.383 -0.9170  1.0489 -0.5252
 3920TIP3    H233176   0.181   2.296  16.324 -1.8314  1.8821 -0.3552
 3921TIP3   OH233177   0.307   3.218  13.768 -0.4367 -0.0871  0.1415
 3921TIP3    H133178   0.310   3.289  13.705  0.5095 -0.5335 -0.3383
 3921TIP3    H233179   0.398   3.204  13.793 -0.3548 -2.3093 -1.1453
 3922TIP3   OH233180   2.878   0.273  14.250 -0.3632 -0.2309 -0.3814
 3922TIP3    H133181   2.931   0.215  14.196 -1.2005 -1.1635 -0.2074
 3922TIP3    H233182   2.935   0.348  14.266  0.8649 -1.1420 -0.3325
 3923TIP3   OH233183   1.819   4.937   4.296  0.4538 -0.2122 -0.4042
 3923TIP3    H133184   1.866   5.015   4.325 -0.3420  0.5475 -1.1246
 3923TIP3    H233185   1.739   4.970   4.256 -1.2694 -1.5028  1.7462
 3924TIP3   OH233186   1.576   4.684   6.147 -0.1001 -0.1843 -0.5297
 3924TIP3    H133187   1.540   4.755   6.200  1.2997  1.0709 -1.1800
 3924TIP3    H233188   1.594   4.614   6.210 -1.1650  0.1603  0.1888
 3925TIP3   OH233189   2.980   0.493  11.669  0.0231 -0.4818  1.0524
 3925TIP3    H133190   3.049   0.547  11.633 -0.3107 -0.7103  0.0417
 3925TIP3    H233191   3.026   0.426  11.720  0.4870 -0.0137  1.2600
 3926TIP3   OH233192   2.676   4.069   5.861  0.1790  0.1487  0.6590
 3926TIP3    H133193   2.669   4.103   5.772  2.2035  0.8753  0.7263
 3926TIP3    H233194   2.648   3.978   5.854 -1.5050  0.6836 -0.3091
 3927TIP3   OH233195   6.069   5.892  16.917  0.0614  0.5716  0.1092
 3927TIP3    H133196   6.033   5.911  17.003 -1.9669  2.1898 -0.9999
 3927TIP3    H233197   6.116   5.972  16.893  1.0592 -0.0604 -0.1034
 3928TIP3   OH233198   5.232   6.264   4.724  0.4368  0.0741 -0.3237
 3928TIP3    H133199   5.161   6.312   4.767  1.5939  1.8231 -0.2470
 3928TIP3    H233200   5.253   6.192   4.784 -0.2747  0.4316  0.3690
 3929TIP3   OH233201   0.718   1.569  16.598  0.3215  0.3631 -0.2894
 3929TIP3    H133202   0.689   1.635  16.535 -0.9212  0.4442  0.3434
 3929TIP3    H233203   0.696   1.486  16.557  0.3374  0.3902 -0.3528
 3930TIP3   OH233204   5.900   5.290  14.515 -0.3639  0.3030  0.6477
 3930TIP3    H133205   5.830   5.295  14.580 -1.1821  1.0113 -0.2500
 3930TIP3    H233206   5.866   5.340  14.440  0.1832 -1.2132 -0.6594
 3931TIP3   OH233207   5.284   5.036  11.927 -0.0165 -0.0886  0.1065
 3931TIP3    H133208   5.199   5.004  11.897  0.4362  0.3120 -1.7206
 3931TIP3    H233209   5.348   4.985  11.877  0.7903  0.7579  0.2412
 3932TIP3   OH233210   2.212   4.665   0.898 -0.1886 -0.0942  0.6396
 3932TIP3    H133211   2.209   4.632   0.988  0.2809 -0.3984  0.5511
 3932TIP3    H233212   2.262   4.747   0.904 -1.2795  0.5722  0.8462
 3933TIP3   OH233213   3.902   5.933  14.379  0.4497 -0.1077  0.2957
 3933TIP3    H133214   3.934   5.864  14.321 -2.7109 -1.5746  0.1006
 3933TIP3    H233215   3.908   5.895  14.467  0.6522  0.2245  0.4305
 3934TIP3   OH233216   2.315   4.031   0.773 -0.2599  0.0350 -0.2049
 3934TIP3    H133217   2.224   4.057   0.788 -0.5403 -0.5181 -0.8908
 3934TIP3    H233218   2.325   3.949   0.822 -0.4538 -0.4714 -0.9983
 3935TIP3   OH233219   0.176   0.461   0.455  0.2183 -0.4707 -0.0853
 3935TIP3    H133220   0.234   0.534   0.477 -1.1210  0.3933  0.7283
 3935TIP3    H233221   0.117   0.497   0.389 -0.6387 -0.7236  0.5333
 3936TIP3   OH233222   4.727   5.286   3.473 -0.1909  0.2944  0.0257
 3936TIP3    H133223   4.685   5.354   3.525 -0.9662  0.7654 -1.1558
 3936TIP3    H233224   4.666   5.212   3.477 -0.7036  0.6418 -0.8981
 3937TIP3   OH233225   0.010   3.185   4.517 -0.4064 -0.2235 -1.0968
 3937TIP3    H133226   0.053   3.262   4.478  1.2703 -0.5215  0.0563
 3937TIP3    H233227  -0.058   3.222   4.573  0.3545  0.4582 -0.5897
 3938TIP3   OH233228   5.295   6.554   2.724  0.2390  0.2173  0.2403
 3938TIP3    H133229   5.363   6.519   2.781  1.3561  0.9039 -0.6464
 3938TIP3    H233230   5.331   6.635   2.689 -0.6369  0.1029 -1.0216
 3939TIP3   OH233231   6.110   1.343   3.048  0.0868 -0.1556  0.3159
 3939TIP3    H133232   6.096   1.400   2.972 -1.9545  1.2839  1.6854
 3939TIP3    H233233   6.047   1.272   3.037  1.3049 -1.1900 -0.3878
 3940TIP3   OH233234   3.351   4.381  14.762  0.3321 -0.1801  0.0152
 3940TIP3    H133235   3.329   4.298  14.719 -2.5489 -0.0634  1.0459
 3940TIP3    H233236   3.285   4.443  14.730  2.0192  1.6030 -0.2129
 3941TIP3   OH233237   1.547   5.369   0.812  0.2861 -0.1110 -0.3097
 3941TIP3    H133238   1.594   5.306   0.758 -1.3718 -0.2374 -1.7103
 3941TIP3    H233239   1.500   5.316   0.876 -0.3130 -0.2409 -0.8466
 3942TIP3   OH233240   1.843   3.111  16.929  0.1871  0.0602  0.5204
 3942TIP3    H133241   1.905   3.047  16.894  0.5922  1.0197 -0.5953
 3942TIP3    H233242   1.868   3.121  17.021  2.4025  1.1945 -0.1410
 3943TIP3   OH233243   0.052   1.127  12.272  0.2673  0.3998 -0.1274
 3943TIP3    H133244   0.029   1.172  12.354  0.3683 -1.7951  1.1989
 3943TIP3    H233245   0.093   1.045  12.301 -0.7966 -1.0100 -2.3780
 3944TIP3   OH233246   5.223   5.930   2.950 -0.4115 -0.1332  0.1079
 3944TIP3    H133247   5.248   5.855   2.896  0.8523  0.6297 -0.4192
 3944TIP3    H233248   5.239   5.902   3.040  1.9850  0.1401 -0.1738
 3945TIP3   OH233249   0.408   3.678  16.914  0.3179 -0.3570  0.1663
 3945TIP3    H133250   0.416   3.753  16.973  4.3464 -0.2535 -0.2085
 3945TIP3    H233251   0.405   3.717  16.826  3.3081 -0.4249 -0.0943
 3946TIP3   OH233252   4.954   6.625  12.835  0.0046  0.2881 -0.3757
 3946TIP3    H133253   4.921   6.696  12.891  1.6302  0.1920  0.7650
 3946TIP3    H233254   4.877   6.595  12.786 -1.3431  0.7898  1.3654
 3947TIP3   OH233255   2.893   3.830   4.688  0.5273  0.3122  0.3153
 3947TIP3    H133256   2.902   3.875   4.773 -2.5723  1.0545  0.3904
 3947TIP3    H233257   2.880   3.738   4.711 -0.8632  0.5853  0.7687
 3948TIP3   OH233258   4.676   1.466   2.594  0.1101  0.2441  0.0455
 3948TIP3    H133259   4.752   1.480   2.537  1.1254 -1.5794  0.8516
 3948TIP3    H233260   4.708   1.488   2.681 -0.4251 -0.0867  0.3275
 3949TIP3   OH233261   3.107   5.966   6.273 -0.2790  0.7136  0.5779
 3949TIP3    H133262   3.160   5.995   6.347 -0.3622 -0.0262  0.9348
 3949TIP3    H233263   3.020   5.999   6.291 -0.7010 -0.8973  1.6941
 3950TIP3   OH233264   2.909   3.574  16.442 -0.2604 -0.1047 -0.6653
 3950TIP3    H133265   2.817   3.575  16.468  0.1637  0.0164  0.9434
 3950TIP3    H233266   2.952   3.517  16.506  0.9643  0.7099 -0.7149
 3951TIP3   OH233267   4.298   3.389  15.450 -0.3730 -0.3304 -0.3355
 3951TIP3    H133268   4.325   3.398  15.359  1.0581  0.9857  0.1951
 3951TIP3    H233269   4.255   3.472  15.471  0.8225  0.0712  0.6513
 3952TIP3   OH233270   6.435   1.760  16.052  0.0385 -0.3244  0.0507
 3952TIP3    H133271   6.465   1.714  15.973  0.7185 -0.1236  0.1866
 3952TIP3    H233272   6.426   1.690  16.117 -1.0724 -0.5736 -0.3534
 3953TIP3   OH233273   4.134   2.350  12.704 -0.1612  0.2359  0.0709
 3953TIP3    H133274   4.085   2.360  12.786 -1.6553 -1.6275 -0.5211
 3953TIP3    H233275   4.224   2.334  12.732 -0.5358  0.1925  1.3224
 3954TIP3   OH233276   5.462   6.776   3.156 -0.2392  0.4203  0.0222
 3954TIP3    H133277   5.401   6.751   3.225  1.4723 -0.3830  1.3092
 3954TIP3    H233278   5.468   6.872   3.162 -1.0524  0.4648  0.1507
 3955TIP3   OH233279   2.930   3.011  14.402 -0.2271  0.0655  0.5603
 3955TIP3    H133280   2.933   2.948  14.330  4.4451 -0.3586  0.8379
 3955TIP3    H233281   2.963   3.092  14.364 -1.4194  0.9540  1.3703
 3956TIP3   OH233282   4.259   2.493  16.079  0.1918 -0.7223  0.1092
 3956TIP3    H133283   4.341   2.470  16.036  0.3820  1.3042 -0.7518
 3956TIP3    H233284   4.260   2.445  16.162  1.0541 -2.6749 -0.9786
 3957TIP3   OH233285   1.773   5.475  16.415 -0.2658  0.4856 -0.1059
 3957TIP3    H133286   1.789   5.523  16.333  0.7452  0.5377  0.1138
 3957TIP3    H233287   1.789   5.383  16.392  1.3667  0.6217  0.3303
 3958TIP3   OH233288   2.520   6.094  13.747 -0.5857 -0.1948 -0.8477
 3958TIP3    H133289   2.616   6.099  13.748 -0.6558  1.9047 -0.7461
 3958TIP3    H233290   2.501   6.016  13.695  1.1705 -0.9318 -0.4688
 3959TIP3   OH233291   3.529   6.264   3.243  0.3266 -0.0279  0.7082
 3959TIP3    H133292   3.484   6.221   3.316  1.3473 -0.2060  1.2556
 3959TIP3    H233293   3.550   6.194   3.182 -0.2256  0.0715  0.3984
 3960TIP3   OH233294   3.963   1.466  14.174 -0.0117  0.1147  0.0927
 3960TIP3    H133295   4.036   1.498  14.228 -0.4501 -0.5890  1.1287
 3960TIP3    H233296   3.886   1.510  14.211 -0.4213 -1.0012  0.5920
 3961TIP3   OH233297   1.041   1.839  16.049  0.0685  0.9735  0.0872
 3961TIP3    H133298   1.095   1.864  15.974  0.5839 -1.4289 -0.4411
 3961TIP3    H233299   0.961   1.890  16.040  1.0272  2.3800 -0.8124
 3962TIP3   OH233300   1.222   0.356   2.979 -0.4585 -0.2499  0.2160
 3962TIP3    H133301   1.232   0.447   3.009  0.5580  0.7751 -2.8947
 3962TIP3    H233302   1.312   0.325   2.967 -0.7811 -1.9335  1.7730
 3963TIP3   OH233303   1.219   6.613  15.938  0.2668  0.0569 -0.0067
 3963TIP3    H133304   1.210   6.649  15.850  0.5581  0.2720  0.0491
 3963TIP3    H233305   1.131   6.620  15.976  0.3704  0.9348  0.0866
 3964TIP3   OH233306   0.417   5.071   1.296  0.3196  0.1523 -0.0170
 3964TIP3    H133307   0.399   5.161   1.323  0.4384  0.3036 -0.4357
 3964TIP3    H233308   0.403   5.071   1.201  0.6329 -0.1918 -0.0664
 3965TIP3   OH233309   3.450   1.334   3.306 -0.1987  0.2245 -0.3177
 3965TIP3    H133310   3.545   1.342   3.311 -0.1836 -0.5298  1.2210
 3965TIP3    H233311   3.417   1.412   3.351 -0.3155  0.3456 -0.6077
 3966TIP3   OH233312   4.221   5.656   3.426 -0.0467 -0.6767  0.1507
 3966TIP3    H133313   4.270   5.739   3.431 -2.0138  0.8699 -2.6981
 3966TIP3    H233314   4.182   5.646   3.512  1.5524  0.4774  1.0724
 3967TIP3   OH233315   3.908   2.675   5.760 -0.9347  0.3621 -0.1086
 3967TIP3    H133316   3.901   2.697   5.853 -2.0423  0.9002 -0.3005
 3967TIP3    H233317   3.999   2.648   5.748 -0.7494  0.4112  1.1036
 3968TIP3   OH233318   5.468   2.661   0.038  0.2839 -0.1247 -0.1948
 3968TIP3    H133319   5.539   2.631  -0.020  0.3499  1.2690 -0.8866
 3968TIP3    H233320   5.412   2.585   0.048  1.3430 -0.9711 -0.4655
 3969TIP3   OH233321   5.819   4.720  14.454  0.1283 -0.1977  0.3427
 3969TIP3    H133322   5.818   4.744  14.362 -1.1165 -0.9267  0.1468
 3969TIP3    H233323   5.872   4.788  14.496  1.2498 -0.2167 -0.9890
 3970TIP3   OH233324   4.144   2.632   1.419 -0.2578  0.7248  0.0036
 3970TIP3    H133325   4.121   2.597   1.505  0.2598  2.1242  0.7503
 3970TIP3    H233326   4.240   2.631   1.418 -0.2488 -0.4069 -1.0730
 3971TIP3   OH233327   4.803   2.211  14.375  0.0661 -0.1533  0.2980
 3971TIP3    H133328   4.746   2.257  14.313  1.5931  1.0200 -0.2993
 3971TIP3    H233329   4.743   2.171  14.438 -1.4225  0.7417 -0.5066
 3972TIP3   OH233330   2.131   3.737  16.158 -0.4018  0.4376  0.1012
 3972TIP3    H133331   2.100   3.685  16.232  0.0250 -1.1594 -0.7923
 3972TIP3    H233332   2.085   3.701  16.082  1.8012 -0.4334 -0.9160
 3973TIP3   OH233333   0.946   2.526  14.479  0.2113  0.3239  0.2935
 3973TIP3    H133334   1.037   2.524  14.450  0.0766 -0.6979 -0.1132
 3973TIP3    H233335   0.912   2.608  14.446  0.6394  0.1245 -0.6625
 3974TIP3   OH233336   4.977   1.261   4.427 -0.3010  0.7022 -0.8404
 3974TIP3    H133337   4.902   1.242   4.483 -0.2499  2.0114 -0.2896
 3974TIP3    H233338   4.985   1.184   4.371 -0.2251 -0.7395  1.0645
 3975TIP3   OH233339   3.241   6.161   2.896 -0.4370 -0.1138 -0.0653
 3975TIP3    H133340   3.319   6.211   2.919  0.3473 -0.3246 -2.0585
 3975TIP3    H233341   3.176   6.227   2.872 -0.2554  0.0220 -0.1849
 3976TIP3   OH233342   2.773   1.812  15.689 -0.4805  0.4051 -0.2257
 3976TIP3    H133343   2.810   1.724  15.698 -1.1342  0.2895  2.2619
 3976TIP3    H233344   2.842   1.870  15.720 -0.5507  0.6353 -0.5029
 3977TIP3   OH233345   2.467   6.439   2.104 -0.7711 -0.5910 -0.0406
 3977TIP3    H133346   2.500   6.391   2.029 -1.0233 -0.7014 -0.0839
 3977TIP3    H233347   2.522   6.517   2.110  1.3548 -2.1020  1.5739
 3978TIP3   OH233348   6.286   2.687   0.693 -1.2235  0.5231 -0.4118
 3978TIP3    H133349   6.306   2.665   0.784  0.5163 -2.2321 -1.3301
 3978TIP3    H233350   6.346   2.759   0.672 -0.5619  0.1747  0.2134
 3979TIP3   OH233351   0.296   5.719   1.053  0.2332 -0.5412 -0.1523
 3979TIP3    H133352   0.267   5.720   1.144  1.0903 -1.6457  0.1622
 3979TIP3    H233353   0.389   5.742   1.057 -0.3365  2.3404 -1.0782
 3980TIP3   OH233354   0.119   2.264   2.819  0.1737  0.1736 -0.0437
 3980TIP3    H133355   0.088   2.320   2.891 -1.5647  0.9964 -1.3479
 3980TIP3    H233356   0.208   2.294   2.801  0.2705  0.6243  1.0953
 3981TIP3   OH233357   0.680   4.948  15.597 -0.6545  0.5887  0.5056
 3981TIP3    H133358   0.770   4.951  15.565 -1.3155  0.2745 -1.5207
 3981TIP3    H233359   0.657   4.854  15.596 -1.1683  0.7079  0.4500
 3982TIP3   OH233360   6.697   5.989   2.331 -0.6460  0.0079 -0.3906
 3982TIP3    H133361   6.790   5.994   2.355 -0.7508  0.4911 -0.0765
 3982TIP3    H233362   6.651   5.993   2.415 -0.9279 -1.2080 -0.4694
 3983TIP3   OH233363   3.232   6.042   0.958  0.0777 -0.3073  0.2846
 3983TIP3    H133364   3.271   6.063   0.874  0.4719  0.3876  0.6352
 3983TIP3    H233365   3.201   6.125   0.992  0.2374 -0.5222  0.9807
 3984TIP3   OH233366   3.641   2.616  16.271 -0.4344  0.3795 -0.0359
 3984TIP3    H133367   3.554   2.652  16.253 -1.3027 -1.1929  0.7330
 3984TIP3    H233368   3.680   2.678  16.332 -1.2448  0.8589  0.0127
 3985TIP3   OH233369   3.216   6.635  16.932 -0.3418 -0.4604  0.6067
 3985TIP3    H133370   3.224   6.539  16.931  0.9509 -0.3734 -0.2559
 3985TIP3    H233371   3.270   6.662  17.007  1.3684 -0.3010 -0.6219
 3986TIP3   OH233372   3.782   4.868   2.291  0.3414  0.8152  0.1864
 3986TIP3    H133373   3.829   4.788   2.271 -1.4142 -0.2751  0.1773
 3986TIP3    H233374   3.849   4.936   2.295  2.0374 -0.8594  1.4830
 3987TIP3   OH233375   6.382   0.145   0.224  0.2704  0.1041 -0.0479
 3987TIP3    H133376   6.427   0.061   0.227  1.9988  0.9905  0.0591
 3987TIP3    H233377   6.443   0.204   0.180  0.0454  1.8352  1.7801
 3988TIP3   OH233378   5.311   5.256  13.378  0.0305 -0.4631 -0.2425
 3988TIP3    H133379   5.222   5.223  13.390  0.3348 -3.1584 -3.8440
 3988TIP3    H233380   5.365   5.199  13.432 -0.0330 -2.2874 -1.9990
 3989TIP3   OH233381   1.995   6.239  14.475  0.3963  0.0306  0.3520
 3989TIP3    H133382   1.934   6.251  14.402  1.6210 -1.8563 -1.0705
 3989TIP3    H233383   2.045   6.320  14.478  1.3001 -0.3726 -1.9154
 3990TIP3   OH233384   0.150   4.399   2.961 -0.1335  0.3522  0.1629
 3990TIP3    H133385   0.102   4.480   2.945  0.3894  0.3731 -1.5141
 3990TIP3    H233386   0.166   4.399   3.055 -0.9460  1.7300  0.3335
 3991TIP3   OH233387   3.886   6.027  12.572 -0.1667 -0.2369  0.1039
 3991TIP3    H133388   3.817   6.092  12.585  0.8237  1.3182 -1.7462
 3991TIP3    H233389   3.938   6.063  12.500  1.3504 -2.3682  0.0591
 3992TIP3   OH233390   0.337   4.890  11.545  0.0494 -0.2521 -0.4403
 3992TIP3    H133391   0.388   4.910  11.467  0.6180  1.3161  0.2707
 3992TIP3    H233392   0.402   4.882  11.615 -0.6026  1.4422  0.4193
 3993TIP3   OH233393   3.669   5.308  13.270 -0.1780 -0.2519 -0.1757
 3993TIP3    H133394   3.752   5.304  13.319 -0.0378 -0.9266 -0.4554
 3993TIP3    H233395   3.677   5.387  13.217 -0.4058  0.5914  1.0015
 3994TIP3   OH233396   6.751   5.434   1.088  0.2663  0.0838 -0.5124
 3994TIP3    H133397   6.773   5.521   1.119  1.0636  0.0736 -1.0146
 3994TIP3    H233398   6.795   5.375   1.150  1.7346  0.0630 -1.5252
 3995TIP3   OH233399   1.900   0.755   1.039 -0.2860  0.2142  0.3334
 3995TIP3    H133400   1.991   0.784   1.034 -0.0268 -0.7757 -1.3922
 3995TIP3    H233401   1.894   0.713   1.125  1.0140 -0.0912  0.3050
 3996TIP3   OH233402   2.807   1.368   4.518 -0.1116  0.3792  0.1088
 3996TIP3    H133403   2.725   1.343   4.560 -0.4421  1.7260  0.2982
 3996TIP3    H233404   2.859   1.408   4.588  0.5918 -0.1667 -0.0801
 3997TIP3   OH233405   6.085   6.432   1.499  0.1761 -0.1210 -0.0793
 3997TIP3    H133406   6.037   6.393   1.572 -1.5051 -2.1272 -2.1099
 3997TIP3    H233407   6.173   6.395   1.505  0.3621  0.4771  1.3949
 3998TIP3   OH233408   2.119   2.101   1.522  0.0128  0.6839 -0.3617
 3998TIP3    H133409   2.186   2.099   1.590  1.3235 -0.5098 -1.6052
 3998TIP3    H233410   2.132   2.186   1.479 -0.0402  0.9430  0.1259
 3999TIP3   OH233411   3.154   2.719  16.755 -0.4804  0.1960  0.0834
 3999TIP3    H133412   3.226   2.697  16.814 -0.2345  0.0887 -0.2522
 3999TIP3    H233413   3.119   2.802  16.789  0.7074  0.9811 -0.5711
 4000TIP3   OH233414   6.625   5.396   2.560  0.1846  0.0079 -0.2977
 4000TIP3    H133415   6.599   5.461   2.626 -0.0702  0.2635 -0.6449
 4000TIP3    H233416   6.544   5.376   2.514 -0.0790 -1.7886  0.8580
 4001TIP3   OH233417   3.694   5.732   5.896 -0.1410 -0.1692 -0.3752
 4001TIP3    H133418   3.717   5.639   5.892 -0.4679 -0.2484 -0.4885
 4001TIP3    H233419   3.635   5.738   5.971 -2.0081 -0.4890 -1.7395
 4002TIP3   OH233420   1.933   3.194   2.790  0.3503 -0.1563 -0.8456
 4002TIP3    H133421   1.881   3.114   2.776  1.3368 -0.7926 -0.9226
 4002TIP3    H233422   2.024   3.166   2.781  0.8129  0.5750  1.1318
 4003TIP3   OH233423   0.752   4.883   6.068 -0.5699  0.0540  0.8030
 4003TIP3    H133424   0.835   4.914   6.105 -0.0838 -0.1871 -0.0434
 4003TIP3    H233425   0.714   4.828   6.137 -0.0306  0.1710  1.2025
 4004TIP3   OH233426   6.309   5.726   4.174 -0.0856  0.0186  0.4011
 4004TIP3    H133427   6.346   5.743   4.261 -0.3183 -0.8947  0.6884
 4004TIP3    H233428   6.337   5.637   4.153  0.6061  0.5001 -0.8016
 4005TIP3   OH233429   2.115   3.208  12.273  0.4995 -0.0430 -0.1624
 4005TIP3    H133430   2.191   3.261  12.298  1.6958 -0.3252 -2.8873
 4005TIP3    H233431   2.089   3.242  12.187 -2.4664 -0.0230  0.6292
 4006TIP3   OH233432   1.896   0.606  15.321  0.5994  0.5885  0.3810
 4006TIP3    H133433   1.988   0.616  15.295 -0.1658  2.8976 -1.7768
 4006TIP3    H233434   1.856   0.559  15.248  0.4383 -2.9538  2.4860
 4007TIP3   OH233435   1.022   2.440   6.034  0.3956 -0.4267 -0.2139
 4007TIP3    H133436   1.017   2.510   5.970  0.7856 -0.1344  0.0698
 4007TIP3    H233437   1.072   2.371   5.990  1.2921  0.0555  0.0158
 4008TIP3   OH233438   4.502   1.116   1.996  0.0730 -0.1936  0.3639
 4008TIP3    H133439   4.489   1.062   2.074  0.5237  1.3386  1.5340
 4008TIP3    H233440   4.476   1.204   2.023  2.3452  0.8150 -0.4975
 4009TIP3   OH233441   0.827   0.604   4.029 -0.5503  0.3307 -0.1025
 4009TIP3    H133442   0.842   0.688   3.986 -1.0902  0.1590 -0.6511
 4009TIP3    H233443   0.834   0.623   4.122  0.8516  0.6719 -0.2485
 4010TIP3   OH233444   5.309   2.464  12.311  0.0268  0.0634 -0.2706
 4010TIP3    H133445   5.345   2.399  12.251  0.0955  1.9437 -2.3988
 4010TIP3    H233446   5.382   2.488  12.368 -0.1301 -2.0006  0.8937
 4011TIP3   OH233447   6.797   2.038  14.185 -0.2291  0.0439  0.0536
 4011TIP3    H133448   6.759   1.959  14.147  0.7144 -0.5959  0.4035
 4011TIP3    H233449   6.780   2.030  14.279 -1.9200  1.2698 -0.1048
 4012TIP3   OH233450   0.158   0.498  11.277  0.2193  0.5545 -0.2598
 4012TIP3    H133451   0.193   0.581  11.308 -0.7569  0.9161 -0.0740
 4012TIP3    H233452   0.217   0.471  11.207 -0.9410  2.7855 -2.2206
 4013TIP3   OH233453   6.386   0.104   3.115 -0.0340  0.2016  0.1606
 4013TIP3    H133454   6.435   0.088   3.034  1.2976  1.3266  0.6970
 4013TIP3    H233455   6.447   0.078   3.184 -0.7934  0.1713  0.8275
 4014TIP3   OH233456   6.514   3.728   0.592  0.1188 -0.0919 -0.3467
 4014TIP3    H133457   6.509   3.650   0.647 -4.3862  0.8956  1.0687
 4014TIP3    H233458   6.562   3.792   0.646  1.0648 -0.9011 -0.2004
 4015TIP3   OH233459   4.022   0.490  16.713  0.0650 -0.4626  0.8841
 4015TIP3    H133460   4.070   0.553  16.767 -1.7364  0.7013  1.2358
 4015TIP3    H233461   4.033   0.522  16.623  1.8773 -1.5821  0.6681
 4016TIP3   OH233462   2.101   3.983   4.652  0.2074 -0.3090 -0.0263
 4016TIP3    H133463   2.143   4.018   4.731 -0.6372  1.0460 -0.1249
 4016TIP3    H233464   2.021   3.941   4.685  1.5285 -2.8168  0.1564
 4017TIP3   OH233465   6.621   2.005  16.036 -0.3605 -0.5685  0.3375
 4017TIP3    H133466   6.553   1.956  15.988 -0.2266 -0.4564  0.0313
 4017TIP3    H233467   6.624   1.963  16.122 -1.3193 -0.1140  0.6014
 4018TIP3   OH233468   1.577   5.258   3.176  0.0443 -0.7473  0.2009
 4018TIP3    H133469   1.570   5.236   3.083  1.8580  0.0698 -0.1578
 4018TIP3    H233470   1.535   5.343   3.184 -0.3523 -0.9378  0.2043
 4019TIP3   OH233471   1.212   0.225  11.954  0.8559  0.7708  0.1491
 4019TIP3    H133472   1.126   0.264  11.968  1.0059  0.7229  1.3637
 4019TIP3    H233473   1.256   0.283  11.893 -0.4961  0.0865 -1.5577
 4020TIP3   OH233474   2.868   1.805   0.272  0.0620  0.5142 -0.3859
 4020TIP3    H133475   2.916   1.765   0.200  0.6005  1.9981 -0.8891
 4020TIP3    H233476   2.930   1.868   0.310 -0.5216  0.4085  0.7972
 4021TIP3   OH233477   3.573   1.211  12.784 -0.4753  0.1316 -0.2387
 4021TIP3    H133478   3.553   1.245  12.697 -0.1470 -1.6174 -1.0397
 4021TIP3    H233479   3.618   1.283  12.828 -0.2544  0.9118 -1.6659
 4022TIP3   OH233480   3.235   1.069  15.694  0.4707 -0.2864  0.0225
 4022TIP3    H133481   3.214   1.158  15.724  0.5452 -0.4656  0.6184
 4022TIP3    H233482   3.194   1.063  15.608 -3.5740 -1.1943  1.7480
 4023TIP3   OH233483   0.175   0.477   0.057  0.4233  0.0922 -0.8600
 4023TIP3    H133484   0.183   0.390   0.096 -2.4880 -1.1041 -2.5510
 4023TIP3    H233485   0.232   0.474  -0.020  1.0232  0.0272 -0.4208
 4024TIP3   OH233486   1.674   4.896  12.510 -0.2182  0.2011 -0.3701
 4024TIP3    H133487   1.747   4.837  12.527 -0.1415 -0.1324 -1.7119
 4024TIP3    H233488   1.705   4.953  12.440 -0.6128  1.2525  0.2998
 4025TIP3   OH233489   0.177   1.418  17.001  0.3320  0.0085  0.1159
 4025TIP3    H133490   0.097   1.374  16.971 -0.1627  1.6747 -1.1502
 4025TIP3    H233491   0.210   1.361  17.071 -1.5976 -1.0643  0.2388
 4026TIP3   OH233492   5.773   1.195  16.562  0.1224  0.3023  0.2949
 4026TIP3    H133493   5.705   1.140  16.523  0.6848  0.2946 -0.7067
 4026TIP3    H233494   5.735   1.283  16.562 -0.1356  0.1924  0.3475
 4027TIP3   OH233495   6.584   1.595   5.084  0.0937  0.7336  0.2418
 4027TIP3    H133496   6.672   1.630   5.079  0.4683 -0.3306 -1.4693
 4027TIP3    H233497   6.594   1.501   5.071 -1.3236  0.6678 -0.6697
 4028TIP3   OH233498   1.959   0.894  15.739 -0.1771  0.3370 -0.4083
 4028TIP3    H133499   1.906   0.866  15.814 -0.8950 -0.3006 -1.1390
 4028TIP3    H233500   1.935   0.834  15.669  1.8043 -0.2004 -0.6753
 4029TIP3   OH233501   6.466   2.316  11.457  0.4795  0.0420  0.0039
 4029TIP3    H133502   6.397   2.317  11.390  1.2279 -0.9651 -0.8149
 4029TIP3    H233503   6.437   2.250  11.520  0.8378 -0.6178 -0.5120
 4030TIP3   OH233504   1.640   2.178   0.634  0.1440  0.5283 -1.1180
 4030TIP3    H133505   1.562   2.194   0.581 -0.6942 -0.6014 -0.2630
 4030TIP3    H233506   1.642   2.083   0.646 -0.5048  0.8071  2.0074
 4031TIP3   OH233507   0.792   4.325  17.108 -0.2629 -0.1962 -0.4874
 4031TIP3    H133508   0.807   4.388  17.037  0.2019 -1.1209 -1.2322
 4031TIP3    H233509   0.718   4.362  17.157  1.1346  1.8665  0.2220
 4032TIP3   OH233510   0.440   6.143   1.195  0.0998 -0.4996 -0.0348
 4032TIP3    H133511   0.485   6.113   1.115 -0.6782 -1.3413 -0.1707
 4032TIP3    H233512   0.511   6.153   1.259  0.8954  1.2703 -1.1112
 4033TIP3   OH233513   2.830   2.349  15.734  0.1604 -0.6240  0.0395
 4033TIP3    H133514   2.813   2.258  15.710  2.0331 -0.6806 -1.3376
 4033TIP3    H233515   2.882   2.384  15.661  0.1834  1.3074  0.9073
 4034TIP3   OH233516   3.822   4.517   5.126  0.0299 -0.1976  0.0763
 4034TIP3    H133517   3.770   4.520   5.046 -1.0648 -0.7656  0.7322
 4034TIP3    H233518   3.758   4.495   5.195  0.8068  0.9216  1.2063
 4035TIP3   OH233519   2.670   1.797  16.731  0.3893 -0.0334  0.2233
 4035TIP3    H133520   2.584   1.787  16.689  1.0246 -0.2325 -1.0901
 4035TIP3    H233521   2.732   1.768  16.664  1.4656 -0.2452  1.2910
 4036TIP3   OH233522   4.717   5.192   1.088  0.3523  0.8432 -0.4365
 4036TIP3    H133523   4.744   5.150   1.169  0.1150  1.3517 -0.0884
 4036TIP3    H233524   4.782   5.261   1.075  0.1557  1.0208 -0.4652
 4037TIP3   OH233525   1.816   3.265   0.389 -0.1352 -0.1142 -0.0902
 4037TIP3    H133526   1.761   3.224   0.323  0.6122  0.4706 -1.1137
 4037TIP3    H233527   1.830   3.354   0.356  1.2738 -0.2030  0.2224
 4038TIP3   OH233528   0.077   4.762   3.944  0.1323  0.1156 -0.4812
 4038TIP3    H133529   0.131   4.695   3.904 -0.4201  0.7306 -2.4009
 4038TIP3    H233530  -0.011   4.747   3.908 -0.1818  1.3404 -0.2832
 4039TIP3   OH233531   3.429   4.829  11.870 -0.2138 -0.5570  0.4344
 4039TIP3    H133532   3.478   4.756  11.832  0.6573 -0.5278  1.4309
 4039TIP3    H233533   3.442   4.819  11.965 -1.5631 -0.1243  0.6875
 4040TIP3   OH233534   6.676   1.173   1.691 -0.5825  0.3189  0.5002
 4040TIP3    H133535   6.637   1.259   1.707  0.7294  1.2247 -0.9224
 4040TIP3    H233536   6.769   1.186   1.707 -0.4068 -0.9105  0.5301
 4041TIP3   OH233537   4.101   0.310   0.249  0.5096 -0.2506 -0.3848
 4041TIP3    H133538   4.037   0.277   0.185  0.1481 -2.5510  1.0367
 4041TIP3    H233539   4.170   0.244   0.249  0.6847 -0.0914  1.2755
 4042TIP3   OH233540   3.746   3.902   0.614 -0.1604  0.8335 -0.6763
 4042TIP3    H133541   3.769   3.831   0.553  4.3421 -0.7321  2.3170
 4042TIP3    H233542   3.666   3.872   0.656 -0.0468 -0.9939 -1.6359
 4043TIP3   OH233543   5.553   1.997   0.861 -0.3236  0.0563  0.4121
 4043TIP3    H133544   5.469   1.961   0.888  0.3561 -1.0453  1.1272
 4043TIP3    H233545   5.576   2.060   0.930 -0.3704  0.0608  0.4237
 4044TIP3   OH233546   1.619   3.430   0.225 -0.3939  0.4743  0.0823
 4044TIP3    H133547   1.625   3.345   0.181  0.5454  0.2883  0.5431
 4044TIP3    H233548   1.625   3.494   0.153  1.0882  0.1709 -0.1046
 4045TIP3   OH233549   2.551   2.676   3.473  0.6836 -0.1533 -0.0884
 4045TIP3    H133550   2.470   2.648   3.430  0.9658 -1.8302  0.4163
 4045TIP3    H233551   2.587   2.743   3.414 -0.4373 -0.2726 -0.9462
 4046TIP3   OH233552   2.727   5.992  11.382 -0.1659 -0.0223  0.0514
 4046TIP3    H133553   2.736   6.069  11.438  2.5218 -0.2499  0.0525
 4046TIP3    H233554   2.694   5.923  11.440 -1.6203  0.8115  0.2723
 4047TIP3   OH233555   1.874   2.464   3.655 -0.2702 -0.0019 -0.5890
 4047TIP3    H133556   1.927   2.520   3.598 -0.9951  0.2851 -0.9957
 4047TIP3    H233557   1.860   2.515   3.734 -1.1178  0.5068 -1.0466
 4048TIP3   OH233558   6.519   1.870   2.648 -0.2890  0.7304 -0.0685
 4048TIP3    H133559   6.531   1.896   2.557  0.0573 -1.0618 -0.5794
 4048TIP3    H233560   6.605   1.840   2.676 -0.6706  0.0730  0.4324
 4049TIP3   OH233561   2.789   0.289   5.144  0.1269  0.1222 -0.3857
 4049TIP3    H133562   2.852   0.217   5.149 -0.0448 -0.0242 -0.2924
 4049TIP3    H233563   2.843   0.368   5.146  0.3243 -0.0045 -0.6282
 4050TIP3   OH233564   1.889   4.824   2.032  0.0085  1.0069  0.1376
 4050TIP3    H133565   1.796   4.804   2.035  0.4637 -1.1661  1.8845
 4050TIP3    H233566   1.915   4.803   1.942 -0.6530 -1.3818  0.4279
 4051TIP3   OH233567   4.224   5.914   2.972  0.0501  0.0528 -0.0177
 4051TIP3    H133568   4.149   5.951   2.925  0.2121 -1.8261 -1.8761
 4051TIP3    H233569   4.300   5.959   2.936 -0.0020  0.5280  0.4390
 4052TIP3   OH233570   3.203   1.452  12.398 -0.2666 -0.0114  0.2590
 4052TIP3    H133571   3.245   1.382  12.349 -0.5727  0.8852 -1.3456
 4052TIP3    H233572   3.111   1.449  12.370  0.1701  2.5397 -1.7635
 4053TIP3   OH233573   0.977   3.202   1.147  0.1098 -0.2672  0.1949
 4053TIP3    H133574   1.004   3.293   1.156 -0.6382 -0.0895  0.6778
 4053TIP3    H233575   1.022   3.171   1.068 -0.5524  0.8567 -0.6518
 4054TIP3   OH233576   5.200   4.373  15.787 -0.0010 -0.7659 -0.7687
 4054TIP3    H133577   5.237   4.320  15.857 -0.3777 -0.7718 -0.5712
 4054TIP3    H233578   5.274   4.391  15.729  0.9869  1.6879  1.0924
 4055TIP3   OH233579   0.696   5.959  17.022 -0.0462  0.6511  0.9066
 4055TIP3    H133580   0.741   6.004  17.094  1.6737  0.2745  0.1173
 4055TIP3    H233581   0.710   5.866  17.040 -1.3682  0.4702  1.1405
 4056TIP3   OH233582   6.523   6.497  13.535 -0.1920  0.7740 -0.3047
 4056TIP3    H133583   6.484   6.432  13.593  0.3917 -0.3217 -1.0994
 4056TIP3    H233584   6.524   6.455  13.449  1.2834  1.3593 -0.6127
 4057TIP3   OH233585   5.588   2.776  15.410  0.2142 -0.3360  0.1438
 4057TIP3    H133586   5.503   2.733  15.399 -1.6611  3.1474 -0.1952
 4057TIP3    H233587   5.597   2.788  15.505 -0.3265  0.4138  0.1093
 4058TIP3   OH233588   1.011   0.760  14.298 -0.4869  0.2760 -0.4076
 4058TIP3    H133589   0.958   0.688  14.264 -0.1427 -0.6095  0.8580
 4058TIP3    H233590   1.037   0.732  14.386 -0.2682  1.9212  0.0884
 4059TIP3   OH233591   6.736   0.441   4.816  0.1280 -0.0249 -0.0692
 4059TIP3    H133592   6.819   0.456   4.771 -0.1733 -2.0516 -1.4385
 4059TIP3    H233593   6.676   0.504   4.775  0.7188  0.7541  0.2237
 4060TIP3   OH233594   6.538   1.088   4.109 -0.3003  0.3634 -0.2766
 4060TIP3    H133595   6.622   1.079   4.155 -0.0715 -1.2946 -0.9344
 4060TIP3    H233596   6.497   1.164   4.149  0.5511 -0.1129  1.6148
 4061TIP3   OH233597   0.269   6.539  11.304  0.3323  0.2200 -0.1464
 4061TIP3    H133598   0.245   6.620  11.260 -0.4655 -0.1454 -0.4063
 4061TIP3    H233599   0.341   6.564  11.362  0.7990  0.8885 -0.9871
 4062TIP3   OH233600   5.041   2.767  15.290 -0.5039  0.0004 -0.0432
 4062TIP3    H133601   4.951   2.741  15.311 -0.3500  0.4362  1.2377
 4062TIP3    H233602   5.039   2.862  15.289 -0.0668  0.0107 -0.0704
 4063TIP3   OH233603   3.560   6.478   2.776 -0.2265  0.8844  0.1919
 4063TIP3    H133604   3.586   6.570   2.779  1.7377  0.3773  3.1499
 4063TIP3    H233605   3.502   6.468   2.852 -2.9006  0.2050 -1.7730
 4064TIP3   OH233606   2.879   5.680   2.867 -0.7276  0.3212 -0.5241
 4064TIP3    H133607   2.800   5.705   2.914 -0.7810  0.3177 -0.6126
 4064TIP3    H233608   2.902   5.594   2.903 -0.0462  0.8837  0.4104
 4065TIP3   OH233609   3.857   4.155  15.205 -0.4382  0.1180 -0.0568
 4065TIP3    H133610   3.889   4.074  15.165  0.0431  1.2235 -2.0367
 4065TIP3    H233611   3.833   4.130  15.294  2.2380 -1.6407  0.2964
 4066TIP3   OH233612   2.395   3.525  14.040  0.5727  0.4901 -0.0504
 4066TIP3    H133613   2.362   3.441  14.008 -1.1137  1.7131 -1.7042
 4066TIP3    H233614   2.350   3.538  14.124  1.3633 -0.5234  0.5598
 4067TIP3   OH233615   5.483   5.961   3.882 -0.0879  0.1277  0.1773
 4067TIP3    H133616   5.570   5.993   3.906  0.1894 -0.6924  0.2872
 4067TIP3    H233617   5.475   5.877   3.926 -0.3656 -0.4849 -0.9998
 4068TIP3   OH233618   6.795   2.485  13.857 -0.1117  0.1032  0.1415
 4068TIP3    H133619   6.805   2.557  13.919  0.3904  0.2401 -0.0846
 4068TIP3    H233620   6.729   2.515  13.795  0.8162  0.7923 -0.5289
 4069TIP3   OH233621   5.888   6.192  11.466  0.1320 -0.8311 -0.3037
 4069TIP3    H133622   5.814   6.244  11.434  1.0055  0.6640  0.0481
 4069TIP3    H233623   5.962   6.221  11.414  0.8700 -0.8744  0.7011
 4070TIP3   OH233624   4.491   4.069  12.574 -0.1564 -0.0965 -0.0973
 4070TIP3    H133625   4.567   4.013  12.562  0.2162  0.2335  0.6285
 4070TIP3    H233626   4.455   4.043  12.659 -0.4221  0.2457 -0.1017
 4071TIP3   OH233627   4.671   2.912   4.728  0.5722  0.2977 -0.0618
 4071TIP3    H133628   4.641   2.940   4.815 -1.5695 -0.7748 -0.3834
 4071TIP3    H233629   4.645   2.820   4.722  2.8696 -0.3625 -0.9602
 4072TIP3   OH233630   1.339   0.362  15.703 -1.5546 -0.1733 -0.1976
 4072TIP3    H133631   1.331   0.409  15.786  0.1645 -0.9392  0.4670
 4072TIP3    H233632   1.269   0.297  15.705 -2.0588  0.3742  0.2504
 4073TIP3   OH233633   3.919   1.085   1.728  0.0764 -0.9577  0.2909
 4073TIP3    H133634   3.998   1.067   1.677 -1.6241  1.1194 -3.5018
 4073TIP3    H233635   3.851   1.031   1.687 -1.3847  0.7654  0.3441
 4074TIP3   OH233636   2.159   1.015  15.368 -0.2482 -0.4498  0.0856
 4074TIP3    H133637   2.065   1.017  15.388 -0.3309  0.4684 -0.3367
 4074TIP3    H233638   2.198   1.075  15.432  0.2746 -1.9978  1.2647
 4075TIP3   OH233639   2.111   0.709   6.871 -0.3767  0.6476 -0.1044
 4075TIP3    H133640   2.178   0.737   6.808 -0.5460 -2.1634 -1.7224
 4075TIP3    H233641   2.032   0.756   6.844 -0.2501  0.0945 -1.5385
 4076TIP3   OH233642   4.320   3.000  13.765 -0.2962 -0.2541 -0.3348
 4076TIP3    H133643   4.292   2.931  13.704 -1.6553  0.2330 -0.3057
 4076TIP3    H233644   4.251   3.003  13.831 -0.4600  1.3521 -0.5324
 4077TIP3   OH233645   2.750   4.654   6.090  0.3115 -0.4450  0.3971
 4077TIP3    H133646   2.825   4.599   6.113  1.2142  0.8026  0.5441
 4077TIP3    H233647   2.678   4.592   6.079  1.6496 -1.8558 -1.1146
 4078TIP3   OH233648   0.045   3.176   0.255 -0.1473  0.2388  0.5315
 4078TIP3    H133649   0.011   3.124   0.182  0.9065  1.1723 -0.6513
 4078TIP3    H233650   0.122   3.128   0.285  0.2373  0.5708  0.0952
 4079TIP3   OH233651   6.107   2.712   2.441 -0.0148 -0.1462  0.2007
 4079TIP3    H133652   6.175   2.771   2.475 -0.6967  0.3187  0.7779
 4079TIP3    H233653   6.154   2.656   2.379  1.3929 -1.3272  2.2026
 4080TIP3   OH233654   5.854   6.026   0.289 -0.2517 -0.9221  0.1795
 4080TIP3    H133655   5.790   6.000   0.355 -0.4763 -0.6269  0.0796
 4080TIP3    H233656   5.925   6.067   0.338 -0.1416 -1.2457  0.2903
 4081TIP3   OH233657   6.693   4.141  13.770  0.4374 -0.3378  0.0316
 4081TIP3    H133658   6.760   4.076  13.750 -0.0482 -0.5744 -0.8777
 4081TIP3    H233659   6.610   4.098  13.747 -0.1395 -0.4166  2.0361
 4082TIP3   OH233660   5.099   2.492   5.520  0.4638 -0.1607  0.6248
 4082TIP3    H133661   5.143   2.415   5.483  1.0070  0.6435 -0.4435
 4082TIP3    H233662   5.009   2.463   5.535  0.5954 -0.9357 -0.0151
 4083TIP3   OH233663   0.301   6.721   3.927 -0.7093 -0.1653  0.7193
 4083TIP3    H133664   0.248   6.752   3.854  0.1280  1.5155  0.7694
 4083TIP3    H233665   0.356   6.652   3.889 -0.4355  0.5447 -0.1912
 4084TIP3   OH233666   2.563   2.954   1.355 -0.0755  0.4438 -0.6162
 4084TIP3    H133667   2.628   2.946   1.285 -0.1769  1.0653 -0.7889
 4084TIP3    H233668   2.577   2.877   1.410 -0.0782 -0.1199 -1.3906
 4085TIP3   OH233669   0.447   0.715  13.650 -0.5243  1.0117  0.5025
 4085TIP3    H133670   0.366   0.707  13.600  0.8518 -3.1551 -1.5247
 4085TIP3    H233671   0.435   0.658  13.726  1.1204 -1.5555 -1.0218
 4086TIP3   OH233672   0.643   4.118   2.510 -0.6281 -0.0903 -0.3417
 4086TIP3    H133673   0.554   4.152   2.520 -0.7815 -0.6630  0.3299
 4086TIP3    H233674   0.684   4.135   2.595  0.1027  0.7190 -0.8454
 4087TIP3   OH233675   0.923   3.445  15.717 -0.1249  0.5401 -0.1327
 4087TIP3    H133676   0.874   3.508  15.769 -0.3686  1.2239 -1.1692
 4087TIP3    H233677   0.860   3.374  15.702  0.4866 -0.5453  1.9866
 4088TIP3   OH233678   0.609   6.668  15.015  1.0297 -0.5548  0.2484
 4088TIP3    H133679   0.575   6.608  14.949  1.6655 -1.5764  0.8373
 4088TIP3    H233680   0.533   6.688  15.070  0.7917 -0.7119 -0.0184
 4089TIP3   OH233681   2.060   0.111   0.684  0.0337  0.1299 -0.3832
 4089TIP3    H133682   1.986   0.154   0.726 -2.0296 -2.4714 -1.0472
 4089TIP3    H233683   2.039   0.113   0.590  1.2568  0.1460 -0.6679
 4090TIP3   OH233684   3.743   3.849  10.865 -0.4255  0.0362 -0.2417
 4090TIP3    H133685   3.680   3.796  10.816 -1.6174  0.3173  0.9358
 4090TIP3    H233686   3.801   3.885  10.798  0.2588 -2.4884 -1.0954
 4091TIP3   OH233687   0.812   4.468  13.958 -0.2905 -0.0855  0.2817
 4091TIP3    H133688   0.770   4.443  14.040 -2.6376  1.5730 -0.2854
 4091TIP3    H233689   0.905   4.477  13.980 -1.0006  1.6202  3.1596
 4092TIP3   OH233690   3.590   2.349  14.018 -0.1954  0.2429 -0.1681
 4092TIP3    H133691   3.637   2.330  13.936 -2.0497  2.4737 -1.8906
 4092TIP3    H233692   3.524   2.280  14.023 -0.8312  0.7391 -1.2522
 4093TIP3   OH233693   2.579   6.601   3.346 -0.7983 -0.0874 -0.1967
 4093TIP3    H133694   2.547   6.599   3.436 -0.7760  0.4614 -0.1707
 4093TIP3    H233695   2.535   6.677   3.307  0.2671  0.5282 -0.2355
 4094TIP3   OH233696   3.513   0.336  13.708 -0.5760  0.0426  0.2060
 4094TIP3    H133697   3.497   0.248  13.741 -1.6826 -0.0822 -0.6106
 4094TIP3    H233698   3.442   0.389  13.744 -1.6302 -0.0318 -1.6091
 4095TIP3   OH233699   5.116   1.593  16.933 -0.1362  0.1981 -0.2326
 4095TIP3    H133700   5.152   1.592  16.844  0.0970  1.5201 -0.1743
 4095TIP3    H233701   5.065   1.513  16.939  0.9363 -0.5910 -1.1043
 4096TIP3   OH233702   2.465   4.840  12.202  0.6265  0.4354 -0.2987
 4096TIP3    H133703   2.535   4.788  12.164  0.3198 -0.4656  0.3291
 4096TIP3    H233704   2.470   4.821  12.296 -1.3898 -0.8547 -0.3874
 4097TIP3   OH233705   1.748   2.733   2.785 -0.0308  0.7566 -0.4450
 4097TIP3    H133706   1.840   2.710   2.799  0.1250  1.6540  0.0861
 4097TIP3    H233707   1.702   2.693   2.859 -0.1734 -0.2352 -1.0506
 4098TIP3   OH233708   2.285   3.868  16.831  0.1972  0.4609  0.2491
 4098TIP3    H133709   2.233   3.898  16.757  1.7690  1.0928 -0.6675
 4098TIP3    H233710   2.245   3.908  16.908 -1.4460 -0.1851 -0.2331
 4099TIP3   OH233711   5.560   1.744   5.602  0.0930  0.1290 -0.0674
 4099TIP3    H133712   5.538   1.708   5.516 -1.0907 -0.7194  0.5465
 4099TIP3    H233713   5.488   1.715   5.659  0.5820  1.1025  1.0983
 4100TIP3   OH233714   1.053   2.733  12.570 -0.3749 -0.5946 -0.2332
 4100TIP3    H133715   1.097   2.718  12.654 -1.6237 -0.9599  0.3741
 4100TIP3    H233716   0.996   2.809  12.586  1.6156  1.3458 -1.6452
 4101TIP3   OH233717   1.638   3.620  14.323  0.7861 -0.2087  0.5541
 4101TIP3    H133718   1.681   3.572  14.253 -0.5853  0.3134 -0.6917
 4101TIP3    H233719   1.618   3.706  14.285 -1.1391 -0.3508  1.1203
 4102TIP3   OH233720   4.737   1.101  13.176 -0.2604  0.8201  0.2666
 4102TIP3    H133721   4.816   1.052  13.155 -0.1748  0.0597  2.1526
 4102TIP3    H233722   4.768   1.188  13.201 -0.0125  0.5257  0.9928
 4103TIP3   OH233723   2.788   6.528   4.757  0.0357 -0.4750  0.4935
 4103TIP3    H133724   2.742   6.579   4.690  1.7085 -0.1486 -0.4492
 4103TIP3    H233725   2.848   6.590   4.798 -0.2868 -0.9071  1.6644
 4104TIP3   OH233726   4.369   6.231   5.738  0.1966  0.1619  0.5154
 4104TIP3    H133727   4.324   6.235   5.654  0.9680  0.7937  0.1105
 4104TIP3    H233728   4.299   6.229   5.804 -0.4069  0.1767 -0.1191
 4105TIP3   OH233729   0.291   5.265  13.780  0.5375  0.3938  0.4881
 4105TIP3    H133730   0.327   5.312  13.705 -0.1917 -0.1530 -0.2286
 4105TIP3    H233731   0.196   5.270  13.768  0.4349 -0.5677  0.8347
 4106TIP3   OH233732   1.697   4.697  14.543 -0.0305 -0.1453  0.2731
 4106TIP3    H133733   1.625   4.742  14.500  0.7157  1.4557  0.6553
 4106TIP3    H233734   1.716   4.749  14.621  1.2960 -0.7477  0.3852
 4107TIP3   OH233735   3.890   3.972   2.205 -0.3145 -0.2897 -0.0698
 4107TIP3    H133736   3.897   3.982   2.110  1.1228 -0.6699 -0.0198
 4107TIP3    H233737   3.889   3.878   2.220 -3.0732 -0.3022  0.1690
 4108TIP3   OH233738   2.981   6.209   4.272  0.3185  0.2256  0.0724
 4108TIP3    H133739   2.955   6.280   4.330  0.8904 -0.7354  1.5769
 4108TIP3    H233740   2.935   6.132   4.307  0.1591 -0.2520 -1.1615
 4109TIP3   OH233741   2.398   5.577   2.836  0.8303  0.6078  0.1944
 4109TIP3    H133742   2.335   5.610   2.899  0.3272 -0.3597  0.2105
 4109TIP3    H233743   2.480   5.569   2.885  0.1457 -1.3340  1.0969
 4110TIP3   OH233744   3.092   2.802  15.810  0.5395  0.2627 -0.6547
 4110TIP3    H133745   3.108   2.852  15.890 -3.0781 -0.2833  0.6073
 4110TIP3    H233746   3.092   2.710  15.838  2.6322 -0.2365 -2.0562
 4111TIP3   OH233747   4.742   2.623   3.524 -0.1671 -0.2272 -0.0347
 4111TIP3    H133748   4.705   2.695   3.472  1.3615 -0.1049 -1.0161
 4111TIP3    H233749   4.837   2.637   3.521  0.1415 -2.0475  0.0957
 4112TIP3   OH233750   4.438   2.899  11.605 -0.5479  0.2427 -0.0743
 4112TIP3    H133751   4.422   2.983  11.561  0.9727  0.4603 -0.2879
 4112TIP3    H233752   4.372   2.895  11.674 -1.5725  0.9326 -0.9760
 4113TIP3   OH233753   0.780   2.504  15.784  0.0359 -0.0635  0.5925
 4113TIP3    H133754   0.867   2.533  15.809  0.2779 -0.6685  0.4552
 4113TIP3    H233755   0.726   2.583  15.792  0.1454 -0.1387  2.7524
 4114TIP3   OH233756   1.490   4.967  11.148  0.8651  0.1054  0.3346
 4114TIP3    H133757   1.544   4.935  11.075  0.8319  0.6574  0.0550
 4114TIP3    H233758   1.400   4.953  11.119  0.8044 -2.7107  1.6584
 4115TIP3   OH233759   2.918   0.550  10.603 -0.3355  0.4342 -0.1215
 4115TIP3    H133760   2.851   0.493  10.566 -0.3770 -0.3344  1.1017
 4115TIP3    H233761   2.871   0.608  10.663  0.0384  0.1078  0.4962
 4116TIP3   OH233762   0.373   5.789  15.027 -0.1390 -0.3768 -0.1302
 4116TIP3    H133763   0.402   5.713  15.078  0.0846  0.2369  0.6834
 4116TIP3    H233764   0.439   5.856  15.045  0.3841 -0.3794 -1.8779
 4117TIP3   OH233765   2.109   5.346   1.275  0.4614 -0.3909  0.7112
 4117TIP3    H133766   2.150   5.404   1.211 -0.0249 -1.2775 -0.4329
 4117TIP3    H233767   2.074   5.405   1.342 -0.4262  0.7050 -0.6476
 4118TIP3   OH233768   1.887   2.967  15.997 -0.0387 -0.1242 -0.0818
 4118TIP3    H133769   1.867   2.898  15.935  1.5000 -0.9470  0.3025
 4118TIP3    H233770   1.917   3.040  15.943 -1.5586  0.2423 -0.4790
 4119TIP3   OH233771   3.731   4.022  14.535  0.1814  0.1143 -0.0996
 4119TIP3    H133772   3.729   3.976  14.451 -0.3322 -0.9721  0.4752
 4119TIP3    H233773   3.643   4.060  14.543  0.3147  0.4426 -0.1617
 4120TIP3   OH233774   6.477   2.042  14.181  0.6366 -0.5215  0.4526
 4120TIP3    H133775   6.436   2.129  14.180 -0.8402 -1.1592  1.5734
 4120TIP3    H233776   6.442   2.001  14.260  0.7096 -2.4133 -0.4531
 4121TIP3   OH233777   0.419   2.902  14.709 -0.1148  0.5596  0.3074
 4121TIP3    H133778   0.470   2.954  14.648  1.0275 -0.8355  0.0367
 4121TIP3    H233779   0.410   2.959  14.786  1.1326  1.1481  0.0482
 4122TIP3   OH233780   2.422   4.504   4.731  0.1511  0.3944  0.2886
 4122TIP3    H133781   2.438   4.492   4.638 -0.1124  0.0794  0.2801
 4122TIP3    H233782   2.462   4.427   4.772 -2.5448 -1.2157  0.1358
 4123TIP3   OH233783   1.446   1.001   0.333 -0.3727  0.4548  0.2766
 4123TIP3    H133784   1.535   1.034   0.321 -0.2494  0.2062  0.4886
 4123TIP3    H233785   1.451   0.947   0.412 -0.5707 -0.0805 -0.0759
 4124TIP3   OH233786   0.890   5.822   2.393  0.0446 -0.3080  0.3930
 4124TIP3    H133787   0.842   5.897   2.427  2.0916  0.4853  1.7467
 4124TIP3    H233788   0.851   5.746   2.436 -1.8921 -0.0703 -0.8107
 4125TIP3   OH233789   0.183   1.821  15.904 -0.2858  0.3201 -0.0647
 4125TIP3    H133790   0.169   1.916  15.899 -0.8334  0.3274  1.3325
 4125TIP3    H233791   0.274   1.809  15.878  0.1584  1.3669  0.9501
 4126TIP3   OH233792   5.367   4.126  13.940  0.6295  0.0594 -0.2117
 4126TIP3    H133793   5.303   4.086  13.881  0.7509 -2.2956  1.1038
 4126TIP3    H233794   5.439   4.154  13.883 -0.3888  0.2914 -1.4225
 4127TIP3   OH233795   2.639   1.365   1.977  0.6459  0.8496  0.0580
 4127TIP3    H133796   2.563   1.385   1.922  1.3298  0.7794 -0.9412
 4127TIP3    H233797   2.684   1.295   1.930  1.1206  0.6306  0.8355
 4128TIP3   OH233798   4.017   2.143  10.982 -0.1047 -0.1321  0.5134
 4128TIP3    H133799   3.999   2.053  10.952 -1.0280 -0.5695  2.2232
 4128TIP3    H233800   4.112   2.151  10.977 -0.0721 -0.8956 -0.4810
 4129TIP3   OH233801   2.445   1.761   0.324 -0.3608 -0.2759  0.0032
 4129TIP3    H133802   2.499   1.837   0.302 -0.5747 -0.4388 -1.2018
 4129TIP3    H233803   2.403   1.783   0.406  0.2250  0.5587  0.0913
 4130TIP3   OH233804   0.088   3.966  13.677 -0.5157  0.2556  0.2468
 4130TIP3    H133805   0.073   3.875  13.649 -1.4398  0.2529  0.7194
 4130TIP3    H233806   0.156   3.959  13.744  0.2316  0.0472 -0.5034
 4131TIP3   OH233807   4.111   6.758  11.467 -1.0130 -0.3766  0.1546
 4131TIP3    H133808   4.137   6.835  11.417 -1.4215 -0.8834 -0.8696
 4131TIP3    H233809   4.187   6.700  11.463 -1.0477 -0.4202  0.1287
 4132TIP3   OH233810   3.129   3.151   3.635 -0.1073  0.1984  0.0165
 4132TIP3    H133811   3.124   3.215   3.563  0.6604  0.5636  0.2730
 4132TIP3    H233812   3.217   3.163   3.670  1.0746 -2.8288 -1.5982
 4133TIP3   OH233813   5.656   5.415   2.616 -0.2915 -0.4562  0.2135
 4133TIP3    H133814   5.592   5.439   2.549  0.2641  1.2046  0.2244
 4133TIP3    H233815   5.651   5.485   2.680  1.9952  0.1292 -0.1479
 4134TIP3   OH233816   2.698   3.524   1.952  0.3996  0.0200  0.0538
 4134TIP3    H133817   2.727   3.436   1.924  0.0403  0.6419 -2.5429
 4134TIP3    H233818   2.738   3.535   2.038  1.2484 -2.3162  0.0601
 4135TIP3   OH233819   5.102   6.429  12.581  0.3503  0.2949 -0.0376
 4135TIP3    H133820   5.040   6.484  12.533 -0.3566 -0.3629  0.0954
 4135TIP3    H233821   5.189   6.460  12.553 -0.0391  0.4546 -1.1262
 4136TIP3   OH233822   6.351   0.467   1.624  0.0931 -0.0319  0.2255
 4136TIP3    H133823   6.443   0.455   1.604 -0.0183 -0.5712  0.0302
 4136TIP3    H233824   6.341   0.436   1.714  0.0696 -0.1480  0.1836
 4137TIP3   OH233825   4.097   6.572   4.742  0.3441  0.0608  0.8231
 4137TIP3    H133826   4.094   6.516   4.820  3.1900 -0.6691  0.5183
 4137TIP3    H233827   4.007   6.570   4.708 -0.5522 -1.0959  3.0212
 4138TIP3   OH233828   2.180   3.285  12.775  0.5931 -0.1170 -0.1064
 4138TIP3    H133829   2.106   3.288  12.835 -0.1914 -0.3426 -1.0297
 4138TIP3    H233830   2.141   3.266  12.689  1.6530  0.4206 -0.7326
 4139TIP3   OH233831   6.708   3.842  12.821  0.6822 -0.6404 -0.0621
 4139TIP3    H133832   6.677   3.755  12.846 -1.1106  0.0016  0.1520
 4139TIP3    H233833   6.687   3.897  12.897  1.1837  0.1001 -0.4476
 4140TIP3   OH233834   5.024   4.370  15.556 -0.2049 -0.0180 -0.1679
 4140TIP3    H133835   5.090   4.393  15.491 -0.5937 -2.2216 -1.4337
 4140TIP3    H233836   5.075   4.355  15.637  0.5362  0.6817 -0.4915
 4141TIP3   OH233837   4.938   4.016   0.639 -0.1046  0.5758  0.2873
 4141TIP3    H133838   4.914   3.971   0.558  1.1737 -0.3317  0.3817
 4141TIP3    H233839   4.858   4.013   0.692  0.3207 -3.1765  0.9899
 4142TIP3   OH233840   6.537   0.270  15.717  0.2909  0.0055 -0.7604
 4142TIP3    H133841   6.446   0.299  15.713  0.4709  0.5527 -0.9303
 4142TIP3    H233842   6.589   0.350  15.707  0.8329  0.2029  2.5853
 4143TIP3   OH233843   3.213   1.617  10.989  0.3085  0.8156 -0.3368
 4143TIP3    H133844   3.235   1.537  10.942  1.1690  1.5510 -1.2315
 4143TIP3    H233845   3.173   1.674  10.923 -1.4841  0.6752  0.5725
 4144TIP3   OH233846   4.704   2.444   1.894 -0.3545 -0.1371 -0.0142
 4144TIP3    H133847   4.618   2.457   1.933  0.3795 -2.5106  2.6765
 4144TIP3    H233848   4.757   2.516   1.928 -0.7720  0.2520 -0.1695
 4145TIP3   OH233849   5.833   1.009   2.937 -0.3071 -0.2204  0.3351
 4145TIP3    H133850   5.771   1.077   2.961  1.5693  2.5414 -1.9209
 4145TIP3    H233851   5.790   0.959   2.868 -0.9696 -0.0810  0.6435
 4146TIP3   OH233852   0.437   6.561   4.681 -0.0431 -0.3824 -0.0288
 4146TIP3    H133853   0.464   6.587   4.769  0.0850  0.4913 -0.3160
 4146TIP3    H233854   0.506   6.502   4.651  0.3881  0.0481  0.1078
 4147TIP3   OH233855   3.226   2.522   4.699 -0.1586 -0.0524 -0.3406
 4147TIP3    H133856   3.171   2.521   4.621  0.0713 -0.1854 -0.5041
 4147TIP3    H233857   3.305   2.568   4.672  0.0468 -0.3589 -0.2756
 4148TIP3   OH233858   1.338   2.705   1.967  0.4187  0.3486  0.4521
 4148TIP3    H133859   1.432   2.706   1.983  0.1616 -0.9982  2.3116
 4148TIP3    H233860   1.302   2.766   2.031 -0.0580  0.2575  0.2761
 4149TIP3   OH233861   3.083   1.716  12.452  0.2789 -0.2042 -0.0165
 4149TIP3    H133862   3.064   1.634  12.497  3.6146 -1.7558 -1.1077
 4149TIP3    H233863   3.114   1.775  12.521 -1.7634  0.0986  0.7147
 4150TIP3   OH233864   6.595   4.856  14.934 -0.7368  0.0783 -0.1020
 4150TIP3    H133865   6.515   4.828  14.890 -0.9719  0.1220  0.2996
 4150TIP3    H233866   6.571   4.936  14.980 -1.6454 -2.0842  3.5516
 4151TIP3   OH233867   2.061   0.508   3.619 -0.2499  0.5318  0.5159
 4151TIP3    H133868   2.059   0.533   3.711 -0.9903  2.1137  0.1018
 4151TIP3    H233869   1.990   0.445   3.609  0.8574 -0.8960  1.3311
 4152TIP3   OH233870   0.610   1.680  17.135  0.9081 -0.2559  0.1918
 4152TIP3    H133871   0.525   1.662  17.174  1.1490 -0.1231  0.7845
 4152TIP3    H233872   0.595   1.673  17.040  0.4592 -1.1712  0.3227
 4153TIP3   OH233873   3.619   5.389   3.197  0.6174  0.2921 -0.5080
 4153TIP3    H133874   3.713   5.377   3.205  0.2951 -2.1283  0.7000
 4153TIP3    H233875   3.606   5.426   3.110  2.7068  1.4576 -0.3864
 4154TIP3   OH233876   4.619   0.511  16.791 -1.0298  0.4549 -0.1341
 4154TIP3    H133877   4.646   0.602  16.806 -3.1460  1.0928  0.1886
 4154TIP3    H233878   4.584   0.511  16.702 -1.2232 -0.0038 -0.0582
 4155TIP3   OH233879   5.257   4.873  17.100 -0.5871  0.6797  0.0917
 4155TIP3    H133880   5.298   4.905  17.019 -0.8189 -0.9067 -0.7000
 4155TIP3    H233881   5.164   4.888  17.087 -0.8838 -1.6600 -1.0113
 4156TIP3   OH233882   4.068   1.037   0.286 -0.1358 -0.3406  0.3971
 4156TIP3    H133883   4.101   0.990   0.362  1.2938  0.1485  0.1081
 4156TIP3    H233884   4.146   1.058   0.234 -0.9835  0.1480 -0.7337
 4157TIP3   OH233885   1.220   2.196   6.556 -0.0476  0.4056  0.0931
 4157TIP3    H133886   1.206   2.224   6.647  0.4712  1.5721 -0.1736
 4157TIP3    H233887   1.235   2.102   6.562 -0.8788  0.3245  1.1274
 4158TIP3   OH233888   3.346   2.698  16.194 -0.3984  0.2706 -0.2256
 4158TIP3    H133889   3.399   2.778  16.198  0.4669 -0.2897 -0.3243
 4158TIP3    H233890   3.292   2.702  16.273  1.2170 -0.1103  0.9489
 4159TIP3   OH233891   6.000   1.600  10.584 -0.0565  0.0628 -0.0731
 4159TIP3    H133892   5.993   1.518  10.537  1.9615 -0.5979  0.6558
 4159TIP3    H233893   6.077   1.643  10.547 -1.2767  1.8273 -0.6927
 4160TIP3   OH233894   1.011   1.208   5.528  0.6146 -0.0995 -0.0757
 4160TIP3    H133895   1.092   1.168   5.497  1.7700  0.8270  1.5674
 4160TIP3    H233896   1.005   1.181   5.620  0.6006  2.1106  0.6328
 4161TIP3   OH233897   2.105   1.225  12.352  0.2454  0.0835 -0.6821
 4161TIP3    H133898   2.095   1.147  12.406  0.5283 -0.2221 -1.0705
 4161TIP3    H233899   2.045   1.289  12.392 -0.6051 -0.5843 -0.8564
 4162TIP3   OH233900   3.570   0.986   3.175 -0.0249 -0.4971 -0.0070
 4162TIP3    H133901   3.620   0.940   3.107 -1.6840 -0.3319 -1.4065
 4162TIP3    H233902   3.631   0.994   3.249  2.0948 -0.0890 -1.7006
 4163TIP3   OH233903   6.105   3.416   0.918 -0.2846 -0.2750  0.3380
 4163TIP3    H133904   6.011   3.414   0.939  0.1985 -1.7702  2.7922
 4163TIP3    H233905   6.132   3.505   0.938 -0.9239 -0.2199  1.0065
 4164TIP3   OH233906   5.047   5.786   1.766 -0.5164  0.1132  0.2495
 4164TIP3    H133907   4.992   5.864   1.760 -0.4259  0.1672  0.1415
 4164TIP3    H233908   5.025   5.735   1.688  0.6562  0.8152 -0.5581
 4165TIP3   OH233909   0.496   2.277   5.193  0.0092 -0.4643 -1.5286
 4165TIP3    H133910   0.554   2.319   5.130  0.9254  2.1210  0.8364
 4165TIP3    H233911   0.409   2.309   5.170  0.5367  1.8968 -0.5738
 4166TIP3   OH233912   0.622   5.523   5.195  0.2355  0.0349 -0.4872
 4166TIP3    H133913   0.641   5.450   5.253 -0.5149 -1.7353 -2.3583
 4166TIP3    H233914   0.703   5.536   5.145  0.8859  1.5649  0.8639
 4167TIP3   OH233915   0.196   1.593  12.911 -0.5011  0.3773  0.3386
 4167TIP3    H133916   0.222   1.547  12.831 -0.9893 -0.8474  0.8513
 4167TIP3    H233917   0.217   1.531  12.981 -2.0106  0.5560  0.9903
 4168TIP3   OH233918   4.526   0.126   5.350 -0.0522  0.1785  0.1797
 4168TIP3    H133919   4.541   0.120   5.256  0.9604  1.2628  0.2456
 4168TIP3    H233920   4.433   0.105   5.361 -0.2328  0.2248 -1.0768
 4169TIP3   OH233921   5.936   0.526  15.703  0.4239  0.1063  0.7229
 4169TIP3    H133922   5.991   0.552  15.776 -1.4782 -1.5849  2.8976
 4169TIP3    H233923   5.850   0.562  15.723 -0.1638 -0.4096 -0.7066
 4170TIP3   OH233924   2.387   3.262  11.248  0.5627  0.0662 -0.2011
 4170TIP3    H133925   2.300   3.225  11.236  0.3318  0.1831  0.9924
 4170TIP3    H233926   2.380   3.314  11.328  2.1583 -1.2830  0.8634
 4171TIP3   OH233927   5.916   5.764   1.709 -0.2429  0.1364  0.0363
 4171TIP3    H133928   5.879   5.837   1.759 -0.0152 -0.9005  1.8206
 4171TIP3    H233929   5.848   5.697   1.710  0.8122 -1.0271  1.6308
 4172TIP3   OH233930   1.231   3.771  12.416 -0.4262  0.3342  0.1758
 4172TIP3    H133931   1.173   3.821  12.359 -0.9956  0.8902  1.2066
 4172TIP3    H233932   1.173   3.724  12.475  0.1490  0.0813  0.5559
 4173TIP3   OH233933   2.879   3.273  11.780  0.3604  0.6298  0.5421
 4173TIP3    H133934   2.818   3.336  11.740 -0.2775 -0.4929 -0.2989
 4173TIP3    H233935   2.957   3.325  11.798  0.7889  1.1649 -2.4263
 4174TIP3   OH233936   2.207   1.827  13.238  0.6228 -0.4082 -0.2319
 4174TIP3    H133937   2.216   1.918  13.209  0.2015 -0.5011 -0.6669
 4174TIP3    H233938   2.113   1.815  13.250  0.5676 -1.0784 -1.1736
 4175TIP3   OH233939   5.316   2.687  15.331 -0.1546 -0.4691 -0.1761
 4175TIP3    H133940   5.231   2.730  15.319 -0.2284 -0.3770  0.5826
 4175TIP3    H233941   5.347   2.668  15.243 -0.7010  0.0195 -0.4780
 4176TIP3   OH233942   6.178   0.251  16.230 -0.4982  0.5165  0.5572
 4176TIP3    H133943   6.230   0.298  16.295 -0.2904  2.3413 -0.8195
 4176TIP3    H233944   6.103   0.217  16.279 -0.8059  2.5769  1.6647
 4177TIP3   OH233945   4.347   4.714  13.253  0.1998  0.9321 -0.4072
 4177TIP3    H133946   4.357   4.746  13.163 -0.7002  0.5063 -0.6746
 4177TIP3    H233947   4.324   4.792  13.304 -3.1170  0.6580 -1.2513
 4178TIP3   OH233948   3.921   0.940   3.043 -0.3108  0.1077 -0.4822
 4178TIP3    H133949   3.917   1.035   3.058 -1.5157  0.2584 -1.5894
 4178TIP3    H233950   3.978   0.930   2.967  3.1941 -0.4322  1.9539
 4179TIP3   OH233951   6.707   3.259  10.556  0.2832  0.2967  0.1789
 4179TIP3    H133952   6.677   3.172  10.528 -0.4636  0.7186 -0.3626
 4179TIP3    H233953   6.803   3.253  10.552  0.2362  0.2663 -2.3453
 4180TIP3   OH233954   2.004   5.967  14.737 -0.6434 -0.2964  0.1633
 4180TIP3    H133955   1.978   5.894  14.794  0.3366 -1.0604 -0.3377
 4180TIP3    H233956   2.089   5.995  14.772 -1.3891  1.1943  0.8767
 4181TIP3   OH233957   2.614   3.904   4.923  0.1996 -0.3287  0.6981
 4181TIP3    H133958   2.699   3.921   4.963  0.5076 -0.8642  0.2834
 4181TIP3    H233959   2.631   3.835   4.858 -0.1896  0.8396 -0.7068
 4182TIP3   OH233960   2.926   4.468   4.888 -0.8614 -0.7592 -0.6612
 4182TIP3    H133961   2.841   4.513   4.887 -1.5578 -1.8923 -3.2664
 4182TIP3    H233962   2.912   4.390   4.942 -1.7582 -1.3053 -1.6320
 4183TIP3   OH233963   1.457   1.883  14.913 -0.3633  0.0590 -0.1951
 4183TIP3    H133964   1.498   1.956  14.961 -1.7945  0.8498 -0.1110
 4183TIP3    H233965   1.445   1.815  14.979 -1.8240  0.9389  0.5085
 4184TIP3   OH233966   3.451   2.485   3.895 -0.0435 -0.6431 -0.0417
 4184TIP3    H133967   3.371   2.441   3.866 -1.3119  1.2149  0.4877
 4184TIP3    H233968   3.449   2.570   3.852  1.9528 -0.7277 -0.4270
 4185TIP3   OH233969   0.657   1.496  11.245 -0.1243  0.0017  0.8368
 4185TIP3    H133970   0.628   1.424  11.301  1.6427 -1.2070  0.3097
 4185TIP3    H233971   0.690   1.562  11.306 -2.3326  0.6836  1.3507
 4186TIP3   OH233972   4.600   2.815  14.708  0.2906  0.4517 -0.5511
 4186TIP3    H133973   4.574   2.893  14.757 -1.2597 -0.6612  0.5072
 4186TIP3    H233974   4.660   2.847  14.641 -0.4581  2.5676 -0.2733
 4187TIP3   OH233975   6.164   2.246  13.956 -0.2313  0.5629 -0.7110
 4187TIP3    H133976   6.073   2.247  13.928  0.3969  0.5091 -2.9641
 4187TIP3    H233977   6.205   2.178  13.902  1.2595  1.0077 -0.1822
 4188TIP3   OH233978   6.172   0.117  15.247 -0.4110 -0.7896 -0.7408
 4188TIP3    H133979   6.144   0.053  15.312  0.6359  0.9913  1.5884
 4188TIP3    H233980   6.232   0.069  15.190 -1.2364 -2.3532 -0.3507
 4189TIP3   OH233981   0.368   3.432   2.447  0.2507  0.3294 -0.5521
 4189TIP3    H133982   0.421   3.498   2.402 -0.4816  0.8247 -0.7027
 4189TIP3    H233983   0.295   3.481   2.483  0.1760 -0.2633  0.1258
 4190TIP3   OH233984   5.144   0.033   5.992  0.6212 -0.4001  0.3350
 4190TIP3    H133985   5.055  -0.002   5.994  0.2027  0.6483  1.7550
 4190TIP3    H233986   5.183   0.004   6.075  0.9470  0.7323  0.5898
 4191TIP3   OH233987   3.177   4.658  13.574 -0.1153 -0.2315 -0.1412
 4191TIP3    H133988   3.106   4.602  13.542 -0.9615  0.6587  0.1360
 4191TIP3    H233989   3.156   4.674  13.666 -0.2341  1.0322 -0.3663
 4192TIP3   OH233990   4.291   5.200  14.367  0.1750 -0.4504  0.2470
 4192TIP3    H133991   4.383   5.175  14.356  0.4170  0.0939  0.9715
 4192TIP3    H233992   4.243   5.117  14.358  0.7056 -0.7038 -0.3670
 4193TIP3   OH233993   6.536   3.472  13.925  0.1952  0.2587 -1.0801
 4193TIP3    H133994   6.521   3.471  13.830 -0.4561  1.3708 -0.9981
 4193TIP3    H233995   6.480   3.402  13.959  1.7768 -1.3854 -1.6723
 4194TIP3   OH233996   5.974   5.867   2.101  0.4357 -0.2783 -0.1566
 4194TIP3    H133997   5.952   5.775   2.082  0.2804 -0.5246  1.0904
 4194TIP3    H233998   5.955   5.913   2.020  0.4425 -1.3406 -0.7900
 4195TIP3   OH233999   1.208   6.734  16.199 -0.0776  0.3789  0.2802
 4195TIP3    H134000   1.271   6.698  16.137 -0.4565 -1.1233  0.7292
 4195TIP3    H234001   1.125   6.693  16.174 -0.3576  0.2827  1.3446
 4196TIP3   OH234002   1.662   4.267   2.006 -0.2362 -0.2653 -0.3052
 4196TIP3    H134003   1.617   4.291   1.924 -2.2318 -2.9611 -0.1600
 4196TIP3    H234004   1.635   4.334   2.068 -1.1966  0.1479 -1.1312
 4197TIP3   OH234005   5.291   3.264  12.334 -0.0129  0.0375  0.2421
 4197TIP3    H134006   5.249   3.304  12.410 -0.3512 -1.2692  0.7756
 4197TIP3    H234007   5.384   3.261  12.355 -0.3565 -2.7171  1.8443
 4198TIP3   OH234008   4.032   0.756   4.448 -0.6777  0.2773  0.4958
 4198TIP3    H134009   4.071   0.736   4.363 -2.2913  0.5255 -0.3481
 4198TIP3    H234010   3.957   0.811   4.427 -1.3489 -0.0022  2.0517
 4199TIP3   OH234011   2.185   5.822  16.205 -0.6885  0.2669  0.0432
 4199TIP3    H134012   2.104   5.871  16.221 -0.9340  0.1981 -0.9278
 4199TIP3    H234013   2.246   5.888  16.170 -0.8779 -0.0151 -0.8431
 4200TIP3   OH234014   2.638   3.593  16.225 -0.1506 -0.8596  0.2029
 4200TIP3    H134015   2.648   3.633  16.312  1.2600 -1.3049  0.2606
 4200TIP3    H234016   2.725   3.595  16.187 -0.6904 -0.9690 -1.0983
 4201TIP3   OH234017   1.656   1.521  14.007 -0.1841 -0.0926 -0.7629
 4201TIP3    H134018   1.712   1.573  13.949  0.3877  1.2937  0.9318
 4201TIP3    H234019   1.626   1.448  13.953  0.0337  1.2947 -2.8767
 4202TIP3   OH234020   2.833   5.443  15.534 -0.2222  0.3543 -0.5962
 4202TIP3    H134021   2.788   5.401  15.461 -1.8884 -0.1875  0.6659
 4202TIP3    H234022   2.812   5.536  15.525  1.4450  0.6503 -2.0108
 4203TIP3   OH234023   0.927   1.897  12.285 -0.5101  0.1435 -0.1321
 4203TIP3    H134024   0.968   1.815  12.259 -1.0494 -0.0745 -0.3259
 4203TIP3    H234025   0.919   1.947  12.204  0.2910  0.6142  0.0681
 4204TIP3   OH234026   0.112   4.110  10.807  0.3393 -0.2194 -0.0011
 4204TIP3    H134027   0.091   4.174  10.739 -3.0695  0.4087  1.4282
 4204TIP3    H234028   0.159   4.160  10.873 -0.7144  0.4271  0.2845
 4205TIP3   OH234029   0.696   3.927  14.779 -0.1248  0.2780 -0.2780
 4205TIP3    H134030   0.774   3.895  14.734 -0.6966 -0.3961 -0.8096
 4205TIP3    H234031   0.668   4.002  14.726  1.7053  2.3210  1.4389
 4206TIP3   OH234032   3.343   6.029   4.753  0.3947 -0.2059  0.0768
 4206TIP3    H134033   3.318   5.987   4.836  1.3453  1.0813  1.0691
 4206TIP3    H234034   3.278   6.098   4.740  0.2656 -0.3855 -0.2442
 4207TIP3   OH234035   6.693   1.400   1.206 -0.1882 -0.1472 -0.6257
 4207TIP3    H134036   6.631   1.433   1.270 -0.3572 -0.0877 -0.8186
 4207TIP3    H234037   6.738   1.327   1.250 -1.6738 -1.4043 -1.1008
 4208TIP3   OH234038   5.963   1.660   5.292  0.3308  0.1744  0.5611
 4208TIP3    H134039   5.961   1.590   5.357  0.3745 -0.7456 -0.4153
 4208TIP3    H234040   6.034   1.636   5.233  0.7384  1.3538  0.5378
 4209TIP3   OH234041   4.945   4.975  12.822 -0.0272 -0.3076 -0.1955
 4209TIP3    H134042   5.002   5.030  12.877  2.3357 -0.4758 -2.2812
 4209TIP3    H234043   4.897   5.038  12.768 -1.3931 -0.1852  1.1164
 4210TIP3   OH234044   6.796   1.556   4.832 -0.5685 -0.2900 -0.2415
 4210TIP3    H134045   6.730   1.535   4.766  1.5617 -0.2670 -2.4712
 4210TIP3    H234046   6.877   1.568   4.783  0.3326  4.0642  1.8095
 4211TIP3   OH234047   2.947   0.667  13.396  0.4100  0.0889 -0.0409
 4211TIP3    H134048   2.890   0.591  13.401  0.9414 -0.2423  1.4649
 4211TIP3    H234049   2.993   0.668  13.480 -0.0884  2.4772  0.2700
 4212TIP3   OH234050   4.441   2.143  12.100 -0.0010 -0.7889  0.2406
 4212TIP3    H134051   4.400   2.227  12.121 -0.5546 -1.1462  0.6144
 4212TIP3    H234052   4.369   2.089  12.068 -0.0822 -1.8253  2.0523
 4213TIP3   OH234053   4.798   4.183   2.340  0.0674  0.0412 -0.7895
 4213TIP3    H134054   4.755   4.097   2.339  0.7390 -0.3231  0.3048
 4213TIP3    H234055   4.804   4.207   2.247 -2.2613  0.0127 -1.0136
 4214TIP3   OH234056   4.112   5.765  11.620  0.4212  0.7190 -0.1523
 4214TIP3    H134057   4.188   5.795  11.569  0.6385  1.4483  0.5675
 4214TIP3    H234058   4.046   5.744  11.555  0.8493  1.1809 -0.7485
 4215TIP3   OH234059   6.115   4.800   4.638 -0.3385 -0.2484  0.5088
 4215TIP3    H134060   6.191   4.766   4.685 -0.7094 -0.9816  0.5923
 4215TIP3    H234061   6.083   4.872   4.693 -1.0336 -1.3838  1.6196
 4216TIP3   OH234062   0.821   5.136  15.804 -1.0296 -0.4999  0.0695
 4216TIP3    H134063   0.732   5.163  15.779 -1.1175  0.8127  1.6066
 4216TIP3    H234064   0.815   5.120  15.899  0.2832 -0.8120  0.1135
 4217TIP3   OH234065   5.656   5.083  16.394 -0.0271 -0.5808  0.2103
 4217TIP3    H134066   5.685   4.998  16.362 -1.0087 -0.5589 -0.8234
 4217TIP3    H234067   5.735   5.137  16.395  0.3777 -1.1571 -0.3075
 4218TIP3   OH234068   0.620   0.077  12.044 -0.3205  0.0628  0.1256
 4218TIP3    H134069   0.654   0.052  12.129  1.0701  3.2972  0.6951
 4218TIP3    H234070   0.697   0.110  11.996 -1.4145  0.3172 -1.5461
 4219TIP3   OH234071   0.201   6.481  17.083 -0.2146 -0.3880 -0.0711
 4219TIP3    H134072   0.295   6.488  17.099 -0.0873 -1.4452 -0.3020
 4219TIP3    H234073   0.194   6.428  17.003 -0.9710  0.7522 -0.7981
 4220TIP3   OH234074   5.454   1.346  14.425  0.3353 -0.1834  0.0948
 4220TIP3    H134075   5.366   1.362  14.458 -0.3482 -2.4179 -0.4615
 4220TIP3    H234076   5.509   1.340  14.504  0.2679  2.2018  0.4146
 4221TIP3   OH234077   3.233   0.185  16.082 -0.3369 -0.1151 -0.4207
 4221TIP3    H134078   3.262   0.246  16.150 -0.0159  0.0487 -0.7038
 4221TIP3    H234079   3.158   0.140  16.121  0.0321 -0.2436  0.1544
 4222TIP3   OH234080   5.471   1.762   0.154 -0.5271 -0.1284  0.5293
 4222TIP3    H134081   5.529   1.777   0.079 -0.5663  0.3639  0.5966
 4222TIP3    H234082   5.433   1.847   0.173  1.0258  0.2320  2.3987
 4223TIP3   OH234083   2.621   6.542   3.077 -0.4236 -0.5851  0.5066
 4223TIP3    H134084   2.605   6.547   3.172  1.8413 -0.3936  0.9331
 4223TIP3    H234085   2.684   6.613   3.060 -1.4811 -0.0395 -1.3288
 4224TIP3   OH234086   5.373   4.450   6.104  0.1344 -0.1594  0.0294
 4224TIP3    H134087   5.405   4.490   6.022  0.9784 -0.6057  0.1321
 4224TIP3    H234088   5.282   4.481   6.111  0.2194  0.3291 -0.7918
 4225TIP3   OH234089   1.270   2.387  15.157  0.4055  0.3109  0.2569
 4225TIP3    H134090   1.343   2.433  15.198  0.8319 -1.1147  1.1718
 4225TIP3    H234091   1.311   2.319  15.103 -0.1335  2.2197 -2.8034
 4226TIP3   OH234092   5.410   6.307  13.596  0.5503  1.1219  0.4088
 4226TIP3    H134093   5.416   6.402  13.608 -0.0415  1.5688 -2.1774
 4226TIP3    H234094   5.484   6.285  13.539  0.2333  0.1673  0.3474
 4227TIP3   OH234095   2.128   1.609   3.148 -0.1784  0.1091  0.4558
 4227TIP3    H134096   2.215   1.623   3.184 -0.7484 -0.8560  2.3800
 4227TIP3    H234097   2.069   1.644   3.215 -1.2965 -0.7288 -0.0580
 4228TIP3   OH234098   5.959   4.593   4.565 -0.3209 -0.0539 -0.0020
 4228TIP3    H134099   5.881   4.620   4.517  1.0491  0.5242 -2.0441
 4228TIP3    H234100   5.997   4.675   4.598 -1.0153 -0.4088  1.7768
 4229TIP3   OH234101   2.033   3.242   2.398 -0.2961 -0.1586  0.1232
 4229TIP3    H134102   2.001   3.154   2.420 -0.5148  0.4810  2.8205
 4229TIP3    H234103   1.997   3.298   2.468  1.8296  1.6375 -0.1110
 4230TIP3   OH234104   1.554   0.007  16.239 -0.0128  0.2222  0.5057
 4230TIP3    H134105   1.632   0.059  16.262 -0.1448  1.2594 -1.1998
 4230TIP3    H234106   1.491   0.028  16.307  0.2786  1.5863  0.3976
 4231TIP3   OH234107   6.559   6.725   5.936 -0.1555 -0.4092  0.0799
 4231TIP3    H134108   6.609   6.653   5.897 -0.5130 -0.4304 -0.3476
 4231TIP3    H234109   6.624   6.775   5.985  0.1092 -0.9820  0.3228
 4232TIP3   OH234110   5.293   3.643   0.277  0.3315 -0.4531  0.0224
 4232TIP3    H134111   5.227   3.707   0.250  1.8989  0.8106 -0.9525
 4232TIP3    H234112   5.290   3.576   0.209 -1.3313 -1.5059  1.0594
 4233TIP3   OH234113   0.498   3.516  16.317 -0.2844  0.1256  0.5431
 4233TIP3    H134114   0.483   3.469  16.235  1.3284 -0.7613  0.7109
 4233TIP3    H234115   0.548   3.594  16.292  1.1674 -0.7030  0.7692
 4234TIP3   OH234116   0.093   1.809   6.173 -0.4544 -0.9352 -0.4837
 4234TIP3    H134117   0.030   1.876   6.199  2.5944  1.4634  1.5439
 4234TIP3    H234118   0.076   1.795   6.080 -2.1806  1.6332 -0.6500
 4235TIP3   OH234119   6.591   5.997   3.588 -0.4820 -0.6284  0.5606
 4235TIP3    H134120   6.648   6.050   3.644 -0.4832 -0.5038  0.4437
 4235TIP3    H234121   6.649   5.930   3.551 -0.7131 -1.5108  1.6996
 4236TIP3   OH234122   3.788   5.214  15.293  0.6023  0.1662  0.1606
 4236TIP3    H134123   3.849   5.141  15.294  0.8829  0.3926 -0.1368
 4236TIP3    H234124   3.829   5.279  15.236  0.2895  0.4965  0.3049
 4237TIP3   OH234125   5.552   6.573   1.065 -0.0698  0.2189 -0.2566
 4237TIP3    H134126   5.596   6.551   0.984 -2.4091 -1.4307 -1.1844
 4237TIP3    H234127   5.594   6.518   1.131  0.8485  0.4658 -0.6205
 4238TIP3   OH234128   0.979   2.699  11.368  0.7403  0.4407 -0.1243
 4238TIP3    H134129   1.042   2.640  11.411 -1.4755 -2.2107 -0.2829
 4238TIP3    H234130   0.960   2.765  11.434  0.3976 -1.2827  1.6021
 4239TIP3   OH234131   0.027   6.676  12.954 -0.0832  0.4336 -0.3811
 4239TIP3    H134132  -0.019   6.595  12.931  0.2527  0.3865 -0.9168
 4239TIP3    H234133  -0.015   6.706  13.034  0.6457 -0.9822  0.5883
 4240TIP3   OH234134   4.579   1.275   2.331 -0.5797  0.3411 -0.0811
 4240TIP3    H134135   4.541   1.193   2.301  1.2159  0.1208 -1.9728
 4240TIP3    H234136   4.577   1.270   2.427 -3.4951 -0.4212 -0.0906
 4241TIP3   OH234137   1.793   5.131  11.914 -0.4503  0.0303  0.1126
 4241TIP3    H134138   1.775   5.040  11.891 -2.5287  0.4946 -0.2948
 4241TIP3    H234139   1.832   5.126  12.002 -0.5538 -1.2447  0.1059
 4242TIP3   OH234140   2.326   1.600   1.673 -0.6215 -0.2778 -0.2073
 4242TIP3    H134141   2.405   1.624   1.625  0.8511 -1.5703  1.4343
 4242TIP3    H234142   2.257   1.597   1.606  0.6682  0.9798 -1.6669
 4243TIP3   OH234143   1.378   6.418   4.388 -0.8036 -0.1478 -0.1259
 4243TIP3    H134144   1.380   6.456   4.300  0.4208 -0.6488 -0.3226
 4243TIP3    H234145   1.440   6.471   4.439 -0.3263 -0.8495  0.0227
 4244TIP3   OH234146   6.299   3.455   4.249 -0.0545 -0.0908 -0.0952
 4244TIP3    H134147   6.352   3.385   4.286  2.3025  1.1723 -0.8574
 4244TIP3    H234148   6.300   3.438   4.154 -2.9708 -1.2660 -0.0097
 4245TIP3   OH234149   5.408   1.812   0.473  0.3479  0.3876 -0.0198
 4245TIP3    H134150   5.404   1.723   0.438 -0.8922  1.2596 -2.3379
 4245TIP3    H234151   5.404   1.869   0.395 -0.0931  2.4754  1.4359
 4246TIP3   OH234152   3.915   6.663  13.596 -0.0812  0.6900  0.1833
 4246TIP3    H134153   3.824   6.655  13.570  0.2387  0.9956 -1.0675
 4246TIP3    H234154   3.965   6.628  13.523  0.8526  1.9097  0.2067
 4247TIP3   OH234155   2.995   4.753   0.242 -0.2954 -0.0173  0.9364
 4247TIP3    H134156   3.072   4.742   0.186  0.2096  1.8809  1.1797
 4247TIP3    H234157   2.966   4.664   0.261  0.4455 -0.7321 -1.0455
 4248TIP3   OH234158   2.541   6.611   3.659 -0.1742  0.1851 -0.2484
 4248TIP3    H134159   2.633   6.591   3.678 -0.4108 -0.6131  0.1276
 4248TIP3    H234160   2.499   6.615   3.745 -0.9629 -1.9589 -0.4649
 4249TIP3   OH234161   3.713   2.691   4.287  0.2353 -0.3275  0.1701
 4249TIP3    H134162   3.721   2.769   4.341 -0.0959 -0.7012  0.7685
 4249TIP3    H234163   3.639   2.644   4.323 -1.7010  0.6580 -2.2164
 4250TIP3   OH234164   0.246   6.478   4.496  0.2920  0.0266 -0.0297
 4250TIP3    H134165   0.267   6.388   4.471  0.0286 -1.1772  3.6128
 4250TIP3    H234166   0.315   6.503   4.557 -1.8277  0.6939  2.2627
 4251TIP3   OH234167   4.303   4.029   4.068 -0.1859  0.0379  1.2492
 4251TIP3    H134168   4.251   4.016   3.989  1.1050  0.2130  0.3502
 4251TIP3    H234169   4.366   4.097   4.046  0.2569  0.0342  2.4050
 4252TIP3   OH234170   2.025   4.306   2.606  0.2611  0.0388 -0.1708
 4252TIP3    H134171   2.107   4.356   2.615  0.7032 -0.8477  1.1236
 4252TIP3    H234172   1.958   4.364   2.643 -0.2352  1.8403 -3.5374
 4253TIP3   OH234173   1.280   1.556   5.771  0.4749 -0.9047 -0.2050
 4253TIP3    H134174   1.216   1.497   5.811 -0.1448  0.9486  1.6899
 4253TIP3    H234175   1.270   1.638   5.818  1.2177  0.7974 -2.8133
 4254TIP3   OH234176   4.088   4.619   4.873  0.4779 -0.3373  0.3964
 4254TIP3    H134177   4.170   4.653   4.908 -0.1391 -0.7926  2.4596
 4254TIP3    H234178   4.086   4.528   4.902 -1.8127  0.3020  2.5753
 4255TIP3   OH234179   5.861   3.747   1.508  0.6951 -0.3238  0.4214
 4255TIP3    H134180   5.794   3.728   1.443  1.3311  0.5571 -0.5179
 4255TIP3    H234181   5.851   3.678   1.574 -0.3970 -0.8407 -0.2654
 4256TIP3   OH234182   3.569   2.870  16.184 -0.0563 -0.0968  0.2992
 4256TIP3    H134183   3.524   2.946  16.147  0.8858  0.8689  1.0946
 4256TIP3    H234184   3.649   2.905  16.223  0.7144 -1.5891  0.1395
 4257TIP3   OH234185   4.705   3.205   5.733  0.6749  0.5581  0.5248
 4257TIP3    H134186   4.714   3.167   5.645  1.5239 -0.7923  1.1589
 4257TIP3    H234187   4.678   3.132   5.788  1.4903  1.0667  1.6405
 4258TIP3   OH234188   4.047   5.202   0.179 -0.0602  0.3974  0.0591
 4258TIP3    H134189   4.034   5.221   0.087  0.3615  0.7030  0.0570
 4258TIP3    H234190   3.977   5.142   0.202 -1.4246  1.9175  0.0573
 4259TIP3   OH234191   5.109   5.574   4.344  0.0638  0.1759  0.3675
 4259TIP3    H134192   5.149   5.660   4.354  1.7031 -0.2775 -1.5698
 4259TIP3    H234193   5.177   5.512   4.369 -1.1686 -0.6000  1.9505
 4260TIP3   OH234194   3.087   4.633  13.309 -0.3950 -0.3866  0.2973
 4260TIP3    H134195   2.993   4.639  13.325 -0.8747  0.8990 -2.3416
 4260TIP3    H234196   3.128   4.666  13.389 -2.1147 -2.1131  1.9555
 4261TIP3   OH234197   2.641   2.678  12.684  0.1774  0.0039 -0.1358
 4261TIP3    H134198   2.605   2.747  12.739  2.7424  2.1897 -0.9912
 4261TIP3    H234199   2.688   2.724  12.614  0.6527 -2.6309 -1.7027
 4262TIP3   OH234200   3.249   0.151   4.618 -0.0750  0.3623 -0.2062
 4262TIP3    H134201   3.309   0.223   4.635 -0.3348  0.4359  0.4548
 4262TIP3    H234202   3.163   0.193   4.610 -0.5385 -0.0027  2.0645
 4263TIP3   OH234203   1.477   0.362   2.388 -0.0182  0.4473  0.1597
 4263TIP3    H134204   1.495   0.351   2.482 -0.3637  0.2266  0.2027
 4263TIP3    H234205   1.411   0.295   2.369  0.8374 -0.2291 -0.4729
 4264TIP3   OH234206   0.087   1.103  12.962 -0.3249 -0.5653 -0.2210
 4264TIP3    H134207   0.035   1.155  13.023 -2.2349 -2.7497  0.1636
 4264TIP3    H234208   0.176   1.106  12.997 -1.0584 -0.4096  1.7670
 4265TIP3   OH234209   5.404   1.750  13.292 -0.0649  0.1203 -0.1427
 4265TIP3    H134210   5.415   1.839  13.326  1.2552 -0.4006  0.8989
 4265TIP3    H234211   5.492   1.713  13.293  0.2469  0.1924 -4.7321
 4266TIP3   OH234212   2.675   4.184  15.382  0.0526  0.1083 -0.2325
 4266TIP3    H134213   2.758   4.220  15.352 -0.3833  1.2727 -0.1004
 4266TIP3    H234214   2.609   4.231  15.332 -0.5819  0.2597  0.7282
 4267TIP3   OH234215   5.729   2.155   3.312  0.3807 -0.0368  0.7501
 4267TIP3    H134216   5.706   2.247   3.324  1.8436  0.7328 -1.5536
 4267TIP3    H234217   5.647   2.108   3.320 -0.3602  1.4233  2.2129
 4268TIP3   OH234218   0.815   2.153   5.529 -0.4405 -0.1163  0.3281
 4268TIP3    H134219   0.861   2.085   5.578 -0.5895 -0.6082 -0.2088
 4268TIP3    H234220   0.772   2.206   5.596  0.2476 -0.1312  0.7902
 4269TIP3   OH234221   3.030   0.370  14.556  0.2003  0.3225  0.4202
 4269TIP3    H134222   2.982   0.295  14.590  1.9205 -0.3962  1.4205
 4269TIP3    H234223   2.974   0.445  14.575 -1.1809 -0.6060  0.1537
 4270TIP3   OH234224   2.808   6.240   5.938 -0.0246  0.3736  0.2795
 4270TIP3    H134225   2.752   6.310   5.905  0.8646  0.4938 -1.0563
 4270TIP3    H234226   2.748   6.168   5.956 -0.9115  1.3144  1.3231
 4271TIP3   OH234227   4.788   2.607  13.353  0.2263  0.1522  0.4666
 4271TIP3    H134228   4.828   2.540  13.297 -2.2402 -0.8615 -0.2234
 4271TIP3    H234229   4.740   2.557  13.420 -0.0062  1.2862  1.1856
 4272TIP3   OH234230   5.540   0.352  12.857  0.1116  0.1315  0.0633
 4272TIP3    H134231   5.565   0.271  12.811  0.4320  0.8805 -1.1209
 4272TIP3    H234232   5.579   0.343  12.944  0.4933 -0.8049 -0.1896
 4273TIP3   OH234233   0.276   1.691   3.347  0.4115 -0.2338 -0.1053
 4273TIP3    H134234   0.195   1.675   3.299  0.1552  0.2474  0.1562
 4273TIP3    H234235   0.344   1.688   3.279  0.0419  0.5486 -0.5372
 4274TIP3   OH234236   5.527   5.766   5.992 -0.2044  0.1056 -0.1723
 4274TIP3    H134237   5.619   5.747   6.010  0.5459  2.5718 -0.9849
 4274TIP3    H234238   5.523   5.861   5.988 -2.1375  0.0261 -3.3268
 4275TIP3   OH234239   3.022   3.971   1.338  0.4545 -0.4638  0.3527
 4275TIP3    H134240   2.991   4.020   1.414  3.1270  1.7268  0.2060
 4275TIP3    H234241   3.117   3.986   1.337  0.5588 -0.3321 -3.4208
 4276TIP3   OH234242   4.811   5.603  12.919  0.1750  0.7271  0.0667
 4276TIP3    H134243   4.836   5.655  12.843 -0.2885 -2.1340 -2.2409
 4276TIP3    H234244   4.716   5.609  12.924  0.2102  0.9717  0.4707
 4277TIP3   OH234245   4.403   4.502   1.703 -1.2958 -0.3963  0.1633
 4277TIP3    H134246   4.465   4.540   1.641 -2.3227  1.1862  0.0444
 4277TIP3    H234247   4.457   4.457   1.767 -0.0528  0.5302 -0.1905
 4278TIP3   OH234248   4.216   0.910   5.960 -0.0634  0.1329  0.0869
 4278TIP3    H134249   4.250   0.877   6.043  1.3597  0.2876 -0.3958
 4278TIP3    H234250   4.222   0.834   5.901 -0.4498  0.1982 -0.0350
 4279TIP3   OH234251   2.955   1.862  17.128 -0.0973 -0.3083 -0.3182
 4279TIP3    H134252   2.926   1.897  17.043  0.6693  0.5930 -0.2218
 4279TIP3    H234253   2.937   1.932  17.190  0.9572 -0.2828 -0.0250
 4280TIP3   OH234254   5.700   0.300  13.839  0.0849 -0.2878 -0.0675
 4280TIP3    H134255   5.635   0.364  13.810  1.0370  0.0365 -1.6105
 4280TIP3    H234256   5.779   0.351  13.853  0.5159 -0.9464 -0.0491
 4281TIP3   OH234257   6.638   6.380   5.393  0.3971  0.3695  0.1291
 4281TIP3    H134258   6.575   6.430   5.446 -1.7015 -0.8952 -1.0405
 4281TIP3    H234259   6.636   6.292   5.429  0.4900 -0.0086 -0.7547
 4282TIP3   OH234260   0.766   0.814  14.488  0.8530 -0.5275  0.5273
 4282TIP3    H134261   0.847   0.824  14.438 -0.3239  0.8087 -1.2354
 4282TIP3    H234262   0.765   0.722  14.515  1.8519 -1.1462 -1.3894
 4283TIP3   OH234263   2.464   0.411  12.280  0.5246  0.2569  0.1488
 4283TIP3    H134264   2.516   0.451  12.212  3.0816 -0.8801  1.2979
 4283TIP3    H234265   2.378   0.454  12.274  1.6612  2.4650 -1.6123
 4284TIP3   OH234266   1.887   4.785   1.719 -0.9303 -0.1162 -0.2629
 4284TIP3    H134267   1.967   4.736   1.700 -1.7506 -1.4977 -0.2736
 4284TIP3    H234268   1.896   4.866   1.669  0.4148 -0.2832 -0.3381
 4285TIP3   OH234269   0.849   6.131  15.946  0.3460  0.2792  0.1717
 4285TIP3    H134270   0.892   6.045  15.947 -0.1919 -0.0173 -0.7350
 4285TIP3    H234271   0.895   6.182  16.013  0.4128 -0.8413  1.0098
 4286TIP3   OH234272   0.290   6.150  13.588 -0.1677 -0.1514 -0.4986
 4286TIP3    H134273   0.299   6.245  13.578 -0.4554  0.0774  1.1904
 4286TIP3    H234274   0.196   6.135  13.597 -0.2637 -0.7860 -2.1070
 4287TIP3   OH234275   1.111   4.837  12.308 -0.1244  0.0994  0.0854
 4287TIP3    H134276   1.049   4.898  12.267 -0.4893 -1.2905 -1.5656
 4287TIP3    H234277   1.196   4.860  12.271 -0.1294  0.1202  0.0867
 4288TIP3   OH234278   0.597   3.940   6.370 -0.0139 -0.0789 -0.3074
 4288TIP3    H134279   0.543   4.005   6.325  0.4041  0.1977 -0.4172
 4288TIP3    H234280   0.556   3.928   6.455 -0.1184  0.2922 -0.3066
 4289TIP3   OH234281   0.716   2.834  13.445  0.3063  0.3367 -0.4238
 4289TIP3    H134282   0.696   2.798  13.358 -1.5242  0.0929  0.0655
 4289TIP3    H234283   0.635   2.875  13.473  1.5554  2.4775  0.2272
 4290TIP3   OH234284   3.405   3.249  12.516 -0.2718  0.5250  0.0628
 4290TIP3    H134285   3.319   3.281  12.545 -0.7405  0.3698 -1.1134
 4290TIP3    H234286   3.461   3.327  12.516 -0.0795  0.4349  1.9176
 4291TIP3   OH234287   1.211   4.442  13.386  0.0441  0.2073  0.3987
 4291TIP3    H134288   1.151   4.508  13.351  0.9987 -0.0442 -1.8508
 4291TIP3    H234289   1.265   4.417  13.312  0.2235 -2.5957  1.3650
 4292TIP3   OH234290   2.507   4.757   1.869 -0.1897  0.2205  1.0912
 4292TIP3    H134291   2.550   4.704   1.936 -1.6876  0.5196  2.3379
 4292TIP3    H234292   2.573   4.822   1.844  0.2616  0.3949  2.6194
 4293TIP3   OH234293   0.764   2.110   3.637 -0.8068  0.0274 -0.1658
 4293TIP3    H134294   0.722   2.024   3.631 -1.6979  0.5288 -1.5409
 4293TIP3    H234295   0.804   2.111   3.724  1.7210 -2.9168 -1.0874
 4294TIP3   OH234296   1.991   0.213  13.043 -0.3662 -0.2860  0.3865
 4294TIP3    H134297   2.010   0.293  12.993 -0.4024  0.0877  0.9646
 4294TIP3    H234298   2.011   0.236  13.134  0.1416 -1.1008  0.4912
 4295TIP3   OH234299   1.644   3.851  16.205 -0.0959  0.3538  0.1089
 4295TIP3    H134300   1.670   3.780  16.264  0.1820  1.0604  0.8613
 4295TIP3    H234301   1.675   3.824  16.119  0.5757 -0.1364  0.4983
 4296TIP3   OH234302   0.277   4.223  16.573 -0.5741  0.6510  0.1268
 4296TIP3    H134303   0.290   4.165  16.497 -0.9810  0.8728 -0.1143
 4296TIP3    H234304   0.334   4.298  16.555 -1.0889  0.9632 -0.2392
 4297TIP3   OH234305   0.119   1.416  14.134  0.0722 -0.1205  0.3167
 4297TIP3    H134306   0.184   1.375  14.191  0.8345 -0.8981 -1.0524
 4297TIP3    H234307   0.042   1.430  14.190  1.8086  2.0646  2.3458
 4298TIP3   OH234308   0.253   1.458   1.887  0.3234 -0.0109 -0.3160
 4298TIP3    H134309   0.300   1.476   1.806  0.5996 -1.3843 -0.4741
 4298TIP3    H234310   0.316   1.412   1.942 -0.0861  0.2824  0.4220
 4299TIP3   OH234311   2.902   0.205   2.863 -0.4124  0.0290 -0.1445
 4299TIP3    H134312   2.855   0.280   2.827  2.2547  2.2758  0.7044
 4299TIP3    H234313   2.937   0.160   2.787 -0.1766  0.9744 -0.6049
 4300TIP3   OH234314   3.587   4.184   5.609  0.7092 -0.1105 -0.3754
 4300TIP3    H134315   3.552   4.254   5.554  0.1772  0.0078  0.1126
 4300TIP3    H234316   3.573   4.104   5.559  2.5241  0.2405 -1.5420
 4301TIP3   OH234317   4.428   1.422  13.076 -0.6583  0.0958 -0.3344
 4301TIP3    H134318   4.500   1.437  13.014  0.5823 -0.7007  0.8445
 4301TIP3    H234319   4.372   1.499  13.068  1.0758  1.4269 -0.3023
 4302TIP3   OH234320   4.026   4.113   4.102 -0.0929 -0.5424  0.6340
 4302TIP3    H134321   4.095   4.107   4.035  0.0978  0.3775  0.7410
 4302TIP3    H234322   3.971   4.036   4.085 -1.1660  0.6362 -1.8531
 4303TIP3   OH234323   4.856   2.946   6.112 -0.2531  0.1462 -0.0418
 4303TIP3    H134324   4.763   2.957   6.135 -0.4622 -0.4755 -0.5580
 4303TIP3    H234325   4.899   3.024   6.147 -0.9523  0.3746  0.3203
 4304TIP3   OH234326   3.893   6.386  12.880  0.1087  0.4350 -0.4837
 4304TIP3    H134327   3.869   6.340  12.800 -0.7415 -0.1394  0.0786
 4304TIP3    H234328   3.906   6.477  12.854  0.4828  0.1289 -1.3806
 4305TIP3   OH234329   2.006   0.924  14.518 -0.1353 -0.2910 -0.1161
 4305TIP3    H134330   1.934   0.957  14.572  0.6828  0.7654  0.3630
 4305TIP3    H234331   1.992   0.829  14.515  0.6294 -0.6626  3.3250
 4306TIP3   OH234332   6.347   2.529  12.173  0.2417 -0.1078 -0.7884
 4306TIP3    H134333   6.325   2.622  12.164  0.0002 -0.1547 -0.6907
 4306TIP3    H234334   6.371   2.502  12.084  1.9507  0.4453 -0.5419
 4307TIP3   OH234335   2.948   2.691   2.446  0.0073  0.3066  0.2965
 4307TIP3    H134336   2.997   2.638   2.509 -0.6131 -0.0333  0.5043
 4307TIP3    H234337   2.958   2.781   2.478 -0.0349  0.1713  0.6988
 4308TIP3   OH234338   2.432   5.141  11.523  0.1686  0.1750 -0.0721
 4308TIP3    H134339   2.442   5.169  11.432  1.4923  0.3394  0.1064
 4308TIP3    H234340   2.352   5.185  11.553  0.8368  1.8020 -0.5537
 4309TIP3   OH234341   1.191   2.532  14.358  0.0165 -0.0935  0.5115
 4309TIP3    H134342   1.269   2.508  14.409  1.2368  1.5756 -0.4400
 4309TIP3    H234343   1.179   2.460  14.297  1.0739 -0.1997  0.4110
 4310TIP3   OH234344   5.959   6.173  11.955 -0.5757  0.1266  0.6028
 4310TIP3    H134345   6.024   6.107  11.930 -0.2036 -0.0520  1.9350
 4310TIP3    H234346   5.885   6.158  11.896 -0.1096 -0.8479  0.2412
 4311TIP3   OH234347   2.583   0.092   5.125  0.4302 -0.1311 -0.1219
 4311TIP3    H134348   2.624   0.036   5.059  1.0890 -2.2194  1.9169
 4311TIP3    H234349   2.647   0.162   5.141  1.1988 -0.8058 -0.1999
 4312TIP3   OH234350   0.229   0.789   6.454 -0.1553 -0.2884 -0.2139
 4312TIP3    H134351   0.302   0.851   6.453 -0.1489 -0.2373  1.5462
 4312TIP3    H234352   0.209   0.775   6.361 -0.2098  2.3898 -0.7029
 4313TIP3   OH234353   3.502   2.413  15.020 -0.0238 -0.5595 -0.7605
 4313TIP3    H134354   3.513   2.359  15.099 -1.7765 -0.3803 -0.3510
 4313TIP3    H234355   3.590   2.447  15.002  0.1636  0.7224  2.0838
 4314TIP3   OH234356   4.801   4.529   0.673  0.0796  0.0296 -0.4970
 4314TIP3    H134357   4.790   4.447   0.626 -0.1646  0.6240 -1.5055
 4314TIP3    H234358   4.711   4.562   0.685  0.2074  2.9136 -5.1808
 4315TIP3   OH234359   2.447   2.139   0.332  0.2074 -0.0771 -0.4271
 4315TIP3    H134360   2.355   2.112   0.334  0.4831 -1.0659  2.3264
 4315TIP3    H234361   2.496   2.057   0.322  0.8507  0.1301  0.8964
 4316TIP3   OH234362   5.113   1.106  13.541  0.1539 -0.2824 -0.1313
 4316TIP3    H134363   5.026   1.117  13.577 -0.2484  0.0088 -1.1520
 4316TIP3    H234364   5.136   1.191  13.505  1.7718  0.2733  1.9971
 4317TIP3   OH234365   1.078   5.801  10.503 -0.2087 -0.1100  0.2311
 4317TIP3    H134366   1.040   5.733  10.448  2.4777  0.1717 -2.2171
 4317TIP3    H234367   1.125   5.754  10.572 -1.1379 -0.5870  0.5447
 4318TIP3   OH234368   6.582   4.990  13.478 -0.4960 -0.2855  0.1718
 4318TIP3    H134369   6.551   4.993  13.569  0.6634 -1.5954  0.6341
 4318TIP3    H234370   6.664   5.039  13.479 -0.9988  0.5987 -0.4152
 4319TIP3   OH234371   4.715   4.011   2.687 -0.1647  0.0310 -0.0048
 4319TIP3    H134372   4.809   3.997   2.673  0.1695 -0.7082  2.5468
 4319TIP3    H234373   4.710   4.072   2.760 -1.6175 -1.6715  1.4107
 4320TIP3   OH234374   1.314   2.001  13.321 -0.1742  0.2446  0.9615
 4320TIP3    H134375   1.227   1.993  13.360 -0.5081 -1.9110 -0.0835
 4320TIP3    H234376   1.325   1.921  13.269  2.4484  0.4332  1.0694
 4321TIP3   OH234377   3.568   4.154   2.587  0.1667 -0.1421 -0.3929
 4321TIP3    H134378   3.507   4.166   2.513 -1.3093 -1.9965  0.4446
 4321TIP3    H234379   3.521   4.096   2.647  0.8326  2.1397  2.5692
 4322TIP3   OH234380   5.206   4.059   3.122  0.3001  0.2276 -0.2050
 4322TIP3    H134381   5.248   3.986   3.168  0.6469  0.9652  0.6994
 4322TIP3    H234382   5.277   4.122   3.107 -0.5359  1.8773  2.1160
 4323TIP3   OH234383   4.632   0.803  14.716  0.4465  0.0365 -0.3899
 4323TIP3    H134384   4.657   0.875  14.657  0.2402  0.4057 -0.0306
 4323TIP3    H234385   4.674   0.825  14.799  0.8927 -0.5821 -0.4481
 4324TIP3   OH234386   4.006   5.724   1.672 -0.4445  0.3214 -0.3422
 4324TIP3    H134387   3.944   5.747   1.603  0.2078  0.1536 -1.0063
 4324TIP3    H234388   4.087   5.770   1.648  0.2301 -0.8961 -0.5044
 4325TIP3   OH234389   6.218   2.547  11.897  0.1715 -0.2383 -0.1385
 4325TIP3    H134390   6.237   2.481  11.831 -0.5514 -0.0755 -0.5146
 4325TIP3    H234391   6.186   2.622  11.848 -1.2569 -0.4374  0.4371
 4326TIP3   OH234392   5.645   6.187  16.536 -0.2243  0.1339 -0.2385
 4326TIP3    H134393   5.610   6.133  16.466  2.5932  1.2486 -2.7092
 4326TIP3    H234394   5.735   6.157  16.548 -0.4246  0.3446  2.6290
 4327TIP3   OH234395   6.002   2.649  14.517 -0.1466 -0.5926  0.1212
 4327TIP3    H134396   5.976   2.724  14.463  0.6208 -0.3320  0.0911
 4327TIP3    H234397   5.938   2.581  14.497 -0.6472 -0.0611 -0.1197
 4328TIP3   OH234398   0.853   5.404   1.141 -0.2801 -0.0740  0.0006
 4328TIP3    H134399   0.926   5.381   1.083 -1.7033 -3.5621 -0.6139
 4328TIP3    H234400   0.800   5.465   1.089  0.3833 -0.2542 -0.9185
 4329TIP3   OH234401   1.561   3.034   6.267  0.3190  0.7297  0.6723
 4329TIP3    H134402   1.496   3.030   6.338  0.1184 -1.7664  0.4579
 4329TIP3    H234403   1.628   2.970   6.293  0.1719 -0.3483 -1.4156
 4330TIP3   OH234404   2.549   2.840  14.752 -0.1168  0.2506 -0.6864
 4330TIP3    H134405   2.562   2.781  14.826 -3.4902 -1.7466 -1.4628
 4330TIP3    H234406   2.610   2.808  14.685  1.5951  0.8746  0.5047
 4331TIP3   OH234407   2.006   6.132  14.069 -0.4898  0.0241 -0.4143
 4331TIP3    H134408   1.996   6.084  13.987  0.1375  0.2334 -0.6143
 4331TIP3    H234409   2.099   6.125  14.090 -0.2005  1.8540 -0.8825
 4332TIP3   OH234410   4.533   1.860  16.530  0.5317  0.4154 -0.2592
 4332TIP3    H134411   4.461   1.797  16.541 -0.0559  1.3023  1.2784
 4332TIP3    H234412   4.601   1.810  16.486  0.4086 -1.6124  1.6546
 4333TIP3   OH234413   5.437   4.992  15.483  0.4326  0.2447  0.2702
 4333TIP3    H134414   5.490   4.976  15.406 -1.4743  0.4072 -1.1399
 4333TIP3    H234415   5.480   5.066  15.527  0.0461  2.0446 -2.1722
 4334TIP3   OH234416   2.250   5.333  10.890 -0.3051 -0.5436 -0.6403
 4334TIP3    H134417   2.336   5.376  10.888  0.5856 -2.2354 -0.6931
 4334TIP3    H234418   2.193   5.391  10.839  0.2765  1.6038  0.9881
 4335TIP3   OH234419   3.553   4.483  14.050 -0.4749  0.4090  0.4451
 4335TIP3    H134420   3.484   4.418  14.037 -1.4788  0.8019  3.2469
 4335TIP3    H234421   3.569   4.518  13.962 -0.6829 -2.7491 -0.9750
 4336TIP3   OH234422   5.266   2.359  13.910 -0.5684 -0.4909 -0.7704
 4336TIP3    H134423   5.221   2.421  13.852 -0.1193  2.5519  1.8927
 4336TIP3    H234424   5.257   2.396  13.997  0.8709 -3.6031  0.8821
 4337TIP3   OH234425   3.474   3.663  12.761  0.1050  0.1973  0.0035
 4337TIP3    H134426   3.495   3.574  12.791 -0.6487  0.1311  0.3628
 4337TIP3    H234427   3.384   3.656  12.729  0.6145  0.4497 -1.5664
 4338TIP3   OH234428   1.983   3.085  13.060 -0.0501  0.6968  0.2376
 4338TIP3    H134429   2.025   2.999  13.068 -3.2584 -0.8453  2.6242
 4338TIP3    H234430   2.003   3.130  13.142 -2.0283  0.3384  0.9687
 4339TIP3   OH234431   1.892   5.806  12.741 -0.5039 -0.4071  0.9037
 4339TIP3    H134432   1.841   5.857  12.803 -2.7306  0.0278 -1.1194
 4339TIP3    H234433   1.870   5.843  12.655  0.9001 -2.2090 -0.3229
 4340TIP3   OH234434   6.781   6.055  14.850 -0.3478  0.3042 -0.0392
 4340TIP3    H134435   6.696   6.097  14.857 -0.8104 -0.1309 -2.2420
 4340TIP3    H234436   6.761   5.962  14.834  0.3857  0.5362 -2.8092
 4341TIP3   OH234437   1.453   2.029  14.497 -0.0861 -0.2419  0.5072
 4341TIP3    H134438   1.517   1.965  14.530  1.7926  0.8134 -0.9477
 4341TIP3    H234439   1.468   2.032  14.403 -0.6901  1.7648  0.4410
 4342TIP3   OH234440   3.917   3.387  16.789 -0.0706 -0.3332 -0.2643
 4342TIP3    H134441   3.873   3.351  16.712  1.5851  0.1751 -1.5014
 4342TIP3    H234442   3.955   3.470  16.758  0.1608  0.1576  1.2511
 4343TIP3   OH234443   0.685   4.001  13.379 -0.5309 -0.0161  0.1163
 4343TIP3    H134444   0.593   3.974  13.375 -0.5183  0.0259 -3.4733
 4343TIP3    H234445   0.732   3.922  13.406 -1.5436 -0.0933  1.7975
 4344TIP3   OH234446   0.507   6.413  15.836 -0.1097  0.9774 -0.3088
 4344TIP3    H134447   0.595   6.390  15.805 -1.3878 -2.0825 -2.0480
 4344TIP3    H234448   0.477   6.336  15.884 -1.9248  1.9138  0.1697
 4345TIP3   OH234449   2.648   4.324   0.220  0.2456  0.2003  0.1540
 4345TIP3    H134450   2.738   4.295   0.237 -0.1226 -0.3272  1.2791
 4345TIP3    H234451   2.613   4.346   0.306 -0.9947 -0.4314 -0.1658
 4346TIP3   OH234452   3.113   1.472  13.789  0.6335 -0.3734  0.3730
 4346TIP3    H134453   3.121   1.390  13.741  1.9220 -0.0301 -0.0475
 4346TIP3    H234454   3.196   1.517  13.774  0.5837  0.3026  1.9064
 4347TIP3   OH234455   6.728   3.490   3.105  0.0391  0.1895 -0.2804
 4347TIP3    H134456   6.763   3.537   3.030  1.7512  0.2523  0.5264
 4347TIP3    H234457   6.735   3.553   3.178 -0.5000 -0.2768  0.1848
 4348TIP3   OH234458   3.554   1.444   3.656 -0.6719  0.7031  0.2316
 4348TIP3    H134459   3.484   1.447   3.590 -0.2742 -1.5687 -0.3920
 4348TIP3    H234460   3.529   1.370   3.713  2.1955 -1.6761 -1.3196
 4349TIP3   OH234461   2.839   3.562   5.385 -0.4479 -0.0058  0.4858
 4349TIP3    H134462   2.852   3.473   5.419 -0.8098 -0.0392  0.5362
 4349TIP3    H234463   2.827   3.615   5.463  0.5616  0.2198  0.4953
 4350TIP3   OH234464   2.061   1.267  12.019 -0.7740 -0.0129 -0.1381
 4350TIP3    H134465   2.084   1.174  12.019 -0.2145  0.1147  0.7468
 4350TIP3    H234466   2.142   1.312  11.995 -0.7189  0.3090  0.6202
 4351TIP3   OH234467   4.391   3.605  11.736 -0.1749  0.3911  0.6637
 4351TIP3    H134468   4.315   3.662  11.739 -1.0076 -0.6942  0.8945
 4351TIP3    H234469   4.396   3.575  11.645  0.6090  1.2706  0.4054
 4352TIP3   OH234470   2.687   3.786   3.416  0.5239  0.5923 -0.0271
 4352TIP3    H134471   2.614   3.847   3.425 -0.1405 -0.4270  2.2050
 4352TIP3    H234472   2.656   3.720   3.355 -0.4600  0.1520  0.9290
 4353TIP3   OH234473   3.423   2.132  12.778 -0.1845 -0.1627  0.1916
 4353TIP3    H134474   3.332   2.135  12.807 -0.6794  1.0099 -1.3504
 4353TIP3    H234475   3.457   2.050  12.814 -2.8260 -2.3916 -1.8968
 4354TIP3   OH234476   2.525   4.028  12.691 -0.2561  0.1454  0.2914
 4354TIP3    H134477   2.581   3.974  12.746 -0.7218  1.3751  2.0518
 4354TIP3    H234478   2.553   4.118  12.709 -0.4459  0.6111 -1.4921
 4355TIP3   OH234479   5.140   5.616  13.563 -0.6242 -0.4766 -0.5751
 4355TIP3    H134480   5.231   5.616  13.593 -0.5037  0.5063 -0.9075
 4355TIP3    H234481   5.103   5.535  13.599  0.2897 -0.7308 -0.1737
 4356TIP3   OH234482   5.352   2.928   4.428 -0.3594  0.4273 -0.5135
 4356TIP3    H134483   5.363   2.868   4.502 -1.0476 -0.3320 -1.0111
 4356TIP3    H234484   5.310   2.875   4.361 -0.7153  1.4035 -1.0721
 4357TIP3   OH234485   2.288   0.545   0.845  0.2016  0.3314 -0.6749
 4357TIP3    H134486   2.195   0.525   0.858  0.2511  0.8028  0.5483
 4357TIP3    H234487   2.290   0.636   0.816  0.2589  0.1964 -1.0942
 4358TIP3   OH234488   5.793   1.709   3.365  0.8166 -0.5579  0.1098
 4358TIP3    H134489   5.854   1.743   3.299 -0.6536  1.1563 -0.4183
 4358TIP3    H234490   5.785   1.779   3.429 -0.3160 -0.8975  0.3567
 4359TIP3   OH234491   3.208   5.230   0.562  0.2671  0.0565  0.5258
 4359TIP3    H134492   3.233   5.170   0.492  1.6116  0.6263  0.4895
 4359TIP3    H234493   3.253   5.197   0.640 -0.1677  0.1793  0.8331
 4360TIP3   OH234494   1.666   2.319  16.359 -0.2652 -0.3231  0.6263
 4360TIP3    H134495   1.617   2.385  16.308 -1.1092 -0.9409  0.6197
 4360TIP3    H234496   1.598   2.273  16.408  0.4290 -0.5339  1.3936
 4361TIP3   OH234497   4.884   6.161  11.397  0.2662 -0.0809  0.2170
 4361TIP3    H134498   4.882   6.137  11.489  0.5854  1.3597  0.6194
 4361TIP3    H234499   4.817   6.229  11.388 -0.1783 -0.6217 -0.7537
 4362TIP3   OH234500   4.354   2.625   1.143 -0.4503 -0.0646  0.0950
 4362TIP3    H134501   4.379   2.709   1.106 -0.9237  0.3909  0.7749
 4362TIP3    H234502   4.408   2.617   1.222 -0.7342 -0.1867  0.2774
 4363TIP3   OH234503   5.016   5.320  16.475  0.3173  0.3201  0.5199
 4363TIP3    H134504   5.103   5.341  16.507  0.6770  2.1776 -1.4030
 4363TIP3    H234505   5.004   5.379  16.400 -2.4529 -0.1286  0.5202
 4364TIP3   OH234506   0.177   1.642   6.359 -0.5204 -0.3411 -0.0211
 4364TIP3    H134507   0.161   1.714   6.297  1.2017 -0.8746 -1.1546
 4364TIP3    H234508   0.253   1.670   6.410 -0.0075 -1.2149 -0.2824
 4365TIP3   OH234509   6.592   4.540  16.918  0.3330 -0.4650 -0.4480
 4365TIP3    H134510   6.525   4.534  16.850  0.9240 -1.4447 -0.9580
 4365TIP3    H234511   6.669   4.576  16.873  0.5606 -0.6013 -0.1716
 4366TIP3   OH234512   2.581   5.177   4.824  0.6240 -0.0549  0.5216
 4366TIP3    H134513   2.671   5.197   4.851  0.6599 -1.7410  1.8428
 4366TIP3    H234514   2.537   5.262   4.824  1.9957  0.7023  0.6322
 4367TIP3   OH234515   2.879   3.971  16.790 -0.7200 -0.3104  0.1458
 4367TIP3    H134516   2.793   3.987  16.829 -1.1987 -1.5821 -0.3689
 4367TIP3    H234517   2.929   4.050  16.812 -2.5958  1.3875 -1.2230
 4368TIP3   OH234518   5.248   3.090  14.749  0.4298 -0.2926  0.0059
 4368TIP3    H134519   5.288   3.059  14.668  0.6635  1.9190 -0.8172
 4368TIP3    H234520   5.278   3.181  14.757 -2.7202  0.8587  0.4420
 4369TIP3   OH234521   4.297   3.286  13.700 -0.0296  0.3572 -0.1108
 4369TIP3    H134522   4.312   3.329  13.616 -0.7234  1.2402  0.2065
 4369TIP3    H234523   4.340   3.201  13.691 -1.9289 -0.4810 -2.1445
 4370TIP3   OH234524   3.716   6.296  13.052 -0.1407 -0.0910 -0.0319
 4370TIP3    H134525   3.763   6.318  13.132  0.2336  0.0426 -0.2873
 4370TIP3    H234526   3.764   6.340  12.983 -0.4216 -0.2647 -0.3411
 4371TIP3   OH234527   3.406   4.500  15.621  0.0051 -0.3945 -0.2766
 4371TIP3    H134528   3.494   4.469  15.641 -0.0243  0.8815  2.2345
 4371TIP3    H234529   3.404   4.508  15.526  2.2448 -1.4232 -0.4610
 4372TIP3   OH234530   2.698   5.536  14.206 -0.1331  0.4242  0.5077
 4372TIP3    H134531   2.611   5.542  14.248 -0.6252  0.6738 -0.5238
 4372TIP3    H234532   2.688   5.468  14.140  0.7278 -0.1771  0.9732
 4373TIP3   OH234533   5.203   0.890  13.027  0.3302  0.3858  0.7950
 4373TIP3    H134534   5.181   0.850  12.943 -0.1661  2.7606 -0.2997
 4373TIP3    H234535   5.122   0.889  13.077  0.1263  0.7366  0.4695
 4374TIP3   OH234536   1.018   4.011   4.446 -0.1565 -0.0229 -0.0449
 4374TIP3    H134537   1.078   4.027   4.374  0.8240 -0.1645  0.7228
 4374TIP3    H234538   0.991   4.098   4.475  2.1844  0.2259  1.6470
 4375TIP3   OH234539   5.727   0.787  15.651  0.2153 -0.0371  0.0974
 4375TIP3    H134540   5.665   0.730  15.695  1.5111 -1.9395 -0.4086
 4375TIP3    H234541   5.681   0.815  15.571 -0.2938 -0.7644  0.1204
 4376TIP3   OH234542   4.915   0.031  12.173  0.0299 -0.2464  0.2812
 4376TIP3    H134543   4.845   0.022  12.109  2.0845  0.0853 -2.1763
 4376TIP3    H234544   4.933   0.125  12.178  0.4527 -0.3389  0.7131
 4377TIP3   OH234545   6.282   2.799  11.061  0.2933 -0.2945  0.5594
 4377TIP3    H134546   6.364   2.782  11.014 -0.2860 -1.8873  0.0615
 4377TIP3    H234547   6.296   2.761  11.147  0.3670  0.2066  0.7758
 4378TIP3   OH234548   0.260   6.509  15.826  0.0042  0.5387 -0.1086
 4378TIP3    H134549   0.270   6.556  15.909 -0.8076 -1.3170  1.1122
 4378TIP3    H234550   0.334   6.448  15.825 -0.3344  0.1291 -0.4441
 4379TIP3   OH234551   3.972   2.191   0.107  0.3179  0.4744  0.0714
 4379TIP3    H134552   4.025   2.247   0.164 -2.0109  1.3870  1.4945
 4379TIP3    H234553   3.927   2.132   0.167 -0.3194 -0.2315 -1.0713
 4380TIP3   OH234554   3.918   5.639  13.110 -0.2273  0.3271  0.4460
 4380TIP3    H134555   3.864   5.699  13.161 -0.9909  0.6509 -0.6948
 4380TIP3    H234556   3.986   5.694  13.071  0.4788  0.0478  1.2440
 4381TIP3   OH234557   4.381   2.492   4.472 -0.4765  0.0686 -0.0695
 4381TIP3    H134558   4.420   2.438   4.541 -0.8824 -0.6150 -0.3608
 4381TIP3    H234559   4.290   2.506   4.501 -0.9500 -1.0728 -0.9253
 4382TIP3   OH234560   1.433   3.743  10.958 -0.0113 -0.0372  0.2646
 4382TIP3    H134561   1.350   3.789  10.963  0.0682  0.1246  0.0903
 4382TIP3    H234562   1.416   3.668  10.900 -0.1444 -0.2412  0.5611
 4383TIP3   OH234563   0.434   1.329  15.727  0.2659 -0.3535 -0.3589
 4383TIP3    H134564   0.365   1.386  15.762 -0.1016 -1.1090  0.1806
 4383TIP3    H234565   0.487   1.306  15.803 -1.1639 -2.8766  0.0122
 4384TIP3   OH234566   1.698   5.454  11.297 -0.1253  0.1298 -0.6558
 4384TIP3    H134567   1.631   5.466  11.229 -0.0762  0.7618 -0.5965
 4384TIP3    H234568   1.685   5.528  11.357  0.0710 -0.2201 -0.1773
 4385TIP3   OH234569   3.576   0.514  16.570  0.6357 -0.2424  0.1171
 4385TIP3    H134570   3.502   0.543  16.623  2.2260 -0.8298  2.8770
 4385TIP3    H234571   3.612   0.595  16.533 -0.1882  0.2523  0.3730
 4386TIP3   OH234572   5.604   0.887   1.381  0.0271 -0.1144 -0.1051
 4386TIP3    H134573   5.641   0.804   1.354 -0.0310 -0.2402  0.1944
 4386TIP3    H234574   5.509   0.873   1.378  0.0140  0.0122 -0.2777
 4387TIP3   OH234575   4.028   1.159  12.592  0.3589  0.0937 -0.0904
 4387TIP3    H134576   3.999   1.093  12.655 -1.7681 -0.9314 -2.0231
 4387TIP3    H234577   4.079   1.221  12.645  0.5366 -1.8518  2.2083
 4388TIP3   OH234578   5.178   5.661   0.284  0.5711 -0.6356 -0.8732
 4388TIP3    H134579   5.180   5.569   0.310 -1.0808 -0.5430 -0.3438
 4388TIP3    H234580   5.145   5.659   0.194 -0.9568 -0.4905 -0.3400
 4389TIP3   OH234581   2.711   5.767  11.583 -0.3674  0.2902 -0.3607
 4389TIP3    H134582   2.793   5.778  11.632  0.4961  0.0837 -1.7043
 4389TIP3    H234583   2.657   5.713  11.640  1.0458 -0.9226 -0.1130
 4390TIP3   OH234584   2.339   1.453   0.466 -0.0729  0.3853  0.1401
 4390TIP3    H134585   2.323   1.362   0.490 -2.1147  0.5761 -0.2806
 4390TIP3    H234586   2.356   1.497   0.549 -1.0304 -0.0408  0.5807
 4391TIP3   OH234587   2.428   2.997   2.881  0.3396  0.6887  0.5452
 4391TIP3    H134588   2.405   2.924   2.939 -0.6339  0.8662  0.3977
 4391TIP3    H234589   2.522   3.007   2.891  0.3539 -0.0503  1.2058
 4392TIP3   OH234590   2.851   1.178  16.106  0.1640  0.6525  0.8510
 4392TIP3    H134591   2.907   1.169  16.029  0.1137 -0.2987  0.9131
 4392TIP3    H234592   2.779   1.118  16.090  1.4047 -1.4555  2.7181
 4393TIP3   OH234593   5.542   1.203  12.801 -0.3003 -0.5567 -0.0553
 4393TIP3    H134594   5.632   1.180  12.778  0.8249  3.2792 -0.2174
 4393TIP3    H234595   5.508   1.248  12.724 -3.0078 -3.1446 -0.5469
 4394TIP3   OH234596   0.492   3.627   3.271 -0.2167 -0.2148  0.2401
 4394TIP3    H134597   0.478   3.634   3.366  1.7383 -0.6597  0.5974
 4394TIP3    H234598   0.534   3.710   3.248  0.4101 -0.6011 -0.0120
 4395TIP3   OH234599   2.351   2.705  16.864  0.5589  0.1818  0.7941
 4395TIP3    H134600   2.425   2.729  16.809 -0.0200  0.4828  0.1308
 4395TIP3    H234601   2.311   2.630  16.820  0.6847 -0.2177  1.3473
 4396TIP3   OH234602   3.697   6.440  15.668  0.4176 -0.2618  0.5513
 4396TIP3    H134603   3.665   6.390  15.744 -0.4793  2.2762  1.9623
 4396TIP3    H234604   3.790   6.451  15.684  0.3855 -0.4351  0.8796
 4397TIP3   OH234605   4.081   1.832  11.721 -0.3625  0.6972  0.0557
 4397TIP3    H134606   4.143   1.782  11.669  1.0718  1.8602  0.5798
 4397TIP3    H234607   4.048   1.899  11.661 -0.2870  0.7541  0.0774
 4398TIP3   OH234608   5.669   2.529  17.094 -0.3387 -0.1972 -0.1762
 4398TIP3    H134609   5.748   2.490  17.129  1.2816  0.6046 -2.6763
 4398TIP3    H234610   5.629   2.460  17.041 -1.6118 -0.7224  1.3722
 4399TIP3   OH234611   2.307   2.602   0.998 -0.0058  0.5868  0.2375
 4399TIP3    H134612   2.318   2.627   0.907  1.0381  0.5792  0.3527
 4399TIP3    H234613   2.313   2.685   1.046  0.1855  0.5003  0.3617
 4400TIP3   OH234614   1.352   1.915  13.008  0.7831 -0.2940 -0.3920
 4400TIP3    H134615   1.365   1.922  12.913  1.1750  1.5299 -0.2374
 4400TIP3    H234616   1.410   1.981  13.045  0.7243 -1.0728  1.1370
 4401TIP3   OH234617   4.552   5.028   0.545 -0.4963  0.5890 -0.1583
 4401TIP3    H134618   4.583   4.949   0.501  1.1077  1.4197 -0.5779
 4401TIP3    H234619   4.469   5.048   0.502 -1.4030 -1.3418  0.5693
 4402TIP3   OH234620   0.783   1.773  13.298  0.9043  0.3791  0.1783
 4402TIP3    H134621   0.857   1.714  13.287 -0.4825 -1.0070 -3.3875
 4402TIP3    H234622   0.715   1.735  13.243 -1.1333  3.7303  0.1514
 4403TIP3   OH234623   1.740   3.782   3.885  0.7018 -0.0472  0.2017
 4403TIP3    H134624   1.669   3.734   3.926  2.4199 -1.5984  1.5229
 4403TIP3    H234625   1.716   3.786   3.792 -0.5128 -1.6328  0.4068
 4404TIP3   OH234626   5.881   3.242   1.916  0.1810  0.2100  0.2636
 4404TIP3    H134627   5.839   3.297   1.850 -0.0299  1.5083  1.4627
 4404TIP3    H234628   5.853   3.153   1.894  1.4560  0.3536 -2.4158
 4405TIP3   OH234629   3.611   0.054  11.218  0.5020  0.5584  0.7580
 4405TIP3    H134630   3.699   0.031  11.248  0.0430 -1.1134  0.8982
 4405TIP3    H234631   3.592  -0.009  11.148 -1.7985 -1.2673  2.8639
 4406TIP3   OH234632   0.537   4.428   1.034  0.5620  0.0393 -0.5772
 4406TIP3    H134633   0.589   4.508   1.038 -0.5507  0.7385  0.5544
 4406TIP3    H234634   0.527   4.411   0.940  1.9039  0.4704 -0.8251
 4407TIP3   OH234635   2.746   3.070  11.593 -0.0437  0.4787  0.1007
 4407TIP3    H134636   2.756   3.127  11.669  2.9771 -2.2914  2.0241
 4407TIP3    H234637   2.787   3.119  11.522  0.9944  1.3808  1.2781
 4408TIP3   OH234638   1.397   5.954  13.285  0.0948  0.3840  0.4369
 4408TIP3    H134639   1.404   5.907  13.202  0.5431  0.5710  0.3612
 4408TIP3    H234640   1.347   6.033  13.264 -0.6352 -0.0415  0.5568
 4409TIP3   OH234641   1.599   5.043   4.997  0.5538 -0.3426  0.0912
 4409TIP3    H134642   1.559   4.966   4.957 -0.3396  0.2452 -0.1719
 4409TIP3    H234643   1.693   5.025   4.996  0.3202 -1.6618  0.5488
 4410TIP3   OH234644   4.006   3.005   6.340 -0.3737 -0.0902 -0.4138
 4410TIP3    H134645   3.924   3.053   6.333 -0.2955 -0.1131 -1.7432
 4410TIP3    H234646   4.013   2.983   6.432 -1.6678  0.2497 -0.2166
 4411TIP3   OH234647   3.832   2.755   3.711  1.0625 -0.2344 -0.4929
 4411TIP3    H134648   3.875   2.774   3.628  0.2261 -1.5066 -1.2622
 4411TIP3    H234649   3.781   2.676   3.694  0.2653 -0.0943  1.0273
 4412TIP3   OH234650   2.682   2.671  11.127 -0.2062 -0.7624  0.2424
 4412TIP3    H134651   2.719   2.749  11.086 -0.3191 -1.6043 -1.5835
 4412TIP3    H234652   2.616   2.703  11.187  0.4148  0.5704  0.2432
 4413TIP3   OH234653   5.075   1.975   0.050 -0.5053 -0.3351 -0.2607
 4413TIP3    H134654   5.032   1.952  -0.032  0.0271 -1.9305 -0.1309
 4413TIP3    H234655   5.034   2.057   0.077 -2.1877 -0.8833 -1.0362
 4414TIP3   OH234656   3.866   4.982   4.544 -0.0750 -0.5719 -0.2152
 4414TIP3    H134657   3.938   4.931   4.581 -0.1526 -0.2396  0.4209
 4414TIP3    H234658   3.858   5.058   4.602 -2.2208 -1.5819  0.9728
 4415TIP3   OH234659   2.641   4.610   2.069  0.1007 -0.4680  0.4491
 4415TIP3    H134660   2.730   4.643   2.080 -0.4213  1.1102  0.2684
 4415TIP3    H234661   2.651   4.529   2.019  1.3254  0.6383 -1.2009
 4416TIP3   OH234662   6.192   1.912  10.287 -0.1030  0.1336  0.4632
 4416TIP3    H134663   6.223   2.002  10.279  0.4371 -0.0764  0.0974
 4416TIP3    H234664   6.118   1.906  10.228  1.4650 -0.3524 -1.5866
 4417TIP3   OH234665   5.206   0.133   6.509  0.2242 -0.0649 -0.2829
 4417TIP3    H134666   5.114   0.160   6.517  0.6298  1.6227 -0.9827
 4417TIP3    H234667   5.209   0.048   6.553 -1.4754  0.2735  0.5881
 4418TIP3   OH234668   2.018   5.895  11.921 -0.7225 -0.1414  0.1488
 4418TIP3    H134669   2.053   5.968  11.973 -0.9655 -0.1178  0.2811
 4418TIP3    H234670   1.933   5.927  11.890 -0.4179 -0.0150 -0.5729
 4419TIP3   OH234671   1.986   3.973   5.997 -0.3098  0.4976 -0.2649
 4419TIP3    H134672   1.981   3.924   6.080  0.4952 -1.0830 -1.1125
 4419TIP3    H234673   2.076   4.006   5.995  0.3932 -1.3660 -1.5012
 4420TIP3   OH234674   4.988   5.767   5.563 -0.7072 -0.0043  0.1066
 4420TIP3    H134675   4.948   5.820   5.632  0.8773 -1.3514  2.1641
 4420TIP3    H234676   5.081   5.768   5.583 -0.0238  0.3192 -2.6227
 4421TIP3   OH234677   4.810   5.161   6.487  0.0728  0.3333 -0.3510
 4421TIP3    H134678   4.725   5.129   6.458 -0.3578 -1.1949  2.2473
 4421TIP3    H234679   4.873   5.101   6.447 -0.2836 -0.1243 -0.2302
 4422TIP3   OH234680   5.309   3.955  11.546 -0.2063  0.0958  0.3178
 4422TIP3    H134681   5.285   3.864  11.530 -0.4030  0.2698 -0.3926
 4422TIP3    H234682   5.396   3.965  11.508 -1.0034  0.7168 -1.4411
 4423TIP3   OH234683   1.265   4.362  11.875 -1.1386 -0.9274 -0.5575
 4423TIP3    H134684   1.182   4.407  11.886 -0.7022  0.4322 -2.2614
 4423TIP3    H234685   1.320   4.394  11.946 -0.4065  2.4957 -2.3949
 4424TIP3   OH234686   5.074   6.536   2.958 -0.0726  0.1885 -1.1199
 4424TIP3    H134687   5.086   6.621   2.914  0.4485  0.9944  0.4972
 4424TIP3    H234688   5.163   6.505   2.974 -0.2566 -0.1995 -0.8495
 4425TIP3   OH234689   2.710   5.497   0.530 -0.8930 -0.4163  0.3040
 4425TIP3    H134690   2.615   5.505   0.521 -0.8418 -0.1842 -0.0573
 4425TIP3    H234691   2.743   5.585   0.509 -0.5060 -0.8328 -0.8607
 4426TIP3   OH234692   4.634   6.553   4.553  0.7104  0.2638 -0.1547
 4426TIP3    H134693   4.728   6.550   4.538  0.8317  0.2691  0.6032
 4426TIP3    H234694   4.596   6.554   4.465  1.4411  1.0172 -0.4771
 4427TIP3   OH234695   1.678   2.209   3.323 -0.2806 -0.0190  0.4304
 4427TIP3    H134696   1.774   2.214   3.329 -0.2838  1.6423 -0.2265
 4427TIP3    H234697   1.647   2.278   3.381 -1.0265  0.2961 -0.3232
 4428TIP3   OH234698   1.071   3.608   4.258  0.1429 -0.4717 -0.4328
 4428TIP3    H134699   1.113   3.614   4.345  1.3424 -3.6105 -0.6532
 4428TIP3    H234700   1.129   3.550   4.208 -1.1518  0.2909 -2.9745
 4429TIP3   OH234701   1.623   3.341   1.254  0.3277  0.8440 -0.4336
 4429TIP3    H134702   1.544   3.298   1.222 -0.3855  1.5032  0.4202
 4429TIP3    H234703   1.595   3.390   1.332  1.7527  0.3116  0.4616
 4430TIP3   OH234704   6.375   6.739   3.960  0.5434 -0.1703  0.6307
 4430TIP3    H134705   6.442   6.707   3.899  0.6188  1.9780 -0.4868
 4430TIP3    H234706   6.304   6.771   3.904  0.4371  1.4821  1.6526
 4431TIP3   OH234707   4.719   5.364  15.188  0.8138 -0.5797  0.3545
 4431TIP3    H134708   4.747   5.367  15.279  0.5620  0.0553  0.4141
 4431TIP3    H234709   4.789   5.317  15.142  1.4913  0.0936  0.6782
 4432TIP3   OH234710   5.228   0.919  16.458  0.0419  0.6335 -0.0204
 4432TIP3    H134711   5.234   0.966  16.542 -0.4699 -0.3660  0.5846
 4432TIP3    H234712   5.227   0.827  16.482 -0.9477  0.3496 -1.0865
 4433TIP3   OH234713   5.506   3.050   3.472  0.1147  0.5918  0.3843
 4433TIP3    H134714   5.477   3.024   3.559 -1.1856  1.2020  0.1617
 4433TIP3    H234715   5.502   3.145   3.472  1.4855  0.6797  0.0898
 4434TIP3   OH234716   0.579   3.107   4.116 -0.5179  0.2368 -0.4712
 4434TIP3    H134717   0.524   3.035   4.084 -0.5133 -0.6731  1.4169
 4434TIP3    H234718   0.656   3.063   4.152  1.6745  1.4750 -3.2328
 4435TIP3   OH234719   3.459   0.140   5.966  0.0143  0.5277 -0.4078
 4435TIP3    H134720   3.509   0.206   6.014 -1.4445  1.1165  0.3575
 4435TIP3    H234721   3.522   0.103   5.903  1.1075  1.9766 -0.2133
 4436TIP3   OH234722   3.471   5.152   2.390  0.6166  0.1181 -0.1959
 4436TIP3    H134723   3.452   5.142   2.483  0.0268  0.8369 -0.2267
 4436TIP3    H234724   3.461   5.246   2.374  0.5719 -0.0203 -1.0200
 4437TIP3   OH234725   0.024   4.925   3.249  0.2572 -0.1570  0.4731
 4437TIP3    H134726   0.095   4.935   3.187 -0.8618  1.0861 -0.6602
 4437TIP3    H234727  -0.011   5.014   3.261 -1.2582 -0.7536  0.7767
 4438TIP3   OH234728   4.406   1.949   1.168 -0.2757  0.1441  0.9322
 4438TIP3    H134729   4.384   2.021   1.110  0.3867 -0.4575 -0.0852
 4438TIP3    H234730   4.338   1.951   1.235 -2.3638 -0.4760 -1.0514
 4439TIP3   OH234731   0.530   5.882  13.237 -0.0809  0.5661 -0.3421
 4439TIP3    H134732   0.468   5.810  13.250  0.5910  0.2440  1.4262
 4439TIP3    H234733   0.519   5.937  13.315  0.7554  1.3418 -0.7513
 4440TIP3   OH234734   3.720   1.220  17.039  0.5355 -0.0536 -0.5934
 4440TIP3    H134735   3.651   1.238  16.975  1.0613  1.7452 -0.7206
 4440TIP3    H234736   3.729   1.303  17.087  1.6622 -0.6939  0.3287
 4441TIP3   OH234737   3.907   5.516   0.993  0.7235 -0.0938  0.2399
 4441TIP3    H134738   3.949   5.431   0.978  1.3417  0.1122  0.7648
 4441TIP3    H234739   3.890   5.517   1.087 -0.4838 -0.1778  0.0366
 4442TIP3   OH234740   3.568   2.420  11.052  0.4489 -0.2508  0.0206
 4442TIP3    H134741   3.610   2.410  11.137  1.7267 -0.7521 -0.6506
 4442TIP3    H234742   3.611   2.497  11.013 -0.7493  0.5218  0.1664
 4443TIP3   OH234743   5.848   4.676  15.308  0.3519  0.6779 -0.5565
 4443TIP3    H134744   5.772   4.676  15.250 -0.9180 -3.7840  0.7489
 4443TIP3    H234745   5.915   4.627  15.260  0.5777  0.1256  0.3155
 4444TIP3   OH234746   3.366   2.604  13.633  0.0359 -0.0051  0.0025
 4444TIP3    H134747   3.436   2.586  13.571 -0.0144  0.6538 -0.2513
 4444TIP3    H234748   3.409   2.652  13.704 -0.4585  2.0085 -0.9938
 4445TIP3   OH234749   1.189   2.430  11.520 -0.3138 -0.3034  0.8696
 4445TIP3    H134750   1.255   2.400  11.457  0.3057  0.1341  1.3000
 4445TIP3    H234751   1.198   2.369  11.594 -0.2282 -0.0995  1.0279
 4446TIP3   OH234752   0.913   5.046   5.471  0.1968 -0.2279 -0.0972
 4446TIP3    H134753   0.849   5.002   5.527  0.1653  0.0069  0.0568
 4446TIP3    H234754   0.900   5.139   5.490  1.8989 -0.2423  1.3972
 4447TIP3   OH234755   4.376   0.032  14.707  0.5810  0.0860 -0.9544
 4447TIP3    H134756   4.387  -0.043  14.765  1.0850  1.3306  0.6187
 4447TIP3    H234757   4.311   0.002  14.643 -3.5048 -0.0668  2.7150
 4448TIP3   OH234758   5.058   1.357   1.699  0.0396  0.0715 -0.7513
 4448TIP3    H134759   5.045   1.451   1.684  0.9663  0.4071  0.4587
 4448TIP3    H234760   5.152   1.347   1.711 -0.2568 -0.6301  1.4627
 4449TIP3   OH234761   6.780   4.448   4.255  0.4584  0.0637 -0.2014
 4449TIP3    H134762   6.820   4.528   4.288 -0.3792  0.3748  0.1062
 4449TIP3    H234763   6.686   4.466   4.258  0.2665 -0.8660 -0.3051
 4450TIP3   OH234764   0.091   5.388   0.608  0.4690 -0.4065 -0.0106
 4450TIP3    H134765   0.027   5.400   0.678  0.3989  2.2964 -0.4055
 4450TIP3    H234766   0.044   5.413   0.528  1.5270  0.0208 -0.5234
 4451TIP3   OH234767   6.006   1.307  11.351 -0.3628  0.2766 -0.4502
 4451TIP3    H134768   5.987   1.231  11.297 -1.9270 -0.9179  1.6454
 4451TIP3    H234769   6.016   1.379  11.289  3.3308 -1.8639 -2.7537
 4452TIP3   OH234770   1.209   1.368  15.456  0.1562  0.4427  0.9549
 4452TIP3    H134771   1.178   1.455  15.433 -1.8678 -0.7281 -1.2652
 4452TIP3    H234772   1.297   1.362  15.418 -0.9999  0.4661 -1.9783
 4453TIP3   OH234773   4.209   3.881   1.640  0.0486 -0.6861 -0.1423
 4453TIP3    H134774   4.124   3.896   1.682  0.4596  0.8281  0.2103
 4453TIP3    H234775   4.244   3.804   1.683 -1.3240 -1.6081 -0.6027
 4454TIP3   OH234776   5.681   1.274  12.360  0.3978 -0.3511 -1.2523
 4454TIP3    H134777   5.616   1.265  12.290 -2.7311  0.4196  1.2774
 4454TIP3    H234778   5.711   1.364  12.353 -1.2654  0.3002 -0.6352
 4455TIP3   OH234779   6.241   0.684   2.078 -0.3855  0.1652  0.9081
 4455TIP3    H134780   6.329   0.652   2.062 -0.9727 -2.4420  2.2916
 4455TIP3    H234781   6.247   0.728   2.163 -0.1950  1.0999  0.4218
 4456TIP3   OH234782   1.702   2.556  15.171  0.7193 -0.0354  0.1648
 4456TIP3    H134783   1.729   2.508  15.249  0.3049 -0.6210 -0.0521
 4456TIP3    H234784   1.723   2.647  15.191  0.8237 -0.2097  0.8710
 4457TIP3   OH234785   6.626   0.428   3.113  0.1684 -0.3426 -0.0301
 4457TIP3    H134786   6.541   0.461   3.141  0.2892 -0.3083  0.3051
 4457TIP3    H234787   6.682   0.506   3.110  0.0450 -0.2808 -0.7982
 4458TIP3   OH234788   3.346   6.376   0.733 -0.6986 -0.0693  0.3788
 4458TIP3    H134789   3.369   6.455   0.683 -2.0638 -0.9517 -1.7597
 4458TIP3    H234790   3.276   6.404   0.792 -1.7583  0.1782 -0.9569
 4459TIP3   OH234791   5.536   2.438  14.428 -0.3872  0.1304  0.0952
 4459TIP3    H134792   5.453   2.459  14.386 -0.2106  0.4266 -0.1168
 4459TIP3    H234793   5.512   2.398  14.511 -0.7575 -1.1959 -0.6133
 4460TIP3   OH234794   1.418   3.859  15.436 -0.2501  0.2435 -0.0610
 4460TIP3    H134795   1.459   3.824  15.357  0.8274  1.4693 -0.0833
 4460TIP3    H234796   1.359   3.928  15.404 -1.5452 -0.7850  0.0541
 4461TIP3   OH234797   3.638   6.182   1.733  0.9152 -0.4091  0.3623
 4461TIP3    H134798   3.616   6.223   1.649  1.7125  0.6254  0.6529
 4461TIP3    H234799   3.554   6.174   1.778  0.7875  1.2968  0.4688
 4462TIP3   OH234800   2.335   6.781   1.566  0.2606 -0.4246  0.4244
 4462TIP3    H134801   2.264   6.761   1.626  0.1581 -1.2814  0.0289
 4462TIP3    H234802   2.414   6.750   1.610  0.7548  2.5895  1.9046
 4463TIP3   OH234803   2.849   2.229  14.958  0.2849  0.7703  0.6400
 4463TIP3    H134804   2.859   2.196  14.869 -0.8084 -1.1147  1.1670
 4463TIP3    H234805   2.857   2.324  14.949 -1.2613  0.7691 -1.7136
 4464TIP3   OH234806   4.695   5.818   0.899  0.0201  0.2248 -0.2063
 4464TIP3    H134807   4.783   5.827   0.862  0.1294 -1.1856 -0.3129
 4464TIP3    H234808   4.694   5.879   0.973  1.1976  0.0277 -0.0103
 4465TIP3   OH234809   4.802   2.182  12.715  0.4283 -0.3832 -0.1565
 4465TIP3    H134810   4.875   2.139  12.760 -0.6108 -1.4828  0.5498
 4465TIP3    H234811   4.724   2.154  12.763 -0.7458 -1.5441 -2.5612
 4466TIP3   OH234812   5.512   0.416   5.569 -0.2675 -0.0537  0.0388
 4466TIP3    H134813   5.523   0.424   5.664 -1.0245 -2.1034  0.3400
 4466TIP3    H234814   5.592   0.374   5.539 -0.4283 -0.2846 -0.0752
 4467TIP3   OH234815   2.876   4.396  12.252 -0.7396  0.1179 -0.0872
 4467TIP3    H134816   2.903   4.469  12.196  0.1022 -0.2547 -0.1870
 4467TIP3    H234817   2.851   4.437  12.334 -2.0238  0.6780 -0.7301
 4468TIP3   OH234818   1.767   3.152  15.294 -0.5983 -0.1050 -0.2702
 4468TIP3    H134819   1.857   3.177  15.311 -0.6971  0.4383 -0.5213
 4468TIP3    H234820   1.716   3.192  15.364 -0.6792 -0.1831 -0.2826
 4469TIP3   OH234821   1.394   3.395   6.388  0.3467 -0.3451  0.3236
 4469TIP3    H134822   1.394   3.342   6.308 -1.1753 -0.5408  0.4221
 4469TIP3    H234823   1.392   3.330   6.459 -0.3762 -0.1599  0.4724
 4470TIP3   OH234824   1.511   0.778  14.968 -0.0949  0.4092  0.3061
 4470TIP3    H134825   1.455   0.749  15.040 -1.3497 -0.1743 -0.8536
 4470TIP3    H234826   1.562   0.701  14.944  0.1383  0.5294  0.4228
 4471TIP3   OH234827   6.339   4.467  15.457 -0.2060  0.4784 -0.3209
 4471TIP3    H134828   6.257   4.419  15.447 -0.5277  1.3266 -2.1391
 4471TIP3    H234829   6.403   4.417  15.407 -0.1681  1.0606 -0.8672
 4472TIP3   OH234830   5.538   2.756  12.030 -0.2830  0.2438 -0.0607
 4472TIP3    H134831   5.470   2.726  12.090 -1.6025  0.6732 -1.3059
 4472TIP3    H234832   5.524   2.850  12.023 -0.2641  0.1762 -1.1675
 4473TIP3   OH234833   5.304   6.307   0.633 -0.7137  0.2236  0.4028
 4473TIP3    H134834   5.237   6.239   0.632 -0.5205  0.0003 -1.7028
 4473TIP3    H234835   5.374   6.273   0.578  0.1114  1.4480  0.6478
 4474TIP3   OH234836   6.440   3.578   2.837 -0.0320  0.3112 -0.1196
 4474TIP3    H134837   6.486   3.506   2.792  0.5713  0.6266 -0.0223
 4474TIP3    H234838   6.431   3.646   2.771  1.5559  1.0856  0.4056
 4475TIP3   OH234839   4.320   5.222  12.778  0.2004 -0.0070 -0.4116
 4475TIP3    H134840   4.279   5.303  12.748  0.4203  1.1480  2.0949
 4475TIP3    H234841   4.247   5.160  12.787 -0.5447  0.9855  0.7682
 4476TIP3   OH234842   6.185   6.655   3.461  0.2032  0.3260  0.3428
 4476TIP3    H134843   6.195   6.585   3.525 -0.6194 -0.9288 -0.8445
 4476TIP3    H234844   6.091   6.658   3.442  0.5049  0.0067 -1.4658
 4477TIP3   OH234845   0.100   0.091  15.681  0.6571 -0.1275 -0.1586
 4477TIP3    H134846   0.190   0.123  15.673  0.0641  1.6141 -0.4664
 4477TIP3    H234847   0.082   0.095  15.775  0.0869  2.1268 -0.3030
 4478TIP3   OH234848   3.293   4.996  13.882 -0.3458 -0.2996 -0.6619
 4478TIP3    H134849   3.347   4.923  13.913  0.1352 -0.8968 -2.7696
 4478TIP3    H234850   3.313   5.068  13.943 -0.3006 -1.6733  1.0398
 4479TIP3   OH234851   4.134   2.626  15.256 -0.0259 -0.3145 -0.0308
 4479TIP3    H134852   4.174   2.562  15.197  2.5434  0.8054  0.3650
 4479TIP3    H234853   4.054   2.653  15.212  1.1812 -0.4218 -2.4129
 4480TIP3   OH234854   5.497   3.394   0.732 -0.5920  0.2228 -0.2821
 4480TIP3    H134855   5.465   3.439   0.810 -3.3662  0.0841 -1.2084
 4480TIP3    H234856   5.460   3.443   0.659 -0.7667 -1.4655 -1.4041
 4481TIP3   OH234857   4.222   1.778   3.476  0.0644 -0.0409 -0.0670
 4481TIP3    H134858   4.167   1.847   3.514  0.3333 -0.3240  0.8570
 4481TIP3    H234859   4.307   1.789   3.518  0.0537 -1.0615  0.2452
 4482TIP3   OH234860   1.760   3.588   5.311  0.2991  0.1039 -0.4053
 4482TIP3    H134861   1.802   3.566   5.394 -0.8073  2.1021  0.7764
 4482TIP3    H234862   1.832   3.615   5.254  0.8744  1.1815  0.7813
 4483TIP3   OH234863   5.290   3.379   4.102 -0.5362  0.1319 -0.0607
 4483TIP3    H134864   5.290   3.330   4.184  1.0108  1.3880  0.7444
 4483TIP3    H234865   5.197   3.394   4.082 -0.9280 -0.0737  1.5358
 4484TIP3   OH234866   5.284   3.286  14.267  0.1397 -0.1922  0.5774
 4484TIP3    H134867   5.345   3.240  14.209 -0.0168  0.4818 -0.1427
 4484TIP3    H234868   5.317   3.269  14.355 -0.0084 -1.8135  0.3567
 4485TIP3   OH234869   3.161   0.987   5.594 -0.0865 -0.0033  0.2408
 4485TIP3    H134870   3.067   1.004   5.601 -0.4163 -0.5687 -1.9859
 4485TIP3    H234871   3.178   0.989   5.500  1.6779 -2.1415  0.4480
 4486TIP3   OH234872   6.035   4.996   1.900  0.5625 -0.0710 -0.3486
 4486TIP3    H134873   5.964   4.934   1.881  1.6042 -1.8379  1.1650
 4486TIP3    H234874   6.115   4.948   1.877  1.3844  0.9833  0.2117
 4487TIP3   OH234875   6.790   1.445   1.614 -0.3476 -0.5267 -0.7747
 4487TIP3    H134876   6.804   1.499   1.691 -0.5353 -0.7100 -0.6092
 4487TIP3    H234877   6.855   1.474   1.551 -0.7022  0.1678 -0.8314
 4488TIP3   OH234878   5.173   5.945   2.029  0.3226 -0.1438 -0.0578
 4488TIP3    H134879   5.088   5.917   2.062 -0.4777 -1.0460 -2.6575
 4488TIP3    H234880   5.221   5.864   2.012 -0.0158  0.1118 -2.7020
 4489TIP3   OH234881   0.564   2.924   4.798  0.3988 -0.0548 -0.2270
 4489TIP3    H134882   0.553   2.848   4.856 -0.1089  0.4658  0.3675
 4489TIP3    H234883   0.507   2.991   4.835 -0.3957  0.1105 -1.6491
 4490TIP3   OH234884   6.344   5.061  17.045 -0.3021  0.5243  0.7201
 4490TIP3    H134885   6.311   5.151  17.042 -1.8903 -0.0469 -0.2955
 4490TIP3    H234886   6.273   5.011  17.086  0.2298 -0.3996  0.5371
 4491TIP3   OH234887   2.197   2.305   3.991 -0.0593  0.3928  0.6425
 4491TIP3    H134888   2.288   2.286   4.017 -0.2771  0.8717  1.8115
 4491TIP3    H234889   2.195   2.286   3.897  1.2296  0.2895  0.6138
 4492TIP3   OH234890   2.861   2.209  13.525  0.3817  0.4646 -0.4012
 4492TIP3    H134891   2.872   2.114  13.529  0.2286  0.4840  1.1918
 4492TIP3    H234892   2.790   2.223  13.462 -1.6155 -0.6854  1.4606
 4493TIP3   OH234893   1.249   4.375  12.148  0.7144  0.1541 -0.0044
 4493TIP3    H134894   1.155   4.396  12.146  0.5903 -0.3964 -1.9183
 4493TIP3    H234895   1.268   4.360  12.240 -1.1985 -0.2369  0.3760
 4494TIP3   OH234896   0.820   4.272  11.885 -0.5894 -0.0203 -0.0056
 4494TIP3    H134897   0.843   4.184  11.855  0.9387  0.3435 -0.0082
 4494TIP3    H234898   0.887   4.329  11.846  0.5349  0.6975  2.7681
 4495TIP3   OH234899   4.795   0.360   3.026 -0.2564  0.3381 -0.6322
 4495TIP3    H134900   4.827   0.310   3.100 -0.0223  1.4446  0.0426
 4495TIP3    H234901   4.758   0.295   2.966  0.3952 -0.6496  0.0260
 4496TIP3   OH234902   6.491   5.969  15.422  0.0332  0.2806 -0.4397
 4496TIP3    H134903   6.449   5.895  15.465  1.5769 -0.5214 -0.2134
 4496TIP3    H234904   6.469   5.959  15.330 -0.3637 -0.0566 -0.3118
 4497TIP3   OH234905   6.734   4.963  14.490  0.3721  0.2246 -0.1739
 4497TIP3    H134906   6.641   4.979  14.472 -0.0703 -0.8594  0.9967
 4497TIP3    H234907   6.778   4.981  14.407 -0.9488  0.2333 -0.8947
 4498TIP3   OH234908   2.544   4.072  17.158 -0.0812  0.2547  0.2713
 4498TIP3    H134909   2.544   4.045  17.250  0.4114 -0.7955 -0.0200
 4498TIP3    H234910   2.452   4.091  17.139 -0.2485  0.0533  0.8574
 4499TIP3   OH234911   2.512   0.086   2.087 -0.3993 -0.0729 -0.8490
 4499TIP3    H134912   2.488  -0.002   2.115 -2.2906  0.5755 -0.2287
 4499TIP3    H234913   2.607   0.089   2.095 -0.3889 -1.7092  0.1407
 4500TIP3   OH234914   6.172   1.103   3.371 -0.6095 -0.1397  0.5967
 4500TIP3    H134915   6.152   1.195   3.352  1.4716  0.9692  3.1991
 4500TIP3    H234916   6.128   1.085   3.454 -0.4187 -1.2759  0.4644
 4501TIP3   OH234917   5.068   5.510   1.572  0.4220  0.2782  0.0099
 4501TIP3    H134918   5.094   5.421   1.594  0.3443 -0.2195 -1.7285
 4501TIP3    H234919   4.979   5.502   1.538 -0.1835  1.2637  1.2804
 4502TIP3   OH234920   4.840   4.641   2.972 -0.3079 -0.3537 -0.3668
 4502TIP3    H134921   4.825   4.549   2.997 -0.5369  0.4871  3.0749
 4502TIP3    H234922   4.935   4.650   2.971 -0.2790 -0.6726 -0.9664
 4503TIP3   OH234923   5.120   0.243   4.213 -0.3637  0.1656  0.3580
 4503TIP3    H134924   5.206   0.229   4.174 -0.6780 -0.2433 -0.2071
 4503TIP3    H234925   5.119   0.186   4.290  0.3012  1.0563  1.0468
 4504TIP3   OH234926   4.243   1.738  11.501 -0.2178 -0.3485  0.2679
 4504TIP3    H134927   4.186   1.666  11.474 -0.3327 -0.3584  0.5334
 4504TIP3    H234928   4.236   1.801  11.429 -0.6296 -0.3156  0.3316
 4505TIP3   OH234929   0.026   3.590  12.186 -0.6695  0.2529 -0.1101
 4505TIP3    H134930   0.121   3.601  12.191 -0.7468  0.4646  1.7433
 4505TIP3    H234931   0.013   3.505  12.145  0.3484 -0.0356  0.1362
 4506TIP3   OH234932   1.104   6.621   1.281  0.1132 -0.1251 -0.2745
 4506TIP3    H134933   1.133   6.627   1.190  1.2567  1.1660  0.1452
 4506TIP3    H234934   1.181   6.644   1.333 -0.8729  0.4690  0.9815
 4507TIP3   OH234935   0.802   3.312  12.477  0.6937  0.0328 -0.1127
 4507TIP3    H134936   0.748   3.261  12.417  1.3525 -0.7190 -0.0848
 4507TIP3    H234937   0.891   3.281  12.461  1.0566  0.8756  0.2133
 4508TIP3   OH234938   2.491   3.681   0.748  0.5528  0.0684 -0.2619
 4508TIP3    H134939   2.444   3.629   0.683 -0.5903  2.6849 -1.6980
 4508TIP3    H234940   2.422   3.721   0.802  1.3823 -0.0634  0.9407
 4509TIP3   OH234941   3.102   3.324   5.744 -0.2550  0.3307 -0.3689
 4509TIP3    H134942   3.061   3.411   5.745  0.2603  0.5859  0.6610
 4509TIP3    H234943   3.158   3.325   5.667  0.3922  1.2421  0.0874
 4510TIP3   OH234944   6.653   0.088   4.030 -0.3639 -0.0152 -0.1609
 4510TIP3    H134945   6.590   0.036   3.979  1.5653 -2.0600 -0.6336
 4510TIP3    H234946   6.649   0.174   3.990 -0.9454 -0.8128 -1.9603
 4511TIP3   OH234947   0.174   4.135  11.845  0.3167  0.0723  0.3028
 4511TIP3    H134948   0.244   4.074  11.869  1.4085  0.6634 -1.2804
 4511TIP3    H234949   0.148   4.174  11.929  0.9954 -1.0556  1.0836
 4512TIP3   OH234950   4.130   3.959  10.900 -0.0703  0.2416  0.5245
 4512TIP3    H134951   4.083   4.035  10.867  0.8975  0.4915 -0.3223
 4512TIP3    H234952   4.149   3.980  10.992 -1.5761  0.1324  0.8793
 4513TIP3   OH234953   4.440   3.164   1.155 -0.0866  0.3010 -0.1953
 4513TIP3    H134954   4.351   3.139   1.179 -0.0840 -1.7376 -1.9505
 4513TIP3    H234955   4.454   3.123   1.070  2.2993  1.1661 -0.3011
 4514TIP3   OH234956   1.100   3.133   0.917  0.0321 -0.6094  0.1551
 4514TIP3    H134957   1.057   3.047   0.911 -0.3824 -0.4000  0.0462
 4514TIP3    H234958   1.177   3.125   0.862 -0.2542 -0.7682 -0.2275
 4515TIP3   OH234959   1.834   1.344  11.841 -0.0061  0.4344 -0.2538
 4515TIP3    H134960   1.905   1.305  11.893 -1.1966 -0.9811  0.3772
 4515TIP3    H234961   1.835   1.436  11.866  2.2936  0.7030 -1.0796
 4516TIP3   OH234962   6.101   5.366   3.317 -0.1012 -0.1859  0.3540
 4516TIP3    H134963   6.038   5.333   3.253  0.2407  0.6173 -0.4093
 4516TIP3    H234964   6.092   5.307   3.392 -0.7165 -0.9582 -0.3136
 4517TIP3   OH234965   4.383   2.958  14.072  0.1451 -0.6590 -0.0164
 4517TIP3    H134966   4.342   2.879  14.035 -1.6033  0.1223  0.1419
 4517TIP3    H234967   4.417   2.929  14.157  1.4029 -1.7193 -0.8465
 4518TIP3   OH234968   1.549   3.845   0.936 -0.0446  0.8486  0.4825
 4518TIP3    H134969   1.578   3.918   0.992 -0.2305  0.9268  0.4784
 4518TIP3    H234970   1.458   3.829   0.964  0.1504  0.2966  0.8224
 4519TIP3   OH234971   4.132   5.614  10.627 -0.2812 -0.3379 -0.5813
 4519TIP3    H134972   4.062   5.625  10.562 -1.4284  0.4662  0.7375
 4519TIP3    H234973   4.098   5.549  10.688  0.4176 -0.4306 -0.2852
 4520TIP3   OH234974   4.645   1.572  15.589  0.0164 -0.1808 -0.0478
 4520TIP3    H134975   4.737   1.546  15.583  0.3135  1.0115 -1.1233
 4520TIP3    H234976   4.597   1.505  15.540  0.0915 -1.7029  1.8805
 4521TIP3   OH234977   2.726   1.228  12.146 -0.7932  0.2201 -0.3066
 4521TIP3    H134978   2.722   1.174  12.225 -1.7080  0.6130 -0.0674
 4521TIP3    H234979   2.724   1.318  12.178  0.5913  0.4141 -0.7063
 4522TIP3   OH234980   0.596   3.773  14.309 -0.5466 -0.7651 -0.4881
 4522TIP3    H134981   0.516   3.792  14.358  0.3713  0.6208  0.5485
 4522TIP3    H234982   0.658   3.742  14.375  0.6379  0.8912 -0.7651
 4523TIP3   OH234983   5.401   3.714   1.174  0.2894 -0.0666 -0.0267
 4523TIP3    H134984   5.324   3.658   1.186  0.3682  0.0109  0.9280
 4523TIP3    H234985   5.366   3.798   1.145  0.2614 -0.9797 -2.9728
 4524TIP3   OH234986   5.719   3.144  11.333 -0.3416  0.1035  0.4776
 4524TIP3    H134987   5.787   3.087  11.299  0.6649  2.0247 -0.9346
 4524TIP3    H234988   5.703   3.112  11.422  1.0826 -1.5199  0.1980
 4525TIP3   OH234989   1.370   5.111   3.305  0.2564 -0.1291  0.2244
 4525TIP3    H134990   1.449   5.150   3.269 -0.2096  1.0538  0.4417
 4525TIP3    H234991   1.394   5.020   3.324  1.3561  0.0392 -0.3200
 4526TIP3   OH234992   1.662   2.000   3.965 -0.1582 -0.5248  0.2246
 4526TIP3    H134993   1.710   2.080   3.986 -0.3223 -0.5331  0.6443
 4526TIP3    H234994   1.704   1.932   4.018 -1.2863 -0.3376  1.4414
 4527TIP3   OH234995   1.538   1.293  16.565  0.0905  0.2915 -0.7392
 4527TIP3    H134996   1.588   1.266  16.488  2.0284 -0.7742  0.8204
 4527TIP3    H234997   1.572   1.239  16.636 -3.2844 -0.5071  0.4705
 4528TIP3   OH234998   3.268   4.245  12.194 -0.0528 -0.0221  0.3201
 4528TIP3    H134999   3.177   4.233  12.223  0.1277 -0.7387  0.6136
 4528TIP3    H235000   3.270   4.334  12.159 -1.0146 -0.1850 -0.2078
 4529TIP3   OH235001   5.827   4.728  16.870 -0.5672  0.1131 -0.1930
 4529TIP3    H135002   5.760   4.766  16.928 -0.1434  2.5657 -1.1993
 4529TIP3    H235003   5.903   4.715  16.927  0.1090  3.2241 -0.2284
 4530TIP3   OH235004   5.212   5.343   3.408  0.5753  0.2680  0.3410
 4530TIP3    H135005   5.130   5.335   3.456  1.2028 -0.8928  1.2999
 4530TIP3    H235006   5.276   5.367   3.475  1.1483  0.4535 -0.2614
 4531TIP3   OH235007   6.516   5.135   4.917  0.8181 -0.0566  0.0423
 4531TIP3    H135008   6.508   5.225   4.948  0.7571 -0.0617  0.0405
 4531TIP3    H235009   6.507   5.141   4.822 -2.3888 -0.4191  0.2167
 4532TIP3   OH235010   0.511   5.463  11.741 -0.5165 -0.2854  0.0554
 4532TIP3    H135011   0.566   5.540  11.756  0.7287 -0.8414 -1.3395
 4532TIP3    H235012   0.574   5.391  11.729 -1.2917 -0.4701 -4.3679
 4533TIP3   OH235013   6.278   5.600   0.598  0.3823  0.0646 -0.4081
 4533TIP3    H135014   6.289   5.695   0.596  2.0177 -0.0754 -0.0729
 4533TIP3    H235015   6.354   5.567   0.549 -0.0866 -1.0699 -0.3975
 4534TIP3   OH235016   4.301   1.453  12.770 -0.7267  0.4179 -0.0687
 4534TIP3    H135017   4.259   1.432  12.854 -0.8712 -0.7942 -0.4183
 4534TIP3    H235018   4.390   1.480  12.792  0.0672 -2.2754  0.3666
 4535TIP3   OH235019   2.351   0.254  15.977 -0.2563  0.3720 -0.3676
 4535TIP3    H135020   2.371   0.336  15.931  0.9299  0.1508 -0.2680
 4535TIP3    H235021   2.274   0.220  15.931  0.0558  0.8613 -1.2941
 4536TIP3   OH235022   1.019   4.614  13.323  0.1584 -0.0656  0.3256
 4536TIP3    H135023   0.978   4.598  13.408 -0.6324  2.2209  0.4381
 4536TIP3    H235024   0.989   4.701  13.297  1.2062 -0.2655 -1.8347
 4537TIP3   OH235025   5.201   1.310  12.211  0.3858 -0.0906  0.3327
 4537TIP3    H135026   5.150   1.273  12.283  0.2502 -0.1811  0.1884
 4537TIP3    H235027   5.181   1.404  12.214  1.7807  0.2105  1.5611
 4538TIP3   OH235028   3.947   6.076   5.444  0.1960  0.1471 -0.0700
 4538TIP3    H135029   4.009   6.020   5.491  0.4183  0.7981  0.4285
 4538TIP3    H235030   3.877   6.018   5.417  0.1314 -0.2623  0.9579
 4539TIP3   OH235031   2.974   5.117   5.488 -0.5275  0.6027 -0.2293
 4539TIP3    H135032   2.884   5.150   5.496 -0.0458  2.1456 -0.6996
 4539TIP3    H235033   3.024   5.171   5.550  0.0455 -0.3743  0.1680
 4540TIP3   OH235034   3.809   4.642  15.691 -0.0655  1.1951  0.4130
 4540TIP3    H135035   3.808   4.595  15.774 -0.4887  1.5035  0.5859
 4540TIP3    H235036   3.761   4.723  15.708 -1.6463  0.5149 -0.5608
 4541TIP3   OH235037   6.057   1.734  13.643 -0.6751  0.0848  0.3131
 4541TIP3    H135038   6.073   1.743  13.548  0.6700 -1.4953  0.3399
 4541TIP3    H235039   6.144   1.748  13.682 -1.2505  0.8823  1.3522
 4542TIP3   OH235040   4.822   5.477  11.624  0.0866  0.1677 -0.1699
 4542TIP3    H135041   4.803   5.522  11.541  0.0378 -0.3528 -0.4488
 4542TIP3    H235042   4.737   5.444  11.653  0.4004 -1.4765 -1.0080
 4543TIP3   OH235043   3.529   3.516  14.745 -0.5082  0.8820  0.1830
 4543TIP3    H135044   3.466   3.587  14.749 -0.5716  0.8429 -0.1416
 4543TIP3    H235045   3.613   3.559  14.728 -0.5788  0.8627 -0.2195
 4544TIP3   OH235046   6.487   3.226   3.719  0.0338 -0.2556 -0.2258
 4544TIP3    H135047   6.549   3.180   3.776  0.4258 -0.5109 -0.8597
 4544TIP3    H235048   6.408   3.235   3.773  1.0217  1.2351  1.0702
 4545TIP3   OH235049   1.129   1.095  15.010  0.3503  0.1579  0.1065
 4545TIP3    H135050   1.185   1.167  15.038 -0.7577  0.9341  0.4179
 4545TIP3    H235051   1.123   1.038  15.087 -0.9835  1.1938  0.8236
 4546TIP3   OH235052   3.315   3.334   5.190  0.2045 -0.0748  0.1475
 4546TIP3    H135053   3.382   3.321   5.257  2.0404  1.0762 -1.3687
 4546TIP3    H235054   3.293   3.245   5.161  1.3597 -0.4682  0.4355
 4547TIP3   OH235055   3.036   6.784  16.105  0.7666 -0.0979 -0.5207
 4547TIP3    H135056   3.033   6.712  16.168 -1.4927  0.3325 -0.0593
 4547TIP3    H235057   3.097   6.754  16.038  2.5753 -0.9414  1.3772
 4548TIP3   OH235058   0.435   4.927   3.718 -0.1538 -0.0299  0.2782
 4548TIP3    H135059   0.443   5.003   3.775  0.7837 -0.5800  0.9076
 4548TIP3    H235060   0.435   4.852   3.777 -0.7443 -0.5427 -0.3533
 4549TIP3   OH235061   6.047   4.071  15.830 -0.0213 -0.6655  0.2970
 4549TIP3    H135062   5.983   4.066  15.759  0.2598  0.8582 -0.1063
 4549TIP3    H235063   6.018   4.005  15.893 -1.3079 -0.8197 -0.4167
 4550TIP3   OH235064   1.782   2.296  11.790  0.1345  0.6678 -0.9815
 4550TIP3    H135065   1.714   2.270  11.852  1.1004  0.2895 -0.0580
 4550TIP3    H235066   1.754   2.383  11.759  0.0200  1.2073  0.5533
 4551TIP3   OH235067   2.693   5.443   5.636  0.3457 -0.1699  0.3000
 4551TIP3    H135068   2.642   5.426   5.715  1.1246  0.8943  1.0525
 4551TIP3    H235069   2.662   5.527   5.604  0.7187 -0.1327  0.0274
 4552TIP3   OH235070   3.564   3.112   4.207  0.1617 -0.5278 -0.1285
 4552TIP3    H135071   3.469   3.110   4.220 -0.0313 -0.9457 -1.4743
 4552TIP3    H235072   3.578   3.188   4.149  0.9763  1.2548  2.2482
 4553TIP3   OH235073   0.332   3.692   4.968 -0.1029 -0.1401 -0.4421
 4553TIP3    H135074   0.241   3.720   4.965 -0.7442 -1.8514  1.2384
 4553TIP3    H235075   0.366   3.710   4.881 -2.0926  0.3423 -1.1597
 4554TIP3   OH235076   0.465   6.740  11.840 -0.7735 -0.1514 -0.2912
 4554TIP3    H135077   0.512   6.657  11.837  0.5081  0.5304  0.1688
 4554TIP3    H235078   0.494   6.781  11.921 -0.7657  1.1060 -0.9030
 4555TIP3   OH235079   2.984   0.121   5.185  0.3012 -0.4796  0.2362
 4555TIP3    H135080   3.009   0.042   5.233  0.2282  0.7078  2.3505
 4555TIP3    H235081   3.054   0.134   5.121 -0.3407 -2.9276 -1.0678
 4556TIP3   OH235082   2.640   0.695  12.690 -0.2839  0.1475 -0.7299
 4556TIP3    H135083   2.614   0.674  12.780 -1.9702  0.3900 -1.1154
 4556TIP3    H235084   2.686   0.616  12.660  0.3244  0.0736  0.3317
 4557TIP3   OH235085   3.353   0.907  12.144  0.0665  0.1428  0.4542
 4557TIP3    H135086   3.383   0.917  12.053  1.9188 -1.1525  0.8558
 4557TIP3    H235087   3.431   0.926  12.196 -0.3811 -1.2213  1.6690
 4558TIP3   OH235088   0.827   0.280   5.976  0.0049 -0.3840 -0.0073
 4558TIP3    H135089   0.774   0.357   5.995  0.2059 -0.3514  0.4411
 4558TIP3    H235090   0.833   0.234   6.060 -2.4322 -2.3577 -0.7712
 4559TIP3   OH235091   1.491   0.573  11.097  0.3136 -0.0801  0.3010
 4559TIP3    H135092   1.513   0.666  11.103 -1.7990  0.4431  0.7174
 4559TIP3    H235093   1.560   0.528  11.146  1.8010  1.1681 -0.5631
 4560TIP3   OH235094   4.992   3.325   0.154 -0.1367 -0.1225  0.4092
 4560TIP3    H135095   4.970   3.258   0.219 -1.2900 -0.8004 -0.6307
 4560TIP3    H235096   5.037   3.277   0.084 -0.1978  0.3301  0.0525
 4561TIP3   OH235097   0.970   0.945  12.704 -0.6595 -0.0233  0.1702
 4561TIP3    H135098   0.919   1.003  12.648 -0.8875 -1.2791 -0.9808
 4561TIP3    H235099   1.058   0.944  12.665 -0.8257 -0.9244 -0.2143
 4562TIP3   OH235100   3.943   5.983   0.833  0.6219  0.1523  0.0577
 4562TIP3    H135101   3.974   5.909   0.886 -0.1736 -0.4605 -0.3066
 4562TIP3    H235102   4.018   6.042   0.828  0.6462  0.3830  2.1413
 4563TIP3   OH235103   5.295   0.402  11.685 -0.3921 -0.6053 -0.3318
 4563TIP3    H135104   5.257   0.327  11.640 -2.2433  1.9450 -3.3800
 4563TIP3    H235105   5.246   0.408  11.767 -0.2720 -2.5702 -0.0629
 4564TIP3   OH235106   0.154   3.649  13.008  0.5763 -0.1396 -0.7364
 4564TIP3    H135107   0.147   3.631  12.914 -0.8146  0.4710 -0.7686
 4564TIP3    H235108   0.232   3.600  13.036  1.3887  0.1694 -2.3232
 4565TIP3   OH235109   1.511   6.419   3.099 -0.3850  0.2057  0.1899
 4565TIP3    H135110   1.529   6.470   3.177  0.3192 -1.2896  1.0443
 4565TIP3    H235111   1.420   6.392   3.109 -0.2343 -0.1602  0.6143
 4566TIP3   OH235112   6.333   5.533   0.862 -0.0358  0.3333 -0.4372
 4566TIP3    H135113   6.405   5.472   0.879 -1.0311 -0.7658  0.0121
 4566TIP3    H235114   6.340   5.552   0.768 -0.1563 -1.1295 -0.7717
 4567TIP3   OH235115   0.788   2.805  14.399 -0.0980  0.8253  0.4310
 4567TIP3    H135116   0.717   2.745  14.379  0.8669 -0.0550 -0.4989
 4567TIP3    H235117   0.754   2.892  14.378 -1.1979  0.5303  0.9147
 4568TIP3   OH235118   0.429   1.235   3.665 -0.2245  0.4997 -0.0522
 4568TIP3    H135119   0.472   1.251   3.581 -0.5704  0.2719 -0.2737
 4568TIP3    H235120   0.458   1.148   3.691 -0.0487  0.6050  0.1095
 4569TIP3   OH235121   5.366   0.739   3.436  0.1493  0.2262  0.0215
 4569TIP3    H135122   5.398   0.661   3.390 -1.0101  0.1142 -0.6202
 4569TIP3    H235123   5.377   0.719   3.529  2.7141  0.5275 -0.1436
 4570TIP3   OH235124   6.627   4.862  11.321 -0.2928  0.2906  0.1704
 4570TIP3    H135125   6.585   4.830  11.241 -1.3853 -1.7231  1.4375
 4570TIP3    H235126   6.592   4.805  11.390  1.1794  1.4589  1.9776
 4571TIP3   OH235127   2.288   6.223   5.653  0.2563 -0.1649  0.3589
 4571TIP3    H135128   2.193   6.230   5.661  0.2650 -0.5038  0.7794
 4571TIP3    H235129   2.315   6.305   5.612 -0.2975 -0.3846 -0.4765
 4572TIP3   OH235130   4.807   3.643  15.027  0.0849 -0.2992 -0.1241
 4572TIP3    H135131   4.785   3.667  14.937  1.2269  0.0588 -0.3257
 4572TIP3    H235132   4.795   3.723  15.078  1.1722 -0.0104 -0.2941
 4573TIP3   OH235133   6.063   1.950   2.649 -0.1449 -0.7719 -0.9966
 4573TIP3    H135134   5.995   1.885   2.632 -2.3676  0.9388  0.8593
 4573TIP3    H235135   6.021   2.034   2.634  1.8556  0.3623 -0.6900
 4574TIP3   OH235136   2.229   2.892   6.131  0.6964  0.1265 -0.0493
 4574TIP3    H135137   2.307   2.917   6.081  0.3095  0.9463 -0.2618
 4574TIP3    H235138   2.240   2.935   6.216  0.5414  0.1306 -0.0309
 4575TIP3   OH235139   5.223   3.311  16.684  0.3183 -0.7772  0.2105
 4575TIP3    H135140   5.160   3.351  16.745  0.5980  0.9284 -0.5612
 4575TIP3    H235141   5.299   3.291  16.738  0.7644  1.1874  0.3965
 4576TIP3   OH235142   4.888   2.054   5.301 -0.3644  0.2322 -0.2679
 4576TIP3    H135143   4.834   2.103   5.239  1.7894  1.0052 -1.6049
 4576TIP3    H235144   4.889   1.965   5.267 -1.0302  0.1309 -0.0457
 4577TIP3   OH235145   2.799   4.751  13.009  0.0753  0.3082  0.0675
 4577TIP3    H135146   2.764   4.752  12.920  0.7312  0.4680 -0.1960
 4577TIP3    H235147   2.747   4.686  13.055 -0.2929  0.2534 -0.4239
 4578TIP3   OH235148   0.737   2.925  16.424  0.3964  0.1219 -0.8016
 4578TIP3    H135149   0.718   2.985  16.496 -0.5237  0.2744 -1.1576
 4578TIP3    H235150   0.682   2.955  16.352  0.4414 -0.7235 -1.2085
 4579TIP3   OH235151   5.950   3.432  16.950 -0.2669  0.2466 -0.3896
 4579TIP3    H135152   6.038   3.397  16.945 -0.6295 -0.7901  0.1757
 4579TIP3    H235153   5.959   3.523  16.923  0.8319 -0.0570 -1.1210
 4580TIP3   OH235154   1.814   0.069   1.277  0.4404 -0.1598 -0.4109
 4580TIP3    H135155   1.720   0.055   1.286  0.8515 -2.1989  1.7433
 4580TIP3    H235156   1.836   0.129   1.349  0.9348 -0.5251 -0.2575
 4581TIP3   OH235157   5.450   5.461   3.583  0.3195  0.1294 -0.3749
 4581TIP3    H135158   5.402   5.543   3.594  2.2216  1.5157 -1.6986
 4581TIP3    H235159   5.526   5.470   3.639 -0.7947 -1.9990  1.6233
 4582TIP3   OH235160   0.171   5.508   3.149 -0.3455 -0.4512 -0.7268
 4582TIP3    H135161   0.110   5.476   3.082 -0.1518  3.0955 -2.8555
 4582TIP3    H235162   0.252   5.460   3.132 -0.4415  0.0103 -2.8486
 4583TIP3   OH235163   2.899   1.302   2.840 -0.0762  0.1653  0.3167
 4583TIP3    H135164   2.827   1.311   2.902  1.2821  0.1413  1.9651
 4583TIP3    H235165   2.956   1.376   2.858  0.9232 -0.4762 -0.1146
 4584TIP3   OH235166   1.598   5.699  12.583 -0.1032  0.0962 -0.2384
 4584TIP3    H135167   1.583   5.623  12.528  0.0931  0.2323 -0.4844
 4584TIP3    H235168   1.557   5.771  12.536 -1.0654 -0.0026  0.4221
 4585TIP3   OH235169   5.470   4.414  15.008 -0.2191 -0.6035 -0.6159
 4585TIP3    H135170   5.440   4.334  14.964 -2.3204 -0.2937  0.1284
 4585TIP3    H235171   5.460   4.482  14.942 -1.2146 -0.5079 -0.3836
 4586TIP3   OH235172   3.829   1.447   1.129 -0.4749 -0.6926 -0.5625
 4586TIP3    H135173   3.904   1.417   1.181 -1.0543 -1.4719 -0.1520
 4586TIP3    H235174   3.772   1.491   1.193 -0.2667  0.1038 -0.9149
 4587TIP3   OH235175   2.257   5.532  11.273 -0.1950 -0.3265  0.1988
 4587TIP3    H135176   2.288   5.444  11.292 -0.6529 -1.1733 -2.4869
 4587TIP3    H235177   2.166   5.520  11.246 -0.6196  1.1333  0.8682
 4588TIP3   OH235178   6.782   0.948   4.199  0.2053  0.2380 -0.7823
 4588TIP3    H135179   6.871   0.913   4.195  0.3766  0.4803  0.5016
 4588TIP3    H235180   6.736   0.892   4.262 -0.1165  1.0072 -0.3083
 4589TIP3   OH235181   1.986   2.248   2.218  0.0151  0.0800 -0.2585
 4589TIP3    H135182   2.021   2.221   2.303 -1.9710 -2.7806 -0.1937
 4589TIP3    H235183   1.938   2.171   2.186 -1.4776  1.8911 -2.8062
 4590TIP3   OH235184   4.396   5.613  16.340 -0.1100 -0.3187 -0.4931
 4590TIP3    H135185   4.329   5.562  16.294 -1.3983  1.4444 -0.6589
 4590TIP3    H235186   4.468   5.619  16.278 -1.3324  0.9683 -1.8958
 4591TIP3   OH235187   5.262   1.821   4.037 -0.3025 -0.6776 -0.0673
 4591TIP3    H135188   5.193   1.856   4.092  0.1995 -2.0976  1.5477
 4591TIP3    H235189   5.343   1.845   4.082  0.2094 -0.4562 -1.0676
 4592TIP3   OH235190   6.091   2.601  12.854  0.0595  0.3822  0.4734
 4592TIP3    H135191   6.028   2.552  12.907  0.0821  1.9532  2.0346
 4592TIP3    H235192   6.089   2.690  12.889  2.6214  0.6821  0.1067
 4593TIP3   OH235193   1.425   4.769  14.569 -0.2939  0.1880  0.2160
 4593TIP3    H135194   1.340   4.740  14.536 -0.6072  1.9393 -0.6264
 4593TIP3    H235195   1.410   4.861  14.595  1.3811  0.5898 -0.1622
 4594TIP3   OH235196   5.593   3.737  11.892  0.3883 -0.2197 -0.1517
 4594TIP3    H135197   5.648   3.675  11.844 -0.6312 -0.9179 -0.4533
 4594TIP3    H235198   5.538   3.683  11.949  1.8979  0.6039  2.2374
 4595TIP3   OH235199   5.658   5.568   2.332 -0.3456 -0.4159 -0.1496
 4595TIP3    H135200   5.570   5.577   2.294 -0.1929 -0.0717 -0.4284
 4595TIP3    H235201   5.692   5.487   2.294 -0.4429 -0.4151 -0.2389
 4596TIP3   OH235202   2.181   2.708   2.023  0.0336 -0.3554 -0.2889
 4596TIP3    H135203   2.174   2.800   1.998 -1.3915 -0.1937  0.5770
 4596TIP3    H235204   2.104   2.692   2.077 -1.1108 -2.7184 -2.4043
 4597TIP3   OH235205   4.678   5.813   2.753  1.0999 -0.0744 -0.0415
 4597TIP3    H135206   4.596   5.798   2.801  1.0633 -0.1332 -0.1231
 4597TIP3    H235207   4.715   5.891   2.794  0.1023  1.0461 -1.1906
 4598TIP3   OH235208   2.722   4.150  10.090 -0.0700  0.4339  0.5698
 4598TIP3    H135209   2.784   4.092  10.134 -1.0764 -0.0552  1.3823
 4598TIP3    H235210   2.637   4.126  10.125 -0.7518  1.0231 -0.6040
 4599TIP3   OH235211   0.061   5.233   6.329 -0.3772 -0.5305  0.3540
 4599TIP3    H135212   0.110   5.314   6.312 -1.4516 -0.0267 -0.4222
 4599TIP3    H235213   0.068   5.221   6.424 -0.4303  0.6285  0.5223
 4600TIP3   OH235214   6.419   6.367  12.591  0.2297  0.1858  0.1211
 4600TIP3    H135215   6.431   6.459  12.571  3.6802 -0.3802 -1.1390
 4600TIP3    H235216   6.501   6.326  12.565 -1.1539 -3.2710  0.6419
 4601TIP3   OH235217   4.436   1.562   2.430 -0.1992  0.0423  0.2485
 4601TIP3    H135218   4.514   1.550   2.485  0.6743 -0.5248 -1.0509
 4601TIP3    H235219   4.467   1.614   2.357 -1.6398  1.8498  0.8665
 4602TIP3   OH235220   2.870   3.465  12.328  0.2577 -0.5865 -0.1275
 4602TIP3    H135221   2.829   3.547  12.302  2.0477  0.3492 -0.1327
 4602TIP3    H235222   2.814   3.397  12.289 -0.6448  0.6369 -1.0466
 4603TIP3   OH235223   5.714   1.736  13.108  0.7232  0.0710 -0.7143
 4603TIP3    H135224   5.686   1.649  13.134  0.0309 -0.8913 -4.2204
 4603TIP3    H235225   5.787   1.756  13.166 -0.4515 -1.8570  1.6112
 4604TIP3   OH235226   3.337   0.430  12.929 -0.5327 -0.2149 -0.0749
 4604TIP3    H135227   3.343   0.340  12.960 -0.3956 -0.0422  0.4113
 4604TIP3    H235228   3.397   0.479  12.986 -2.5549  0.6581  1.4192
 4605TIP3   OH235229   2.495   6.292  12.976  0.0849 -0.3632 -0.7829
 4605TIP3    H135230   2.526   6.376  12.943  0.2984  0.4421  1.2961
 4605TIP3    H235231   2.438   6.315  13.050  0.1221 -2.0350 -0.1937
 4606TIP3   OH235232   4.427   2.200   0.721  0.5664 -0.3146  0.6798
 4606TIP3    H135233   4.458   2.157   0.641 -0.2203  1.4397 -0.6365
 4606TIP3    H235234   4.493   2.266   0.741  0.9499 -0.9820  1.7512
 4607TIP3   OH235235   3.160   5.913   5.261  0.2877  0.3289  0.1149
 4607TIP3    H135236   3.112   5.975   5.206  0.4816 -0.2405 -0.7263
 4607TIP3    H235237   3.128   5.928   5.349 -0.2876  1.0309 -0.2055
 4608TIP3   OH235238   1.268   6.171  13.146  0.3638  0.4600  0.0390
 4608TIP3    H135239   1.305   6.251  13.185 -1.7490  1.5584 -0.0615
 4608TIP3    H235240   1.296   6.174  13.055  0.7427  0.8145  0.1625
 4609TIP3   OH235241   1.472   0.546   2.776 -0.2929 -0.1558  0.0206
 4609TIP3    H135242   1.412   0.582   2.841  0.8383  0.7863  0.5795
 4609TIP3    H235243   1.509   0.468   2.817 -0.3603 -0.1484  0.0947
 4610TIP3   OH235244   6.106   2.625  10.933  0.1350 -0.0220 -0.3480
 4610TIP3    H135245   6.047   2.679  10.881  0.5268  1.8221  1.0269
 4610TIP3    H235246   6.162   2.688  10.978  0.8580 -1.6055  1.0546
 4611TIP3   OH235247   3.385   3.897  11.298  0.0590  0.1699  0.0834
 4611TIP3    H135248   3.324   3.843  11.348 -1.3747  1.9339  0.3859
 4611TIP3    H235249   3.447   3.835  11.259 -2.0982 -1.7794 -0.4746
 4612TIP3   OH235250   0.827   0.488  13.118  0.1849  0.3013 -0.1441
 4612TIP3    H135251   0.776   0.476  13.197  1.8974  0.4314  1.0423
 4612TIP3    H235252   0.770   0.458  13.047 -1.5339  0.5600  1.0722
 4613TIP3   OH235253   0.146   1.133   4.700 -0.1697  0.3788 -0.0954
 4613TIP3    H135254   0.234   1.145   4.737 -0.4352  2.1628  0.0771
 4613TIP3    H235255   0.102   1.216   4.719 -1.7615 -0.3427 -0.5385
 4614TIP3   OH235256   0.689   3.724  16.718 -0.4086  0.0510 -0.4443
 4614TIP3    H135257   0.601   3.723  16.680 -0.9754  1.5885  0.7231
 4614TIP3    H235258   0.678   3.767  16.803  0.9338 -2.5600  1.1803
 4615TIP3   OH235259   0.072   1.645   5.105  0.3245 -0.2865  0.2165
 4615TIP3    H135260   0.130   1.598   5.165  0.8546  1.8379  1.4781
 4615TIP3    H235261   0.087   1.604   5.020  0.7111 -2.3695  1.2211
 4616TIP3   OH235262   1.549   1.243   6.034 -0.6554  0.0373 -0.1382
 4616TIP3    H135263   1.460   1.242   5.996 -0.6750 -0.6786 -0.0889
 4616TIP3    H235264   1.606   1.259   5.959 -0.7836 -0.0969 -0.2659
 4617TIP3   OH235265   4.808   4.800   4.042  0.1089 -0.0456  0.0779
 4617TIP3    H135266   4.863   4.743   3.988 -0.4874 -0.4210 -0.1317
 4617TIP3    H235267   4.867   4.871   4.068  0.7411 -0.5250 -0.0153
 4618TIP3   OH235268   3.844   4.744   4.775  0.1085 -0.1573  0.8951
 4618TIP3    H135269   3.911   4.708   4.833  1.3453 -0.0040 -0.4027
 4618TIP3    H235270   3.818   4.672   4.719  0.9570  0.3688 -0.2070
 4619TIP3   OH235271   3.403   6.047  15.199 -0.2721 -0.2624 -0.2787
 4619TIP3    H135272   3.484   5.997  15.204 -0.0382  0.1020 -0.3788
 4619TIP3    H235273   3.431   6.138  15.195 -0.5826 -0.2140 -2.7627
 4620TIP3   OH235274   5.754   0.903  13.572  0.0488 -0.3776 -0.4590
 4620TIP3    H135275   5.802   0.972  13.617 -2.5387  0.7269  0.7941
 4620TIP3    H235276   5.710   0.948  13.499 -1.1085 -0.7888 -0.0396
 4621TIP3   OH235277   1.238   0.026   0.889 -0.3253  0.5655  0.1079
 4621TIP3    H135278   1.290   0.091   0.842 -1.6526  1.2509 -0.4681
 4621TIP3    H235279   1.161   0.074   0.920  0.5866  0.2116  3.2394
 4622TIP3   OH235280   6.246   6.334  13.964 -0.1764  0.2331 -0.0497
 4622TIP3    H135281   6.249   6.323  13.869 -1.6196 -0.4175 -0.0474
 4622TIP3    H235282   6.157   6.309  13.988 -0.2276  1.5944  1.3319
 4623TIP3   OH235283   3.651   2.981   3.546 -0.7160 -0.0177  0.1810
 4623TIP3    H135284   3.651   2.972   3.641  0.5741  0.9758  0.2958
 4623TIP3    H235285   3.730   2.937   3.517 -1.5188 -1.0361 -0.5390
 4624TIP3   OH235286   0.913   3.796   2.294 -0.6054 -0.0510  0.5798
 4624TIP3    H135287   0.964   3.726   2.335  3.0200  2.3180  0.5293
 4624TIP3    H235288   0.857   3.829   2.365  0.6033 -0.4032  1.7347
 4625TIP3   OH235289   3.045   5.887  12.399  0.6400  0.2270  0.1772
 4625TIP3    H135290   3.127   5.870  12.353  0.0033  1.4515 -1.5141
 4625TIP3    H235291   2.987   5.817  12.370  1.0262 -0.5999  1.3211
 4626TIP3   OH235292   1.489   6.524  15.703 -0.2061  0.5830  0.1011
 4626TIP3    H135293   1.500   6.571  15.785  1.7391 -1.5719  1.2023
 4626TIP3    H235294   1.578   6.506  15.674 -0.8609 -1.0295 -1.0430
 4627TIP3   OH235295   4.214   4.838   1.861  0.1630  0.2455  0.0156
 4627TIP3    H135296   4.151   4.904   1.891 -0.5692 -1.0830  1.5462
 4627TIP3    H235297   4.223   4.854   1.767 -2.7662  0.2771 -0.3601
 4628TIP3   OH235298   6.211   5.951   1.864  0.1448  0.2037  0.4930
 4628TIP3    H135299   6.277   5.951   1.933 -0.2298  1.6768  0.8735
 4628TIP3    H235300   6.198   5.858   1.844 -0.9124 -0.4096  3.5338
 4629TIP3   OH235301   4.171   0.644  16.871  0.1840 -0.5624 -0.3965
 4629TIP3    H135302   4.091   0.661  16.921  0.0277 -0.2519 -0.7416
 4629TIP3    H235303   4.230   0.602  16.934  0.0769  0.0345  0.1162
 4630TIP3   OH235304   3.177   2.941   0.318 -0.0171 -0.4704 -0.0577
 4630TIP3    H135305   3.176   2.863   0.262  1.4352  1.4629 -3.0427
 4630TIP3    H235306   3.270   2.956   0.335 -0.2440  0.7995  0.1097
 4631TIP3   OH235307   4.776   3.081  14.260 -0.6650  0.0470 -0.2341
 4631TIP3    H135308   4.740   3.059  14.174 -2.7357 -1.1324  0.8235
 4631TIP3    H235309   4.754   3.173  14.273  0.8249  0.6057 -1.4535
 4632TIP3   OH235310   2.729   6.009  12.536 -0.8656 -0.6007  0.4032
 4632TIP3    H135311   2.804   6.050  12.579 -0.4381 -0.5173 -0.4015
 4632TIP3    H235312   2.680   5.969  12.607  0.7143 -1.9044  0.8258
 4633TIP3   OH235313   3.812   0.390  11.381  0.1043  0.2962 -0.0501
 4633TIP3    H135314   3.906   0.400  11.399  0.2278 -0.3970 -0.2709
 4633TIP3    H235315   3.807   0.380  11.285 -0.0894 -0.6837  0.0549
 4634TIP3   OH235316   3.702   0.342  12.285 -0.2413 -0.0603  0.1195
 4634TIP3    H135317   3.791   0.325  12.254  0.2516  0.1947  1.3199
 4634TIP3    H235318   3.654   0.372  12.208  0.1829 -2.0427 -0.9784
 4635TIP3   OH235319   5.582   4.662  12.655 -0.1198  0.0697  0.4001
 4635TIP3    H135320   5.657   4.719  12.668  0.9086 -0.9896 -0.6494
 4635TIP3    H235321   5.590   4.631  12.565 -1.7469 -0.1972  0.3024
 4636TIP3   OH235322   4.262   0.863   3.061  0.0431  0.7225  0.2938
 4636TIP3    H135323   4.286   0.805   2.988  0.1614  0.7258  0.3299
 4636TIP3    H235324   4.344   0.902   3.089  0.4083 -1.0484  1.9533
 4637TIP3   OH235325   0.218   2.390   4.394  0.0735 -0.0136 -0.3095
 4637TIP3    H135326   0.188   2.303   4.366  0.0942  0.4292 -1.7925
 4637TIP3    H235327   0.292   2.410   4.336 -1.0200  1.6969 -1.2052
 4638TIP3   OH235328   0.453   3.828   1.694 -0.4305 -0.2326 -0.2551
 4638TIP3    H135329   0.395   3.786   1.631 -2.5226  0.9396  0.7873
 4638TIP3    H235330   0.418   3.916   1.704  0.8064  0.1265  1.3494
 4639TIP3   OH235331   6.699   5.794  14.284 -0.3600  0.3267 -0.8166
 4639TIP3    H135332   6.775   5.842  14.317 -0.9426  0.7167  0.0119
 4639TIP3    H235333   6.729   5.754  14.202  0.9254 -0.0886 -0.1696
 4640TIP3   OH235334   3.711   1.412   3.284  0.1852 -0.1628  0.0588
 4640TIP3    H135335   3.724   1.506   3.289  1.1858 -0.3107  0.6905
 4640TIP3    H235336   3.796   1.375   3.310  0.0741 -1.2253 -1.0026
 4641TIP3   OH235337   5.132   5.225  11.033  0.2556 -0.2406 -0.0987
 4641TIP3    H135338   5.188   5.241  11.109  0.9470 -0.1753 -0.6117
 4641TIP3    H235339   5.061   5.289  11.042  0.5775  0.0756  0.2505
 4642TIP3   OH235340   0.554   1.867  15.679  0.6028 -0.0372  0.1600
 4642TIP3    H135341   0.551   1.893  15.587  0.3326 -0.6894 -0.0264
 4642TIP3    H235342   0.560   1.771  15.676  0.3178 -0.0786  0.8222
 4643TIP3   OH235343   2.927   1.908  11.996 -0.3551 -0.1760 -0.2260
 4643TIP3    H135344   3.016   1.943  12.005  0.2463 -1.5453 -0.6188
 4643TIP3    H235345   2.915   1.854  12.074 -1.0850  0.4628  0.1205
 4644TIP3   OH235346   3.254   5.544   5.223 -0.0977 -0.3570 -0.0628
 4644TIP3    H135347   3.305   5.620   5.252 -0.7428  0.4114 -0.9038
 4644TIP3    H235348   3.319   5.486   5.183  0.0618  1.0029 -1.9094
 4645TIP3   OH235349   4.152   6.295   2.508  0.1389  0.3705 -0.3228
 4645TIP3    H135350   4.177   6.219   2.455  0.1364  0.2088 -0.0932
 4645TIP3    H235351   4.073   6.328   2.466 -1.2514 -1.1833  0.9599
 4646TIP3   OH235352   5.270   0.270  14.666  0.0569  0.2430  0.3758
 4646TIP3    H135353   5.335   0.214  14.709  2.2880  0.0049 -2.8843
 4646TIP3    H235354   5.289   0.358  14.698  1.5188  0.0533  0.1140
 4647TIP3   OH235355   1.094   0.552  13.237  0.2807  0.0754  0.0852
 4647TIP3    H135356   1.132   0.620  13.180 -0.7114  1.7535  1.3264
 4647TIP3    H235357   1.013   0.526  13.193  0.5500 -0.1460 -0.2836
 4648TIP3   OH235358   1.344   2.357  14.598 -0.1987  0.1078  0.1012
 4648TIP3    H135359   1.339   2.321  14.687  1.1147  1.0961  0.5997
 4648TIP3    H235360   1.272   2.315  14.551 -0.9885 -0.3479  1.6646
 4649TIP3   OH235361   3.176   4.702   3.482 -0.3130 -0.2140  0.2616
 4649TIP3    H135362   3.262   4.710   3.440 -0.4841 -2.5706 -0.6941
 4649TIP3    H235363   3.136   4.788   3.472  1.1113  0.3355 -1.1862
 4650TIP3   OH235364   1.320   1.443   4.031  0.7272 -0.2773 -0.5119
 4650TIP3    H135365   1.355   1.354   4.035  1.1716 -0.0638  1.1999
 4650TIP3    H235366   1.387   1.497   4.073  0.1273  0.7637 -0.8514
 4651TIP3   OH235367   4.253   2.067   3.633  0.0055  0.0972 -0.5614
 4651TIP3    H135368   4.277   2.109   3.715 -0.7421 -1.3714  0.4424
 4651TIP3    H235369   4.321   2.002   3.617 -0.1214  0.0276 -0.8415
 4652TIP3   OH235370   4.985   6.382  14.877 -0.4092  0.2226  0.5205
 4652TIP3    H135371   5.011   6.303  14.924 -0.4920  0.0029  0.1985
 4652TIP3    H235372   5.065   6.413  14.836 -0.3625  0.3461  0.7043
 4653TIP3   OH235373   4.400   2.496   2.604  0.4089 -0.5314 -0.4996
 4653TIP3    H135374   4.313   2.483   2.641 -0.3815 -0.9027 -2.3886
 4653TIP3    H235375   4.422   2.411   2.566  1.4772 -0.3519 -0.3003
 4654TIP3   OH235376   1.631   4.519  10.514 -0.1293 -0.2386  0.0367
 4654TIP3    H135377   1.598   4.467  10.441 -1.9724 -0.1358  0.7209
 4654TIP3    H235378   1.552   4.554  10.556  0.9775  2.3629  0.1716
 4655TIP3   OH235379   2.859   0.583  14.626  0.1646 -0.1462 -0.2895
 4655TIP3    H135380   2.878   0.624  14.542  2.4280  0.0059  0.2267
 4655TIP3    H235381   2.892   0.645  14.691 -0.6869 -0.6808  0.6814
 4656TIP3   OH235382   6.380   4.277  15.235  0.2924  0.6633 -0.1769
 4656TIP3    H135383   6.415   4.320  15.157 -0.5205 -1.1147 -1.5861
 4656TIP3    H235384   6.423   4.192  15.237  2.3554  1.6233  2.9251
 4657TIP3   OH235385   3.471   1.717  11.694  0.1486  0.0085  0.5701
 4657TIP3    H135386   3.496   1.802  11.729  0.0536  0.6651 -0.9047
 4657TIP3    H235387   3.386   1.732  11.651  0.1742 -0.7973  0.2085
 4658TIP3   OH235388   0.085   4.274   4.074  0.1989 -0.3580 -0.0048
 4658TIP3    H135389   0.073   4.340   4.143 -0.1433  0.0111 -0.4127
 4658TIP3    H235390   0.062   4.320   3.993  2.4864 -0.1974 -0.6117
 4659TIP3   OH235391   6.173   5.989   0.120  0.3516 -0.2352 -0.0874
 4659TIP3    H135392   6.140   6.018   0.205 -0.7237 -0.2425 -0.4904
 4659TIP3    H235393   6.215   5.905   0.139  0.8653  0.1610  0.5733
 4660TIP3   OH235394   4.092   3.559   4.108  0.3392  0.1988 -0.2476
 4660TIP3    H135395   4.141   3.477   4.104  0.6144  0.2111  1.9112
 4660TIP3    H235396   4.108   3.600   4.023 -1.4125 -2.8197 -2.2289
 4661TIP3   OH235397   6.023   1.162   0.953  0.3795 -0.2101  0.3470
 4661TIP3    H135398   6.112   1.185   0.925  0.0170 -0.0881 -0.7549
 4661TIP3    H235399   6.033   1.137   1.045  1.3973  0.7379  0.5253
 4662TIP3   OH235400   2.723   5.308  17.089  0.0222 -0.4584 -0.1239
 4662TIP3    H135401   2.679   5.229  17.057 -0.5815 -0.9048  1.6787
 4662TIP3    H235402   2.816   5.288  17.083 -0.0788 -0.5975 -1.3676
 4663TIP3   OH235403   0.145   3.767  16.504 -0.1197  0.0598 -0.1115
 4663TIP3    H135404   0.155   3.706  16.431 -2.6729 -0.2754 -0.2728
 4663TIP3    H235405   0.093   3.839  16.468 -0.0046  0.6833  0.9437
 4664TIP3   OH235406   1.771   5.933  12.477  0.3312  0.1727 -0.2616
 4664TIP3    H135407   1.679   5.946  12.500  0.5857  0.0797  0.8501
 4664TIP3    H235408   1.808   6.021  12.478  0.4372  0.1275  0.1415
 4665TIP3   OH235409   3.376   4.955   2.597 -0.0769 -0.0606 -0.1618
 4665TIP3    H135410   3.307   4.938   2.661 -0.1749 -1.6307 -0.6640
 4665TIP3    H235411   3.438   4.884   2.609 -0.0955 -0.3946 -1.8012
 4666TIP3   OH235412   4.495   0.229  16.846  0.1721  0.5089  0.2785
 4666TIP3    H135413   4.500   0.320  16.877 -0.8496  0.3559  0.9508
 4666TIP3    H235414   4.453   0.182  16.918  0.2881 -0.4066 -0.2459
 4667TIP3   OH235415   1.467   1.361   4.842  0.0899  0.3303 -0.1405
 4667TIP3    H135416   1.519   1.339   4.920 -0.2078 -0.6500 -0.2025
 4667TIP3    H235417   1.456   1.456   4.847  0.9259  0.4129  0.4762
 4668TIP3   OH235418   0.156   5.654  11.311  0.2944 -0.0570 -0.2026
 4668TIP3    H135419   0.091   5.588  11.288 -0.5778 -0.6962  3.4006
 4668TIP3    H235420   0.154   5.717  11.239 -3.3284 -0.7799 -0.9052
 4669TIP3   OH235421   2.574   1.192   6.087  0.3305 -0.1491 -0.3390
 4669TIP3    H135422   2.514   1.197   6.162  0.9928 -0.5224  0.2331
 4669TIP3    H235423   2.661   1.180   6.127  0.6266 -0.8990 -1.1756
 4670TIP3   OH235424   6.252   0.671   5.309  0.5210  0.0047 -0.2194
 4670TIP3    H135425   6.333   0.720   5.326  0.9716 -0.8391  0.1375
 4670TIP3    H235426   6.265   0.635   5.221 -0.1710  1.1976 -0.8343
 4671TIP3   OH235427   5.778   1.048   0.995 -0.4213  0.3823  0.0366
 4671TIP3    H135428   5.862   1.078   0.961 -0.5140 -0.2472 -0.7902
 4671TIP3    H235429   5.778   0.954   0.979 -0.8157  0.1914  1.0714
 4672TIP3   OH235430   3.351   0.083   3.299  0.2464  0.3546  0.1921
 4672TIP3    H135431   3.330   0.012   3.359  0.6519  1.4546  1.6937
 4672TIP3    H235432   3.447   0.080   3.291  0.1961  0.2231 -0.4055
 4673TIP3   OH235433   4.267   4.667   4.211 -0.7972 -0.0736 -0.1113
 4673TIP3    H135434   4.253   4.665   4.116 -0.8968  2.4810 -0.2320
 4673TIP3    H235435   4.192   4.717   4.245  0.6516  1.5158  0.9267
 4674TIP3   OH235436   4.701   0.387   5.988 -0.2469  0.9346 -0.0116
 4674TIP3    H135437   4.661   0.350   6.068 -0.5400 -0.4953 -0.7905
 4674TIP3    H235438   4.794   0.370   5.998 -0.3517  0.1558 -0.2461
 4675TIP3   OH235439   3.370   1.792  12.998 -0.2382 -0.4449  0.4071
 4675TIP3    H135440   3.311   1.811  13.072 -0.9434  0.4185 -0.3397
 4675TIP3    H235441   3.311   1.773  12.926  0.4237 -0.4599 -0.1355
 4676TIP3   OH235442   1.306   5.445  15.214 -0.5857 -0.0216 -0.2724
 4676TIP3    H135443   1.353   5.509  15.268 -2.5435  0.8074  0.5205
 4676TIP3    H235444   1.263   5.387  15.277 -0.5281 -0.8741 -0.9868
 4677TIP3   OH235445   6.103   3.101  12.094  0.0523  0.2498  0.3067
 4677TIP3    H135446   6.101   3.042  12.019  1.1554 -0.1844  0.5890
 4677TIP3    H235447   6.014   3.135  12.102 -0.4726 -0.9856 -0.1763
 4678TIP3   OH235448   4.992   3.160  13.033 -0.0064 -0.2477  0.2765
 4678TIP3    H135449   5.053   3.175  12.961 -1.0615  1.3636 -0.3387
 4678TIP3    H235450   4.906   3.160  12.992 -0.7110  1.7017  1.6289
 4679TIP3   OH235451   0.889   5.851   2.105 -0.5033  0.2235  0.3249
 4679TIP3    H135452   0.889   5.859   2.201  0.7544  0.9490  0.2859
 4679TIP3    H235453   0.819   5.909   2.076 -1.0589 -0.1904  0.8092
 4680TIP3   OH235454   1.144   2.331  14.148 -0.0063 -0.6488  0.7062
 4680TIP3    H135455   1.209   2.384  14.103 -1.0120 -0.8734 -1.0893
 4680TIP3    H235456   1.190   2.249  14.168  0.4104 -0.6415 -0.1612
 4681TIP3   OH235457   1.204   4.419   1.059  0.6064  0.0956  0.2648
 4681TIP3    H135458   1.146   4.343   1.052 -2.2838  2.0659  0.9451
 4681TIP3    H235459   1.258   4.401   1.136 -0.1941 -1.1749  0.5553
 4682TIP3   OH235460   4.838   0.499  13.398 -1.2943 -0.3303  0.5334
 4682TIP3    H135461   4.790   0.420  13.375  1.7701 -1.6672 -1.8649
 4682TIP3    H235462   4.930   0.471  13.405 -0.3516  2.6354  1.7719
 4683TIP3   OH235463   1.949   5.077   5.280  0.2651  0.0832  0.8534
 4683TIP3    H135464   1.950   5.120   5.195  1.9470 -1.6930 -0.1144
 4683TIP3    H235465   1.858   5.084   5.310 -0.4027  0.6315 -1.1410
 4684TIP3   OH235466   5.323   5.703   5.527 -1.0407  0.6672  0.0921
 4684TIP3    H135467   5.381   5.640   5.569 -1.5078 -0.4267 -0.8602
 4684TIP3    H235468   5.370   5.786   5.534  0.8183 -0.2241 -0.8765
 4685TIP3   OH235469   3.181   4.325   4.490  0.2123  0.2647 -0.0821
 4685TIP3    H135470   3.140   4.360   4.569  0.0438 -2.2666  1.0591
 4685TIP3    H235471   3.267   4.366   4.488 -0.5930  2.0797  0.1086
 4686TIP3   OH235472   6.585   2.108   2.969 -0.0826 -0.7991  0.1301
 4686TIP3    H135473   6.653   2.113   2.902  0.3008 -0.9219  0.5058
 4686TIP3    H235474   6.504   2.092   2.920  0.3278 -1.8191 -0.2342
 4687TIP3   OH235475   3.943   4.131  13.548  0.0571 -0.4204 -0.3229
 4687TIP3    H135476   3.906   4.111  13.634  0.1587  0.0919 -0.1610
 4687TIP3    H235477   4.023   4.180  13.566 -0.0536 -0.0859 -0.7110
 4688TIP3   OH235478   1.018   1.196  14.584 -0.1551  0.3735 -0.2062
 4688TIP3    H135479   1.025   1.193  14.489  0.0065 -2.5028 -0.1960
 4688TIP3    H235480   0.938   1.145  14.604 -0.3433  1.1481  1.1917
 4689TIP3   OH235481   0.366   3.032  11.297 -0.0511 -0.8150 -0.7864
 4689TIP3    H135482   0.333   3.104  11.244 -0.1180  0.8764  1.3927
 4689TIP3    H235483   0.301   3.021  11.366  1.8438 -0.1898  1.2331
 4690TIP3   OH235484   0.807   3.088   3.886  0.0754 -0.2894 -0.5427
 4690TIP3    H135485   0.773   3.070   3.974 -1.7518  0.0626 -1.1507
 4690TIP3    H235486   0.807   3.183   3.879 -0.0383 -0.3204 -1.0188
 4691TIP3   OH235487   2.344   1.738   2.349  0.3779  0.4315 -0.4925
 4691TIP3    H135488   2.413   1.799   2.377  0.2615  0.2859  0.1251
 4691TIP3    H235489   2.297   1.785   2.281  1.8999  0.0347 -1.8650
 4692TIP3   OH235490   1.533   0.772   5.175  0.1109  0.2700  0.7027
 4692TIP3    H135491   1.485   0.714   5.116  1.0564 -0.4999  0.6657
 4692TIP3    H235492   1.585   0.827   5.117  1.4391 -0.8385  0.7988
 4693TIP3   OH235493   5.850   6.670  16.840 -0.4295 -0.1204 -0.2338
 4693TIP3    H135494   5.878   6.748  16.792  1.7266 -1.1394 -0.7759
 4693TIP3    H235495   5.805   6.617  16.774 -1.1620  0.2822 -0.0678
 4694TIP3   OH235496   3.599   1.713   3.730  0.0214 -0.2308  0.3861
 4694TIP3    H135497   3.514   1.744   3.761 -0.2384 -1.4687  0.9969
 4694TIP3    H235498   3.587   1.618   3.719  0.8303 -0.1868 -1.1883
 4695TIP3   OH235499   2.441   6.799  13.562 -0.1796 -0.0653 -0.0878
 4695TIP3    H135500   2.521   6.753  13.534  0.4355  1.0556 -0.2366
 4695TIP3    H235501   2.370   6.745  13.529  0.5206  0.1507 -2.0700
 4696TIP3   OH235502   5.807   4.585  14.808 -0.1322 -0.3302  0.1318
 4696TIP3    H135503   5.765   4.511  14.851 -1.7510  0.8806  0.7444
 4696TIP3    H235504   5.859   4.546  14.737 -0.3543 -2.0732  0.8885
 4697TIP3   OH235505   5.434   5.380  14.126 -0.7011  0.5670  0.3835
 4697TIP3    H135506   5.467   5.295  14.157 -1.8343 -0.7675 -1.7564
 4697TIP3    H235507   5.512   5.435  14.120  1.0168 -1.8242 -2.5237
 4698TIP3   OH235508   4.335   0.036  15.727 -0.1408 -0.3866  0.0040
 4698TIP3    H135509   4.324   0.118  15.679  1.1947 -0.2584 -0.1127
 4698TIP3    H235510   4.261  -0.019  15.698 -0.2124  0.2323 -1.0405
 4699TIP3   OH235511   4.182   1.259   6.238 -0.3558  0.7880 -0.9795
 4699TIP3    H135512   4.225   1.184   6.279 -0.0822  0.5720 -1.6512
 4699TIP3    H235513   4.165   1.319   6.311  1.3385  1.0018 -0.7062
 4700TIP3   OH235514   4.212   6.302   1.427  0.3766  0.9520  0.1654
 4700TIP3    H135515   4.293   6.314   1.378 -0.8581  1.1604 -1.9142
 4700TIP3    H235516   4.144   6.296   1.361 -1.0597 -1.7383  1.6920
 4701TIP3   OH235517   3.506   3.844  13.028 -0.6520  0.0796  0.0188
 4701TIP3    H135518   3.455   3.763  13.034 -0.4017 -0.2419 -1.6799
 4701TIP3    H235519   3.473   3.887  12.948 -1.4433  2.1520  1.3579
 4702TIP3   OH235520   2.614   2.494   5.910 -0.0747 -0.0345  0.0543
 4702TIP3    H135521   2.524   2.466   5.898  0.0124 -0.4905  0.4056
 4702TIP3    H235522   2.623   2.504   6.005  0.4406 -0.6997  0.0850
 4703TIP3   OH235523   2.859   1.878   2.046  0.1871  0.3802  0.6395
 4703TIP3    H135524   2.862   1.848   1.955  0.2474 -0.0208  0.7721
 4703TIP3    H235525   2.926   1.946   2.051  2.0353 -1.3773  1.0178
 4704TIP3   OH235526   0.328   1.203   5.892  0.3678 -0.8061  0.2641
 4704TIP3    H135527   0.365   1.115   5.882  1.7206 -0.2312 -0.0403
 4704TIP3    H235528   0.403   1.257   5.916 -0.6057  0.1182  1.3529
 4705TIP3   OH235529   4.868   0.879   4.626  0.1478 -1.0161  0.1886
 4705TIP3    H135530   4.848   0.823   4.551  0.8893 -0.9947 -0.0399
 4705TIP3    H235531   4.890   0.818   4.697 -3.7180 -1.2030  1.4645
 4706TIP3   OH235532   4.583   0.071  13.862  0.3053 -0.0322 -0.3307
 4706TIP3    H135533   4.632   0.132  13.806 -0.3521  1.9154  1.1304
 4706TIP3    H235534   4.494   0.074  13.829  0.3486 -0.5600 -0.5121
 4707TIP3   OH235535   5.245   4.341  16.441 -0.1520  0.4418 -0.7840
 4707TIP3    H135536   5.275   4.254  16.469 -1.7576  0.1154  0.1150
 4707TIP3    H235537   5.281   4.353  16.354 -0.1117 -1.2690 -1.0401
 4708TIP3   OH235538   1.258   1.340   5.161  0.1666 -0.0971 -0.0103
 4708TIP3    H135539   1.351   1.329   5.145  0.0596 -1.3741  0.1427
 4708TIP3    H235540   1.246   1.316   5.252 -0.1959  0.9502  0.2397
 4709TIP3   OH235541   4.296   3.732  10.990 -0.3322  0.6908  0.1116
 4709TIP3    H135542   4.286   3.776  11.075  1.7309 -0.6513  1.1355
 4709TIP3    H235543   4.360   3.663  11.006 -0.2957  0.0258 -2.4438
 4710TIP3   OH235544   4.660   0.434   4.716 -0.0741 -0.3870 -0.2857
 4710TIP3    H135545   4.751   0.453   4.692 -0.5158  0.4196 -1.4042
 4710TIP3    H235546   4.608   0.487   4.656 -1.3063 -1.3601 -0.1172
 4711TIP3   OH235547   2.973   4.778  15.835 -0.2669 -0.2380  0.4058
 4711TIP3    H135548   2.964   4.754  15.743 -1.7138  2.4315 -0.2771
 4711TIP3    H235549   3.068   4.790  15.847 -0.1484  1.2143 -1.3494
 4712TIP3   OH235550   3.969   5.169   4.790  0.0570 -0.3555 -0.1353
 4712TIP3    H135551   4.012   5.222   4.722 -0.4372  2.1180  1.3424
 4712TIP3    H235552   4.040   5.142   4.848  0.1504 -0.0095 -0.0841
 4713TIP3   OH235553   1.128   3.615   1.581  0.6407  0.2522  1.1373
 4713TIP3    H135554   1.091   3.689   1.631 -0.6194  0.3197  0.1500
 4713TIP3    H235555   1.223   3.628   1.586  0.5232  0.7609  2.7329
 4714TIP3   OH235556   4.245   2.106  12.380 -0.4096 -0.1093  0.1372
 4714TIP3    H135557   4.324   2.092  12.432  0.2059 -1.1206 -0.9962
 4714TIP3    H235558   4.237   2.026  12.328 -0.4814  1.1782 -1.9452
 4715TIP3   OH235559   4.018   5.043  10.735  0.0002  0.9677 -0.1596
 4715TIP3    H135560   4.005   4.951  10.755  1.3207  0.8992  0.5437
 4715TIP3    H235561   3.930   5.080  10.728 -0.5334 -0.1948  0.2335
 4716TIP3   OH235562   5.906   3.202   1.506 -0.2360  0.2897  0.7695
 4716TIP3    H135563   5.896   3.202   1.410  0.1917  0.1155  0.7211
 4716TIP3    H235564   5.926   3.111   1.527 -0.0743  0.3777  0.9959
 4717TIP3   OH235565   6.684   4.043   5.071 -0.3394 -0.2859 -0.0251
 4717TIP3    H135566   6.766   4.093   5.064 -0.2471 -0.4473 -0.0977
 4717TIP3    H235567   6.696   3.969   5.012  0.1658 -1.2564  1.2467
 4718TIP3   OH235568   5.494   3.894   6.476  0.0213 -0.4247 -0.5279
 4718TIP3    H135569   5.445   3.812   6.483 -1.6530  0.6604  1.8199
 4718TIP3    H235570   5.429   3.959   6.448  0.5324  0.6616  0.6665
 4719TIP3   OH235571   1.022   0.965   0.364 -0.5283  0.6354  0.1545
 4719TIP3    H135572   1.073   1.045   0.377 -1.9791  1.5754  0.1547
 4719TIP3    H235573   1.084   0.905   0.321  0.5054  1.8231 -0.0836
 4720TIP3   OH235574   3.677   2.420   1.390 -0.0458  0.1721 -0.1737
 4720TIP3    H135575   3.697   2.366   1.466 -0.1726 -0.2630 -0.4492
 4720TIP3    H235576   3.756   2.472   1.375  0.4514 -0.6647 -0.5224
 4721TIP3   OH235577   2.185   4.196  11.445  0.4321  0.1760  0.0887
 4721TIP3    H135578   2.188   4.101  11.435 -1.6260  0.1838 -1.0939
 4721TIP3    H235579   2.277   4.222  11.451  1.0383 -1.8696  0.3799
 4722TIP3   OH235580   3.279   2.940  14.293 -0.1541  0.4773  0.6204
 4722TIP3    H135581   3.360   2.964  14.248  0.7984 -2.2774  0.6871
 4722TIP3    H235582   3.213   2.938  14.223  0.7222 -1.0448 -0.2165
 4723TIP3   OH235583   4.848   2.861   3.816 -0.0867 -0.1145 -0.3189
 4723TIP3    H135584   4.809   2.779   3.785 -0.6195  0.7087 -1.9537
 4723TIP3    H235585   4.942   2.843   3.821 -0.2656 -1.0217  0.0798
 4724TIP3   OH235586   0.911   6.364  15.318 -0.3804  0.2733 -0.6637
 4724TIP3    H135587   0.874   6.426  15.255 -0.3024  1.3802  0.3290
 4724TIP3    H235588   0.930   6.418  15.395  1.9086 -0.5423 -0.5954
 4725TIP3   OH235589   5.006   6.068   6.089  0.6503 -0.3078 -0.0509
 4725TIP3    H135590   4.959   5.985   6.103  1.3642 -0.6141  0.6581
 4725TIP3    H235591   5.046   6.087   6.174  0.7221  0.6261 -0.2845
 4726TIP3   OH235592   0.893   4.284  11.340 -0.6740  0.0967 -0.1652
 4726TIP3    H135593   0.808   4.255  11.307  0.0322 -1.4941 -0.7420
 4726TIP3    H235594   0.913   4.363  11.290 -1.9400  0.6827  0.2192
 4727TIP3   OH235595   3.140   3.677   2.812 -0.0992 -0.0694 -0.3836
 4727TIP3    H135596   3.077   3.745   2.788  1.7197  0.9020 -2.8724
 4727TIP3    H235597   3.195   3.719   2.878 -2.2073 -1.0970  2.1946
 4728TIP3   OH235598   0.240   5.772  15.985  0.7246  0.1771 -0.0767
 4728TIP3    H135599   0.217   5.756  16.076  1.1636 -0.5371 -0.0833
 4728TIP3    H235600   0.214   5.692  15.939  2.2881 -0.2744 -0.2373
 4729TIP3   OH235601   3.833   2.103   1.769  0.1759 -0.1071  0.1651
 4729TIP3    H135602   3.836   2.071   1.678  3.0955 -2.4862  0.9131
 4729TIP3    H235603   3.837   2.198   1.760 -3.9589  0.0975 -2.1470
 4730TIP3   OH235604   0.736   4.235   5.158  0.1144 -0.0241  0.4207
 4730TIP3    H135605   0.731   4.327   5.129  0.2639 -0.4138 -0.8981
 4730TIP3    H235606   0.785   4.239   5.240  1.7152  0.9239 -0.5169
 4731TIP3   OH235607   1.275   5.590   2.217 -0.2550 -0.3177  0.0103
 4731TIP3    H135608   1.279   5.496   2.200  1.7658 -0.3452  0.4184
 4731TIP3    H235609   1.341   5.628   2.160  0.3092  0.6230  1.2357
 4732TIP3   OH235610   1.424   0.435   0.059  0.2247 -0.1189  0.1844
 4732TIP3    H135611   1.504   0.443   0.007 -0.5515  1.6209 -0.7919
 4732TIP3    H235612   1.444   0.364   0.121  2.1397 -0.4208 -0.6915
 4733TIP3   OH235613   2.483   6.099  10.990  0.5059  0.1022  0.5153
 4733TIP3    H135614   2.395   6.068  11.015  0.5608 -1.7025 -1.2781
 4733TIP3    H235615   2.470   6.142  10.906  1.3559 -0.3481  0.1443
 4734TIP3   OH235616   3.779   3.895  14.280  0.1595 -0.0048  0.2262
 4734TIP3    H135617   3.688   3.921  14.265  0.0810 -0.3673  0.0463
 4734TIP3    H235618   3.785   3.807  14.242  0.6091  0.0547  0.1494
 4735TIP3   OH235619   6.712   5.102   4.380  0.1691  0.0467  0.2104
 4735TIP3    H135620   6.709   5.191   4.416  1.2154 -0.2589  1.1138
 4735TIP3    H235621   6.798   5.069   4.406 -0.8252 -1.8271  1.3430
 4736TIP3   OH235622   3.433   2.426   2.623  0.0538  0.5454 -0.4493
 4736TIP3    H135623   3.471   2.362   2.684 -0.6004  2.5456  2.2389
 4736TIP3    H235624   3.509   2.466   2.580  0.7423  0.8819  1.0087
 4737TIP3   OH235625   1.745   3.755  15.063  0.1279  0.1076  0.4348
 4737TIP3    H135626   1.767   3.787  14.976 -0.5414  1.0004  0.5835
 4737TIP3    H235627   1.770   3.663  15.061  0.7304  0.2747 -0.4811
 4738TIP3   OH235628   0.081   2.673   3.289 -0.0022 -0.2445  0.4482
 4738TIP3    H135629   0.005   2.614   3.289 -1.5840  1.7003  1.0143
 4738TIP3    H235630   0.137   2.639   3.360  0.6587 -2.8063 -1.1488
 4739TIP3   OH235631   0.117   6.545   0.163  0.2642  0.1928 -0.3381
 4739TIP3    H135632   0.027   6.573   0.149  0.0877  0.1658  0.6888
 4739TIP3    H235633   0.150   6.527   0.075 -0.7154  0.2330 -0.7288
 4740TIP3   OH235634   0.701   0.674   4.888  0.2554 -0.2939 -0.1495
 4740TIP3    H135635   0.703   0.755   4.838 -0.4612  0.0429  0.3495
 4740TIP3    H235636   0.760   0.615   4.841 -0.0345  0.1697 -1.1128
 4741TIP3   OH235637   3.089   2.348  15.268 -0.0031 -0.6353  0.2902
 4741TIP3    H135638   2.999   2.348  15.300  0.0059  0.5162  0.3354
 4741TIP3    H235639   3.107   2.439  15.244  1.1755 -0.8327  0.3470
 4742TIP3   OH235640   3.303   1.138   4.111 -0.0298  0.4405 -0.1955
 4742TIP3    H135641   3.230   1.142   4.049  0.3041  1.3467 -0.5562
 4742TIP3    H235642   3.298   1.222   4.157  0.3382  0.1942  0.2896
 4743TIP3   OH235643   2.318   2.286  13.655  0.1865  0.0773  0.5782
 4743TIP3    H135644   2.338   2.326  13.740 -0.4897  0.0212  0.7774
 4743TIP3    H235645   2.262   2.211  13.677 -1.4071  1.0270 -0.0018
 4744TIP3   OH235646   2.646   3.980  16.398 -0.8106  0.5042 -0.0443
 4744TIP3    H135647   2.689   4.027  16.327 -1.1016 -1.0244 -1.3021
 4744TIP3    H235648   2.557   4.017  16.401 -1.1754 -0.2225 -1.3094
 4745TIP3   OH235649   4.124   3.498   2.233  0.4880  0.0296  0.6199
 4745TIP3    H135650   4.156   3.497   2.143  0.9676 -0.9906  0.7885
 4745TIP3    H235651   4.194   3.540   2.284  0.8240 -0.6344  0.7189
 4746TIP3   OH235652   4.581   6.792  12.775  0.3827 -0.3810 -0.4909
 4746TIP3    H135653   4.597   6.717  12.833  0.2433 -1.4702 -1.8252
 4746TIP3    H235654   4.486   6.799  12.771  0.2738  2.0878  2.3328
 4747TIP3   OH235655   1.330   2.968  14.385  0.2438 -0.2434 -0.2752
 4747TIP3    H135656   1.395   3.001  14.323 -0.3568  0.0461 -0.7564
 4747TIP3    H235657   1.373   2.975  14.471  0.5571  0.7046 -0.5003
 4748TIP3   OH235658   3.244   0.502   4.196 -0.1500 -0.0488 -0.1898
 4748TIP3    H135659   3.291   0.528   4.117 -0.8057 -0.1895 -0.6429
 4748TIP3    H235660   3.239   0.406   4.190  2.6162 -0.4089  1.6696
 4749TIP3   OH235661   0.368   2.124   2.658 -0.3494  0.1657 -0.0910
 4749TIP3    H135662   0.415   2.158   2.581 -1.1551 -0.1174 -0.7196
 4749TIP3    H235663   0.283   2.098   2.624 -0.8757  0.4449  0.9974
 4750TIP3   OH235664   6.726   4.510   3.420  0.0192 -0.0193  0.0305
 4750TIP3    H135665   6.738   4.604   3.438  0.0177 -0.1544  0.7421
 4750TIP3    H235666   6.721   4.469   3.506 -0.5447 -0.6049 -0.2719
 4751TIP3   OH235667   3.491   2.407   2.134  0.1382  0.3541  0.1450
 4751TIP3    H135668   3.559   2.424   2.199 -0.9702 -0.8319  1.6897
 4751TIP3    H235669   3.446   2.491   2.124 -0.9973  0.1262  2.5555
 4752TIP3   OH235670   0.193   2.374   1.598  0.5761  0.9375 -0.0060
 4752TIP3    H135671   0.214   2.299   1.542  0.0796 -0.4907  1.6340
 4752TIP3    H235672   0.276   2.396   1.641  0.2298 -0.3889  1.4406
 4753TIP3   OH235673   0.870   5.139   3.620  0.0442  0.2335 -0.5025
 4753TIP3    H135674   0.884   5.050   3.588  1.5570 -0.2868  1.4739
 4753TIP3    H235675   0.775   5.151   3.616 -0.3329 -1.9646  0.4303
 4754TIP3   OH235676   6.003   2.181   1.898 -0.8647 -0.2231  0.4591
 4754TIP3    H135677   6.003   2.203   1.805 -1.7127  1.9810  0.9302
 4754TIP3    H235678   5.915   2.203   1.929 -0.7242 -1.2873  1.7246
 4755TIP3   OH235679   3.449   5.698   4.875 -0.3910  0.2484  0.0313
 4755TIP3    H135680   3.487   5.693   4.788  0.6468 -0.1332  0.4996
 4755TIP3    H235681   3.502   5.639   4.928 -1.7244 -0.4156  0.6739
 4756TIP3   OH235682   0.886   1.266  15.226 -0.0763 -0.1854  0.1580
 4756TIP3    H135683   0.906   1.299  15.314  1.7708  1.3304 -0.7585
 4756TIP3    H235684   0.944   1.191  15.215 -0.4037 -0.4579  0.2607
 4757TIP3   OH235685   6.202   0.112   0.591 -0.0762 -0.3443 -0.1568
 4757TIP3    H135686   6.169   0.119   0.502 -0.3565  0.5120 -0.0018
 4757TIP3    H235687   6.140   0.163   0.643 -0.4080 -1.5478  0.6645
 4758TIP3   OH235688   4.768   5.171   0.620 -0.8657 -0.1037 -0.6817
 4758TIP3    H135689   4.766   5.116   0.699 -0.4686  0.8820  0.0307
 4758TIP3    H235690   4.690   5.144   0.571 -1.4845 -0.2923  0.3626
 4759TIP3   OH235691   3.681   6.412  16.862 -0.0816 -0.3393 -0.2115
 4759TIP3    H135692   3.602   6.440  16.815 -0.8070  0.7665  1.5470
 4759TIP3    H235693   3.695   6.480  16.928  0.9003 -1.7828  1.1498
 4760TIP3   OH235694   1.307   5.049  12.124 -0.5304  0.2364 -0.2378
 4760TIP3    H135695   1.345   4.972  12.081  1.8998  1.5866 -0.6415
 4760TIP3    H235696   1.260   5.095  12.054 -3.0253 -1.3551  0.2340
 4761TIP3   OH235697   0.969   5.802  15.418  0.3419 -0.1135  0.1715
 4761TIP3    H135698   1.060   5.775  15.429 -0.0833 -1.6756  0.0782
 4761TIP3    H235699   0.961   5.880  15.474  2.4478  1.8557 -2.0167
 4762TIP3   OH235700   5.429   2.372   4.370 -0.7458  0.1179  0.3357
 4762TIP3    H135701   5.467   2.388   4.284 -1.8652 -0.6052 -0.3217
 4762TIP3    H235702   5.504   2.371   4.429 -0.1344  2.8925 -0.2349
 4763TIP3   OH235703   0.264   3.610   2.643  0.1490 -0.7147 -0.6809
 4763TIP3    H135704   0.263   3.567   2.728 -0.9081 -0.7338 -0.6906
 4763TIP3    H235705   0.352   3.647   2.636 -0.2355  0.6923  1.1439
 4764TIP3   OH235706   5.498   3.619  12.510 -0.1074  0.0567 -0.3232
 4764TIP3    H135707   5.487   3.627  12.605 -0.8434 -0.4860 -0.3480
 4764TIP3    H235708   5.494   3.709  12.478  1.7808  0.4064  0.3003
 4765TIP3   OH235709   5.408   5.408   5.971  0.3145  0.3366 -0.0504
 4765TIP3    H135710   5.332   5.350   5.971 -0.2234  1.0199  0.1740
 4765TIP3    H235711   5.463   5.377   6.043 -0.5808  0.8780  0.8944
 4766TIP3   OH235712   5.316   4.492   3.892  0.0949  0.2395 -0.3233
 4766TIP3    H135713   5.255   4.474   3.963  0.7539  0.1344  0.2330
 4766TIP3    H235714   5.400   4.456   3.922  0.3935  0.2057 -1.1466
 4767TIP3   OH235715   1.381   5.221  16.671 -0.4554 -0.2733  0.3878
 4767TIP3    H135716   1.445   5.163  16.629 -2.5743 -0.4479 -2.9678
 4767TIP3    H235717   1.314   5.161  16.704 -1.5671  0.0735 -1.1353
 4768TIP3   OH235718   0.819   6.470  15.080  0.1780 -0.2043 -0.1308
 4768TIP3    H135719   0.760   6.543  15.096 -0.0246 -0.7038  1.6748
 4768TIP3    H235720   0.872   6.497  15.005 -1.0688  1.0310 -0.6029
 4769TIP3   OH235721   3.440   3.154  12.890  0.2821  0.0430  0.0784
 4769TIP3    H135722   3.404   3.175  12.975  1.1761  0.2158  0.4294
 4769TIP3    H235723   3.372   3.102  12.846  0.0849 -0.6138  1.1433
 4770TIP3   OH235724   2.738   2.984  16.700  0.6595  0.2647 -0.3568
 4770TIP3    H135725   2.827   3.018  16.689  1.0390 -0.9752 -1.3709
 4770TIP3    H235726   2.683   3.062  16.705  1.8329  1.0613  0.7027
 4771TIP3   OH235727   6.650   4.890   3.748  0.2334  0.2761 -0.3377
 4771TIP3    H135728   6.624   4.831   3.818 -1.0657 -0.8609 -1.7119
 4771TIP3    H235729   6.604   4.972   3.767  0.4145  0.1982  0.4649
 4772TIP3   OH235730   1.717   2.505   0.987  0.2411 -0.3353  0.0095
 4772TIP3    H135731   1.793   2.559   0.963  0.2767 -0.8075 -0.9984
 4772TIP3    H235732   1.645   2.567   0.995  0.0079 -0.2215 -2.3329
 4773TIP3   OH235733   4.631   0.937   5.302 -0.1754  0.2031 -0.2384
 4773TIP3    H135734   4.686   0.860   5.285  0.2169  0.9908 -3.1467
 4773TIP3    H235735   4.542   0.902   5.309  0.0356 -0.5769 -1.2388
 4774TIP3   OH235736   2.649   2.110  12.116 -0.5650 -0.0028 -0.4293
 4774TIP3    H135737   2.557   2.125  12.094 -0.5212  1.7482  0.3748
 4774TIP3    H235738   2.656   2.016  12.128 -2.3712 -0.1256 -0.0384
 4775TIP3   OH235739   1.412   5.802   2.793  0.0945  0.4914  0.2062
 4775TIP3    H135740   1.498   5.840   2.778 -0.1623  1.1634  0.3967
 4775TIP3    H235741   1.380   5.844   2.873  0.1684 -0.7889  0.9370
 4776TIP3   OH235742   6.730   0.695   2.343 -0.2853  0.1563  0.1451
 4776TIP3    H135743   6.731   0.788   2.365 -1.9034 -0.0650  1.2568
 4776TIP3    H235744   6.787   0.654   2.408  1.7125  0.5039 -1.2867
 4777TIP3   OH235745   5.433   0.791  17.134  0.9641 -0.0817 -0.0979
 4777TIP3    H135746   5.510   0.738  17.114  0.8758 -0.9380  1.6293
 4777TIP3    H235747   5.407   0.829  17.050  1.5401 -2.0871 -1.2454
 4778TIP3   OH235748   3.684   2.524  10.315 -0.1744 -0.3414  0.6820
 4778TIP3    H135749   3.776   2.499  10.323 -0.2038 -0.4999  0.5392
 4778TIP3    H235750   3.664   2.509  10.223  0.6525  3.1022 -0.2257
 4779TIP3   OH235751   2.410   3.685  14.407  0.2964  0.2787 -0.1258
 4779TIP3    H135752   2.363   3.611  14.446 -0.4240  0.7311 -0.1109
 4779TIP3    H235753   2.341   3.737  14.365  0.6847  1.3863  0.5673
 4780TIP3   OH235754   4.746   6.369   1.549  0.3326  0.4970 -0.4185
 4780TIP3    H135755   4.775   6.380   1.639  0.7407  0.0846 -0.4976
 4780TIP3    H235756   4.650   6.364   1.556  0.4093 -0.5102  0.1038
 4781TIP3   OH235757   0.202   1.892  11.098 -0.2828  0.2561  0.2036
 4781TIP3    H135758   0.210   1.848  11.013  0.8039  0.3058  0.2732
 4781TIP3    H235759   0.131   1.956  11.084 -1.3240 -0.9179 -0.1342
 4782TIP3   OH235760   2.709   5.662   5.022  0.1136 -0.5119  0.5301
 4782TIP3    H135761   2.742   5.620   4.943 -1.0208 -2.1049  0.8522
 4782TIP3    H235762   2.736   5.604   5.093 -0.2485  0.0683  1.1543
 4783TIP3   OH235763   2.863   2.455  13.351 -0.3377 -0.5659  0.4564
 4783TIP3    H135764   2.789   2.397  13.368 -0.9980  0.6057  1.7322
 4783TIP3    H235765   2.940   2.404  13.378 -0.8484 -1.0978  0.9295
 4784TIP3   OH235766   4.047   4.471  11.110  0.4727 -0.2086  0.3905
 4784TIP3    H135767   3.962   4.500  11.077  1.2222  2.0521  0.2738
 4784TIP3    H235768   4.097   4.448  11.032 -0.3690 -2.7971  0.5171
 4785TIP3   OH235769   3.916   5.916   3.630 -0.2279 -0.1859  0.3020
 4785TIP3    H135770   3.968   5.898   3.552  0.2797 -0.9556  0.8057
 4785TIP3    H235771   3.967   5.879   3.702 -0.6010  0.6657  1.0266
 4786TIP3   OH235772   4.714   3.912  12.543 -0.1159 -0.1299  0.1689
 4786TIP3    H135773   4.730   3.834  12.596  0.0704 -1.3712 -1.6096
 4786TIP3    H235774   4.758   3.894  12.460  2.3041  3.0535  0.5563
 4787TIP3   OH235775   6.592   5.286   4.084 -0.3559 -0.4864  0.6912
 4787TIP3    H135776   6.577   5.261   3.993 -1.9820 -1.3069  1.1557
 4787TIP3    H235777   6.678   5.249   4.106  0.6974  0.8801 -0.8740
 4788TIP3   OH235778   5.196   3.725  12.632 -0.2876 -0.3037 -0.3121
 4788TIP3    H135779   5.275   3.700  12.679 -0.9349  1.1580  1.6996
 4788TIP3    H235780   5.153   3.789  12.689 -1.0834  1.7306 -2.9555
 4789TIP3   OH235781   2.471   5.688  11.338  0.7768 -0.0339 -0.7587
 4789TIP3    H135782   2.430   5.732  11.413  2.8993 -0.3421  0.6697
 4789TIP3    H235783   2.399   5.644  11.294 -0.5992  0.4560  0.8973
 4790TIP3   OH235784   4.046   2.217   0.687 -0.5491 -0.8446 -0.6438
 4790TIP3    H135785   4.077   2.210   0.777 -1.4538 -0.4049 -0.2866
 4790TIP3    H235786   4.093   2.292   0.651  0.7095 -1.7392 -0.9313
 4791TIP3   OH235787   1.731   6.612   2.676  0.0941  0.8223  0.3443
 4791TIP3    H135788   1.724   6.707   2.683 -1.7553  0.7602 -0.2199
 4791TIP3    H235789   1.713   6.593   2.584  1.7471 -0.0097  0.1538
 4792TIP3   OH235790   6.126   2.049   4.564 -0.3666  0.8153  0.4904
 4792TIP3    H135791   6.152   2.132   4.523 -1.1971  1.5257  1.3629
 4792TIP3    H235792   6.165   2.053   4.651 -0.4161  0.2756  0.5357
 4793TIP3   OH235793   5.315   0.332   5.395  0.5253  0.0425  0.2574
 4793TIP3    H135794   5.333   0.356   5.304  0.0124  1.3555  0.4860
 4793TIP3    H235795   5.396   0.351   5.441 -0.1526  2.3574  0.6066
 4794TIP3   OH235796   2.009   6.012   6.460 -0.3132  0.3245  0.2821
 4794TIP3    H135797   1.961   6.095   6.458 -2.4082 -0.8303  0.0441
 4794TIP3    H235798   2.097   6.037   6.487 -0.3021  2.8786 -1.6804
 4795TIP3   OH235799   1.094   1.171   5.803  0.1505  0.1837  0.2307
 4795TIP3    H135800   1.186   1.156   5.823  0.5103 -0.4692 -1.6753
 4795TIP3    H235801   1.083   1.266   5.804  1.3742  0.3857 -1.5162
 4796TIP3   OH235802   2.384   5.407  13.422 -0.0644 -0.0386 -0.4003
 4796TIP3    H135803   2.382   5.371  13.333  0.1110 -1.8238  0.2974
 4796TIP3    H235804   2.331   5.487  13.416 -0.2478 -0.2490 -2.0550
 4797TIP3   OH235805   6.534   3.798  15.266 -0.0429 -0.2400 -0.3556
 4797TIP3    H135806   6.491   3.866  15.215 -0.6920  0.2183  0.7622
 4797TIP3    H235807   6.465   3.763  15.322  0.7706 -0.3276  0.6203
 4798TIP3   OH235808   3.419   5.513  13.045 -0.6319  0.1356 -0.4457
 4798TIP3    H135809   3.472   5.445  13.005 -0.3854 -0.1219  0.2992
 4798TIP3    H235810   3.405   5.578  12.976 -0.0049 -0.1708 -0.8603
 4799TIP3   OH235811   2.056   1.593  14.907  0.0598  0.2788 -0.0675
 4799TIP3    H135812   2.089   1.682  14.915  2.4018 -0.4864 -0.3868
 4799TIP3    H235813   2.133   1.541  14.885 -1.1786 -1.8832  0.4262
 4800TIP3   OH235814   4.439   1.536   1.112  0.5406  0.0695 -0.4730
 4800TIP3    H135815   4.523   1.494   1.127  0.9505  1.0841  0.1952
 4800TIP3    H235816   4.461   1.623   1.080 -0.2779  0.0349 -1.1822
 4801TIP3   OH235817   6.718   4.023  12.212  0.5859 -0.2061 -0.1251
 4801TIP3    H135818   6.773   3.986  12.281 -1.3487  0.1733  1.7393
 4801TIP3    H235819   6.694   3.948  12.158 -0.0385 -1.0149  1.2241
 4802TIP3   OH235820   0.837   4.792   1.474  0.0471 -0.2578  0.6469
 4802TIP3    H135821   0.930   4.810   1.459  0.4369 -0.5962  2.3880
 4802TIP3    H235822   0.792   4.831   1.399  1.6848 -1.3310 -0.9769
 4803TIP3   OH235823   0.603   3.485  12.509 -0.0320  0.2932 -0.2018
 4803TIP3    H135824   0.655   3.409  12.533 -0.7876  1.0406  4.9433
 4803TIP3    H235825   0.514   3.453  12.502 -0.0985  0.3866  0.1730
 4804TIP3   OH235826   5.306   4.189   4.687 -0.7433  0.2353  0.4286
 4804TIP3    H135827   5.324   4.147   4.603 -0.6616  2.5191 -0.7652
 4804TIP3    H235828   5.210   4.198   4.688 -0.6089  2.4413 -0.6484
 4805TIP3   OH235829   6.628   0.612  10.943 -0.2511  0.2150  0.3110
 4805TIP3    H135830   6.618   0.649  11.030 -0.0074  1.0377 -0.0030
 4805TIP3    H235831   6.694   0.667  10.900  1.4671 -1.6318  0.4242
 4806TIP3   OH235832   0.320   0.305  14.607 -0.5043 -0.2262  0.0856
 4806TIP3    H135833   0.381   0.355  14.661 -0.6374  0.6523 -0.5577
 4806TIP3    H235834   0.243   0.293  14.663 -1.6730  2.8350 -0.6264
 4807TIP3   OH235835   2.630   1.393  11.313 -0.6286  0.3156  0.2669
 4807TIP3    H135836   2.614   1.439  11.231  0.8966  0.1351 -0.1458
 4807TIP3    H235837   2.651   1.304  11.286 -0.4543  0.1700  0.8826
 4808TIP3   OH235838   2.255   2.580  13.085  0.0224 -0.4688  0.3408
 4808TIP3    H135839   2.191   2.537  13.028  1.0145 -1.4963 -0.0454
 4808TIP3    H235840   2.338   2.572  13.038  0.6711 -0.3453  1.4259
 4809TIP3   OH235841   5.098   5.050  13.691 -0.1983  0.6773  0.1108
 4809TIP3    H135842   5.088   5.031  13.785  0.6749  1.6746  0.4125
 4809TIP3    H235843   5.033   4.993  13.649 -1.9733  1.6062  1.4518
 4810TIP3   OH235844   1.485   1.277   3.344 -0.5052 -0.1685  0.3689
 4810TIP3    H135845   1.547   1.293   3.416  0.3123  1.6717 -0.6562
 4810TIP3    H235846   1.402   1.312   3.376  0.2532  2.3524 -0.1329
 4811TIP3   OH235847   2.117   2.824   0.044 -0.1966  0.5685  0.1018
 4811TIP3    H135848   2.148   2.795   0.130  0.1276  0.4130 -0.0636
 4811TIP3    H235849   2.196   2.853  -0.001 -0.2793  0.1193 -0.3469
 4812TIP3   OH235850   4.651   6.001   1.603 -0.5738  0.3524  0.3810
 4812TIP3    H135851   4.621   5.976   1.516 -1.6875  0.4200  0.7247
 4812TIP3    H235852   4.601   6.080   1.624  3.4161  3.6735 -1.0330
 4813TIP3   OH235853   1.545   1.775   1.602  0.4308 -0.6106  0.3743
 4813TIP3    H135854   1.560   1.763   1.696 -1.1885 -0.3805  0.6879
 4813TIP3    H235855   1.450   1.777   1.593  0.5639 -0.2932 -1.2368
 4814TIP3   OH235856   2.431   0.706  14.306 -0.0543  0.5888 -0.2798
 4814TIP3    H135857   2.381   0.765  14.249 -1.0246  0.9082  0.8574
 4814TIP3    H235858   2.398   0.619  14.286  0.3777  0.5659 -0.9487
 4815TIP3   OH235859   6.501   4.515   4.136 -0.4902 -0.1261 -0.0962
 4815TIP3    H135860   6.473   4.570   4.208  0.8687 -0.5234  0.7808
 4815TIP3    H235861   6.443   4.439   4.139 -1.1824  0.4035 -0.1482
 4816TIP3   OH235862   6.499   0.763  15.723 -0.7826  0.5043 -0.6032
 4816TIP3    H135863   6.570   0.758  15.658 -1.2440 -0.7857 -1.0425
 4816TIP3    H235864   6.421   0.785  15.671 -1.0655 -0.0500 -0.4166
 4817TIP3   OH235865   2.681   5.474   2.641  0.0493  0.2560 -0.1891
 4817TIP3    H135866   2.668   5.558   2.597 -2.0395  0.3770  0.5612
 4817TIP3    H235867   2.626   5.412   2.593  0.4485 -0.3612  0.1357
 4818TIP3   OH235868   2.719   6.430   4.058  0.1506 -0.3320  0.0229
 4818TIP3    H135869   2.815   6.422   4.062  0.1701 -0.2310 -0.2471
 4818TIP3    H235870   2.692   6.360   3.999  0.1390  0.2331 -0.6502
 4819TIP3   OH235871   6.619   6.775  13.729 -0.4308 -0.2391  0.2150
 4819TIP3    H135872   6.567   6.707  13.772 -1.8891  0.5482 -0.2310
 4819TIP3    H235873   6.705   6.770  13.772 -0.7773 -1.7495  0.7957
 4820TIP3   OH235874   3.531   4.932  15.718  0.0633 -0.3566  0.4485
 4820TIP3    H135875   3.601   4.998  15.720  0.1801 -0.3677 -1.5385
 4820TIP3    H235876   3.545   4.881  15.798  2.4697 -0.4723  0.0426
 4821TIP3   OH235877   2.882   3.038  11.892  0.7434  0.4625  0.2872
 4821TIP3    H135878   2.877   3.111  11.831 -0.8163 -0.2489 -0.4944
 4821TIP3    H235879   2.915   3.077  11.973 -0.2787  2.0987 -0.0291
 4822TIP3   OH235880   1.636   5.800  10.781 -0.3613  0.0110  0.6673
 4822TIP3    H135881   1.593   5.714  10.784 -0.3738  0.0366  1.4890
 4822TIP3    H235882   1.576   5.858  10.827  0.2044  0.2012  1.1851
 4823TIP3   OH235883   2.060   4.703   1.432  0.4484 -0.1081 -0.5499
 4823TIP3    H135884   1.992   4.636   1.422 -1.2853  1.6019 -0.8940
 4823TIP3    H235885   2.092   4.692   1.521  0.7954 -1.9087 -0.8720
 4824TIP3   OH235886   5.030   1.485  10.944 -0.1782 -0.5886  0.0834
 4824TIP3    H135887   5.066   1.571  10.961 -1.7025 -0.2311  1.8380
 4824TIP3    H235888   5.103   1.434  10.908  0.9981  1.1277 -0.0450
 4825TIP3   OH235889   1.279   5.349  13.853 -0.3060  0.2730  0.4065
 4825TIP3    H135890   1.208   5.296  13.888  0.2943 -1.2563 -0.5820
 4825TIP3    H235891   1.354   5.289  13.851  1.2444  2.0374  2.1180
 4826TIP3   OH235892   3.037   0.017  14.051  0.2429 -1.1392 -0.2084
 4826TIP3    H135893   2.947   0.047  14.045  0.4967 -0.3116 -0.0699
 4826TIP3    H235894   3.033  -0.064  14.102 -0.3309 -0.7086  0.4278
 4827TIP3   OH235895   2.419   4.846  15.417  0.3687  0.3556  0.0940
 4827TIP3    H135896   2.432   4.930  15.461  0.6184  0.8382 -0.8859
 4827TIP3    H235897   2.329   4.821  15.439 -1.1549  2.7848 -2.6784
 4828TIP3   OH235898   2.335   5.249  11.288 -0.2518 -0.1306  0.0789
 4828TIP3    H135899   2.264   5.210  11.238  0.1613 -2.7023  1.3452
 4828TIP3    H235900   2.394   5.286  11.221 -2.6329  2.0553 -0.9870
 4829TIP3   OH235901   1.314   6.583  10.462  0.0749 -0.1805  0.0688
 4829TIP3    H135902   1.371   6.660  10.468 -1.2096  0.9812 -1.6022
 4829TIP3    H235903   1.240   6.604  10.520  1.0133 -1.4660  1.8392
 4830TIP3   OH235904   3.735   4.811   3.851 -0.2743 -0.0427 -0.5207
 4830TIP3    H135905   3.732   4.864   3.931  1.6346 -0.4826 -0.0949
 4830TIP3    H235906   3.713   4.873   3.781  1.4040  1.2423  0.0137
 4831TIP3   OH235907   1.981   1.429   2.633 -0.6510  0.1370  0.3129
 4831TIP3    H135908   2.051   1.467   2.686  0.3912  0.2485 -1.0624
 4831TIP3    H235909   1.923   1.386   2.695  0.6808 -0.0122  1.4981
 4832TIP3   OH235910   4.118   3.449  11.382 -0.4866  0.3343  0.5078
 4832TIP3    H135911   4.094   3.360  11.407 -1.8405  0.9183  1.4379
 4832TIP3    H235912   4.161   3.440  11.297 -1.8074 -1.0850 -0.0551
 4833TIP3   OH235913   0.574   3.782  13.775  0.4610 -0.2512 -0.5696
 4833TIP3    H135914   0.562   3.876  13.760  0.3973 -0.3362 -1.0817
 4833TIP3    H235915   0.626   3.776  13.855  0.3951  0.2190 -0.4925
 4834TIP3   OH235916   3.404   6.763  11.384 -0.2322  0.7473 -0.3606
 4834TIP3    H135917   3.470   6.802  11.327  0.1487 -0.2798 -0.6444
 4834TIP3    H235918   3.331   6.744  11.325 -0.0742  0.2380 -0.3949
 4835TIP3   OH235919   1.581   1.192   5.496 -0.0015 -0.2185 -0.0214
 4835TIP3    H135920   1.528   1.118   5.525 -0.1254 -0.7184 -1.4091
 4835TIP3    H235921   1.589   1.248   5.573 -2.2086 -0.3195  0.3521
 4836TIP3   OH235922   0.552   2.991   6.266 -0.5469 -0.6639  0.1988
 4836TIP3    H135923   0.461   2.966   6.286 -0.6343  0.1071  0.7933
 4836TIP3    H235924   0.545   3.044   6.186 -0.6858 -0.1482  0.5501
 4837TIP3   OH235925   2.123   2.439   1.121 -0.2829 -0.3766  0.3733
 4837TIP3    H135926   2.191   2.494   1.085  0.0813 -0.5582  0.7783
 4837TIP3    H235927   2.045   2.460   1.070 -0.2363  0.7576  0.7431
 4838TIP3   OH235928   2.837   2.595  11.537  0.1389 -0.4452  0.1715
 4838TIP3    H135929   2.917   2.646  11.523 -0.1723 -0.0218 -0.0800
 4838TIP3    H235930   2.773   2.658  11.570  0.7879 -1.3362  3.5679
 4839TIP3   OH235931   0.756   6.506   4.440  0.5425  0.2189 -0.0474
 4839TIP3    H135932   0.821   6.480   4.375 -1.1281 -1.8829 -0.9987
 4839TIP3    H235933   0.709   6.579   4.400  0.3045 -0.2912 -0.7160
 4840TIP3   OH235934   1.867   4.663  13.598 -0.5673  0.3314  0.6264
 4840TIP3    H135935   1.955   4.696  13.578 -1.0860 -0.1386 -3.2823
 4840TIP3    H235936   1.874   4.569  13.586 -1.1876  0.0115  2.4931
 4841TIP3   OH235937   3.529   2.756  16.508  0.0173 -0.0275  0.5263
 4841TIP3    H135938   3.539   2.726  16.598 -2.0212  2.6242  1.7584
 4841TIP3    H235939   3.437   2.740  16.487  0.7014 -1.6550 -1.5779
 4842TIP3   OH235940   0.941   0.967   5.224  0.1173 -0.1945 -0.3795
 4842TIP3    H135941   0.995   0.890   5.211 -0.5136 -0.5818 -0.7536
 4842TIP3    H235942   0.988   1.038   5.180 -1.6427 -1.3115 -4.5266
 4843TIP3   OH235943   4.709   5.412   0.017  0.1113 -0.5906 -0.2050
 4843TIP3    H135944   4.647   5.432   0.087  1.1573 -0.3554  0.6847
 4843TIP3    H235945   4.793   5.447   0.048  0.7791 -1.2489 -1.1890
 4844TIP3   OH235946   4.610   4.840  14.435  0.3370 -0.2540 -0.1447
 4844TIP3    H135947   4.614   4.810  14.344  1.5964  0.3594 -0.3158
 4844TIP3    H235948   4.702   4.855  14.459 -0.0825  1.0899  0.7167
 4845TIP3   OH235949   2.468   6.080   4.726 -0.4794  0.0245 -0.3451
 4845TIP3    H135950   2.436   6.052   4.811 -0.3357 -0.5841 -0.4874
 4845TIP3    H235951   2.486   6.174   4.736 -1.4866  0.1961 -0.0161
 4846TIP3   OH235952   0.848   0.360   2.541 -0.2809  0.3263  0.0928
 4846TIP3    H135953   0.892   0.325   2.463 -0.9223 -2.2324  0.8034
 4846TIP3    H235954   0.881   0.450   2.548  2.2513 -0.3964 -1.2856
 4847TIP3   OH235955   6.630   0.566  11.456  0.3989 -0.0524 -0.5564
 4847TIP3    H135956   6.669   0.494  11.407  0.4642 -1.8197  1.8823
 4847TIP3    H235957   6.583   0.523  11.528 -0.2443  2.3268  0.5469
 4848TIP3   OH235958   5.319   1.682   5.357 -0.4147  0.6223 -0.1332
 4848TIP3    H135959   5.369   1.602   5.344  0.9630  1.2944  0.8494
 4848TIP3    H235960   5.254   1.659   5.424  0.6649  0.5827  0.9339
 4849TIP3   OH235961   0.027   5.383   1.539  0.0533  0.2587 -0.6224
 4849TIP3    H135962  -0.012   5.392   1.452  0.9216 -0.2227 -1.0758
 4849TIP3    H235963   0.048   5.472   1.566 -0.2146  0.4073 -0.9060
 4850TIP3   OH235964   0.779   2.325  17.128  0.3334 -0.0673 -0.4719
 4850TIP3    H135965   0.829   2.246  17.110  1.8610  1.0133 -1.2813
 4850TIP3    H235966   0.729   2.341  17.048  0.0652 -0.1760 -0.3277
 4851TIP3   OH235967   1.418   6.091   2.736  0.3324  0.7583  0.5245
 4851TIP3    H135968   1.396   6.072   2.644  2.7587 -0.7289  0.1681
 4851TIP3    H235969   1.333   6.104   2.778 -1.2463 -2.9230 -1.0404
 4852TIP3   OH235970   1.577   3.537   3.233 -0.4319 -0.1694 -0.2249
 4852TIP3    H135971   1.673   3.536   3.231 -0.4092  0.4848  0.1383
 4852TIP3    H235972   1.551   3.572   3.148 -0.3994 -1.6235 -0.8605
 4853TIP3   OH235973   4.963   0.298   5.991 -0.7196 -0.2858  0.0515
 4853TIP3    H135974   4.965   0.261   5.903  0.9541  0.1939 -0.1460
 4853TIP3    H235975   5.024   0.243   6.041 -0.3317  0.4982  0.4524
 4854TIP3   OH235976   3.488   3.105  10.805 -0.4463 -0.1139 -0.2014
 4854TIP3    H135977   3.428   3.054  10.751  0.1559 -0.8438 -0.1910
 4854TIP3    H235978   3.437   3.183  10.830 -1.7359 -1.1573  0.5980
 4855TIP3   OH235979   2.923   5.465  16.382 -0.1295  0.5762  0.6445
 4855TIP3    H135980   2.834   5.500  16.388 -1.1237 -1.5702 -0.1421
 4855TIP3    H235981   2.919   5.382  16.430  1.6105  0.6808  1.0249
 4856TIP3   OH235982   1.588   2.421   1.666 -0.1267  0.4279  0.1838
 4856TIP3    H135983   1.621   2.456   1.749  0.7911 -0.3860  0.1780
 4856TIP3    H235984   1.552   2.497   1.620 -1.9734  0.6801  1.9144
 4857TIP3   OH235985   5.765   0.378  14.109  0.7797 -0.4036 -0.0031
 4857TIP3    H135986   5.763   0.430  14.029  1.1119 -1.2066 -0.5454
 4857TIP3    H235987   5.852   0.338  14.109  1.2241  0.5187  1.3686
 4858TIP3   OH235988   4.568   5.147   6.336  0.0183 -0.2163 -0.2019
 4858TIP3    H135989   4.536   5.177   6.251  0.0326  0.0735 -0.1061
 4858TIP3    H235990   4.547   5.054   6.338  0.8733 -0.4354 -0.9184
 4859TIP3   OH235991   3.618   5.584   2.819 -0.9873 -0.7090  0.0221
 4859TIP3    H135992   3.688   5.532   2.858 -0.6222 -0.2640 -0.0237
 4859TIP3    H235993   3.577   5.525   2.755 -0.2453 -0.7804 -0.4043
 4860TIP3   OH235994   4.729   3.169   1.260  0.3230 -0.1916 -0.0910
 4860TIP3    H135995   4.812   3.170   1.212  0.2694 -0.9897 -0.2126
 4860TIP3    H235996   4.692   3.083   1.242 -0.2655 -0.0529  0.4287
 4861TIP3   OH235997   2.765   2.302   0.347  0.3602  0.4088 -0.2884
 4861TIP3    H135998   2.741   2.214   0.316  0.5173  1.2600 -3.1150
 4861TIP3    H235999   2.858   2.311   0.326  0.7286  0.7911  1.3175
 4862TIP3   OH236000   5.663   6.749   0.044 -0.0525  0.0045  0.8423
 4862TIP3    H136001   5.712   6.672   0.016  0.1277  0.1301  0.8126
 4862TIP3    H236002   5.694   6.819  -0.013  0.4419  0.3026  1.4600
 4863TIP3   OH236003   4.981   4.487  14.235 -0.6125  0.1057 -0.2177
 4863TIP3    H136004   4.939   4.417  14.285 -0.0235 -1.4600 -1.7968
 4863TIP3    H236005   5.073   4.483  14.261 -0.7082  0.8699  0.2848
 4864TIP3   OH236006   1.542   4.070  16.038 -0.0664  0.0751 -0.1546
 4864TIP3    H136007   1.456   4.047  16.073 -0.4222  3.4677  1.6541
 4864TIP3    H236008   1.588   3.986  16.030 -3.4186 -1.8406 -1.0817
 4865TIP3   OH236009   2.214   3.373   0.664  0.0020 -0.1454 -0.1726
 4865TIP3    H136010   2.137   3.431   0.665 -0.4981 -0.7932 -0.4210
 4865TIP3    H236011   2.181   3.291   0.700  0.4117 -0.6417 -0.9223
 4866TIP3   OH236012   5.466   3.512  10.633  0.5195 -0.6454  0.0295
 4866TIP3    H136013   5.530   3.571  10.672  1.1894 -2.7852  2.4695
 4866TIP3    H236014   5.397   3.503  10.700 -1.2724 -0.1189 -1.6382
 4867TIP3   OH236015   3.326   6.422  14.117 -0.0292  0.1083  0.1276
 4867TIP3    H136016   3.307   6.330  14.096  0.7878 -0.5303  2.0238
 4867TIP3    H236017   3.361   6.420  14.206  0.2174  2.2512  0.1285
 4868TIP3   OH236018   0.382   5.881  10.772 -0.1902  0.3121  0.3085
 4868TIP3    H136019   0.396   5.903  10.680  0.7324  0.8593  0.5642
 4868TIP3    H236020   0.307   5.822  10.771 -0.1183  0.2087 -0.8047
 4869TIP3   OH236021   5.532   6.326   6.037  0.1652  0.4594  0.0778
 4869TIP3    H136022   5.586   6.249   6.052  0.7008  0.7500 -0.2912
 4869TIP3    H236023   5.446   6.303   6.071  0.4209 -0.1561  0.3211
 4870TIP3   OH236024   1.320   0.237   3.524 -0.0631  0.3048  0.7381
 4870TIP3    H136025   1.231   0.202   3.526 -0.1284  0.3670 -0.3108
 4870TIP3    H236026   1.342   0.241   3.431  1.2870 -0.3245  1.0125
 4871TIP3   OH236027   5.121   6.143   0.129 -1.0324 -0.5521 -0.2432
 4871TIP3    H136028   5.161   6.130   0.216 -2.3744 -1.4056  0.2700
 4871TIP3    H236029   5.159   6.074   0.075 -1.2785 -0.9253  0.0551
 4872TIP3   OH236030   1.299   6.231  14.106 -0.4389  0.0394 -0.1928
 4872TIP3    H136031   1.255   6.166  14.052 -0.2212  0.6285 -1.0899
 4872TIP3    H236032   1.381   6.190  14.131 -0.7627 -0.4280  0.1173
 4873TIP3   OH236033   3.508   2.658   1.364 -0.0770  0.2924  0.0678
 4873TIP3    H136034   3.435   2.675   1.305  0.8396 -2.6223 -2.1499
 4873TIP3    H236035   3.517   2.562   1.365  0.7512  0.2166  4.0828
 4874TIP3   OH236036   6.144   2.515  17.093 -0.1056 -0.1797  0.1245
 4874TIP3    H136037   6.227   2.554  17.122  0.4950  0.7542 -2.6058
 4874TIP3    H236038   6.092   2.589  17.061 -1.5366 -0.9070  0.6864
 4875TIP3   OH236039   2.054   4.365  13.043 -0.5149  0.0737 -0.3494
 4875TIP3    H136040   1.972   4.317  13.034  0.1373 -0.8258 -1.9384
 4875TIP3    H236041   2.101   4.320  13.114 -0.3868 -0.9542 -1.0693
 4876TIP3   OH236042   2.954   4.890   6.408  0.4823 -0.4372  0.8299
 4876TIP3    H136043   2.924   4.977   6.436  1.9700 -0.1855  1.7810
 4876TIP3    H236044   3.049   4.893   6.419  0.8182 -1.4250 -1.3851
 4877TIP3   OH236045   4.676   6.667  11.370  0.3019 -0.2706  0.2641
 4877TIP3    H136046   4.680   6.761  11.351 -0.5101 -0.2861 -0.0165
 4877TIP3    H236047   4.620   6.631  11.301  1.0479 -1.0521  0.0488
 4878TIP3   OH236048   1.673   1.445   1.921  0.2133 -0.1638  0.3674
 4878TIP3    H136049   1.748   1.473   1.868 -0.5541  1.7292  0.2071
 4878TIP3    H236050   1.628   1.380   1.867 -0.5476  1.7096 -1.3703
 4879TIP3   OH236051   0.057   6.099   4.778  0.7688 -0.0413  0.7890
 4879TIP3    H136052   0.015   6.156   4.843 -0.5543  1.4219 -1.2054
 4879TIP3    H236053   0.005   6.019   4.779  0.8585 -0.1033  1.5978
 4880TIP3   OH236054   0.489   6.733  15.623 -0.5426  0.2246  0.2720
 4880TIP3    H136055   0.470   6.662  15.561 -0.4247  0.0077  0.4806
 4880TIP3    H236056   0.439   6.807  15.590 -0.5998  0.0685 -0.0001
 4881TIP3   OH236057   2.675   5.701  14.959  0.1985 -0.2867 -0.4180
 4881TIP3    H136058   2.652   5.703  14.866 -0.1174 -1.4531 -0.3891
 4881TIP3    H236059   2.770   5.692  14.960  0.0270 -3.3190 -0.7535
 4882TIP3   OH236060   1.431   1.719   0.405 -0.1229  0.1905  0.1116
 4882TIP3    H136061   1.478   1.642   0.436  0.0854  1.2893  2.8065
 4882TIP3    H236062   1.355   1.684   0.358 -0.5887 -1.7142  2.1319
 4883TIP3   OH236063   2.749   6.281   3.650 -0.4917  0.8175  0.5082
 4883TIP3    H136064   2.822   6.338   3.628  0.3480  0.1054  1.3304
 4883TIP3    H236065   2.735   6.228   3.571  1.5061 -0.6968  1.0767
 4884TIP3   OH236066   5.875   6.372  14.383 -0.3272  0.3090 -0.3426
 4884TIP3    H136067   5.813   6.435  14.347 -0.3166  0.2434 -0.4798
 4884TIP3    H236068   5.823   6.293  14.400 -0.3766  0.4146 -0.0007
 4885TIP3   OH236069   1.112   0.053   2.542  0.0969  0.6934  0.0476
 4885TIP3    H136070   1.160   0.087   2.616  1.1958 -0.4583 -0.1045
 4885TIP3    H236071   1.101  -0.040   2.561 -1.0125  0.6917 -0.4948
 4886TIP3   OH236072   3.797   1.985   6.560 -0.3680 -0.0227 -0.2750
 4886TIP3    H136073   3.704   1.969   6.547 -0.4082  0.0592 -0.0795
 4886TIP3    H236074   3.805   2.081   6.563 -0.4162 -0.0478  0.7580
 4887TIP3   OH236075   5.757   4.339  14.212  0.7810  0.7114 -0.3018
 4887TIP3    H136076   5.689   4.275  14.191  1.6253 -0.8849  1.4440
 4887TIP3    H236077   5.714   4.424  14.204 -1.7562 -0.2342  1.6050
 4888TIP3   OH236078   2.296   1.274  15.277  0.1561 -0.6410  0.1246
 4888TIP3    H136079   2.272   1.200  15.222 -2.2853  0.8098 -0.9531
 4888TIP3    H236080   2.386   1.295  15.252 -0.4285 -0.8772 -2.3872
 4889TIP3   OH236081   0.064   0.934  12.490 -0.1156  0.1114 -0.0784
 4889TIP3    H136082   0.073   1.009  12.548  0.3167  0.1850 -0.2355
 4889TIP3    H236083   0.038   0.862  12.548 -1.9876  0.6997 -0.1471
 4890TIP3   OH236084   6.342   3.238  16.314  0.5820 -0.7261 -0.0631
 4890TIP3    H136085   6.323   3.292  16.238  0.2024 -1.1989 -0.3100
 4890TIP3    H236086   6.260   3.192  16.332  0.7100 -0.7283  0.5437
 4891TIP3   OH236087   0.741   5.620   2.515  0.4040 -0.3748  0.1802
 4891TIP3    H136088   0.659   5.664   2.494  0.3374 -0.0665  1.0443
 4891TIP3    H236089   0.736   5.603   2.609  1.1305 -0.7714  0.1544
 4892TIP3   OH236090   5.308   6.427   5.173 -0.1668  0.7040 -0.1824
 4892TIP3    H136091   5.269   6.513   5.183  0.1200  0.5824  2.8074
 4892TIP3    H236092   5.399   6.438   5.203  0.1087 -0.4581 -0.5302
 4893TIP3   OH236093   0.751   5.835  13.570 -0.2170 -0.2546 -0.1143
 4893TIP3    H136094   0.692   5.858  13.642 -0.7672 -0.2409 -0.5673
 4893TIP3    H236095   0.749   5.911  13.512  3.1191  1.3987  1.6332
 4894TIP3   OH236096   5.067   4.146  13.983  0.0394 -0.4590  0.0678
 4894TIP3    H136097   4.974   4.132  14.001  0.2006 -0.6842  0.7463
 4894TIP3    H236098   5.076   4.126  13.889 -1.0094  1.7296 -0.5794
 4895TIP3   OH236099   1.383   1.681   3.602  0.3735  0.3201  0.0076
 4895TIP3    H136100   1.430   1.604   3.636  2.0081  1.4234  0.3658
 4895TIP3    H236101   1.410   1.753   3.658 -2.6485  0.8846  0.9282
 4896TIP3   OH236102   3.263   5.150   2.153  0.0073  0.0824  0.2924
 4896TIP3    H136103   3.334   5.134   2.216  0.8921 -0.4759 -0.8271
 4896TIP3    H236104   3.213   5.069   2.152  0.0816  0.0381  0.1670
 4897TIP3   OH236105   4.663   5.983  11.897 -0.0028 -0.2001  0.2732
 4897TIP3    H136106   4.703   6.006  11.981  0.1705 -0.9776  0.4090
 4897TIP3    H236107   4.611   6.060  11.874  0.9971  0.5558  0.4381
 4898TIP3   OH236108   5.708   1.322   0.179 -0.0994  0.2032  0.4304
 4898TIP3    H136109   5.618   1.351   0.170 -0.2833 -0.0404  1.3814
 4898TIP3    H236110   5.702   1.227   0.189  0.1829  0.2834  1.4570
 4899TIP3   OH236111   1.643   3.099   4.408  0.1735  0.0011 -0.0702
 4899TIP3    H136112   1.578   3.129   4.345  0.6242  0.4291 -0.3371
 4899TIP3    H236113   1.702   3.173   4.419  1.2682 -0.7446 -0.6931
 4900TIP3   OH236114   0.920   0.281  11.972  0.4105 -0.3531 -0.5984
 4900TIP3    H136115   0.906   0.190  11.998  3.2629 -0.1917  2.1707
 4900TIP3    H236116   0.860   0.332  12.027 -0.5984 -0.4857 -1.5557
 4901TIP3   OH236117   1.336   1.459   0.811 -0.1505  0.1830  0.4219
 4901TIP3    H136118   1.387   1.497   0.882  2.2350 -1.7103 -0.1504
 4901TIP3    H236119   1.379   1.490   0.732 -1.0847  0.0621 -0.1422
 4902TIP3   OH236120   1.043   5.570   0.923 -0.1412 -0.0828  0.0243
 4902TIP3    H136121   1.001   5.574   0.837 -0.0738 -0.9831 -0.0575
 4902TIP3    H236122   1.033   5.659   0.959  0.3134  0.4539 -1.1278
 4903TIP3   OH236123   3.719   1.000  15.741  0.7739  0.6667  0.2731
 4903TIP3    H136124   3.657   0.960  15.679  0.6586  0.0821  0.7547
 4903TIP3    H236125   3.668   1.068  15.785  0.5801  0.4405  0.4013
 4904TIP3   OH236126   2.016   0.688   1.562 -0.4359  0.3588  0.4420
 4904TIP3    H136127   2.059   0.767   1.530  0.4684 -0.1132  0.4480
 4904TIP3    H236128   2.077   0.617   1.540 -0.7291 -0.2086  1.4060
 4905TIP3   OH236129   4.021   5.274  15.636 -0.3599  0.1020  0.2468
 4905TIP3    H136130   4.048   5.248  15.548  0.9033 -0.2556  0.7211
 4905TIP3    H236131   3.927   5.291  15.628 -0.2769  0.0311 -1.1541
 4906TIP3   OH236132   1.923   4.556  15.518  0.4283 -0.2002 -0.3551
 4906TIP3    H136133   1.982   4.509  15.460  2.0100 -1.6091  2.1967
 4906TIP3    H236134   1.941   4.520  15.605 -0.6105  2.8767  1.3038
 4907TIP3   OH236135   0.811   0.881   2.459 -0.0255 -0.1013 -0.1549
 4907TIP3    H136136   0.811   0.964   2.507  1.2905  1.3631 -2.4614
 4907TIP3    H236137   0.723   0.846   2.471 -1.2505  2.5793 -0.5453
 4908TIP3   OH236138   0.693   4.941   1.679 -0.1387 -0.0097 -0.0018
 4908TIP3    H136139   0.603   4.916   1.701 -0.1524  1.0861  1.3246
 4908TIP3    H236140   0.730   4.862   1.638 -0.7670 -1.5409  2.1837
 4909TIP3   OH236141   2.285   4.049   5.973  0.1462 -0.1142  0.4810
 4909TIP3    H136142   2.346   4.094   6.031 -2.3512  1.0708  2.3840
 4909TIP3    H236143   2.226   4.117   5.942 -1.3956 -1.4822  0.3004
 4910TIP3   OH236144   2.839   5.256  13.951 -0.2325  0.1544  0.1295
 4910TIP3    H136145   2.815   5.346  13.970  0.9236  0.3881  0.5471
 4910TIP3    H236146   2.804   5.206  14.025  0.5102  0.4822  0.7110
 4911TIP3   OH236147   0.582   4.755   3.316  0.2728  0.2872  0.4050
 4911TIP3    H136148   0.536   4.698   3.254 -0.8274 -0.3001  1.6911
 4911TIP3    H236149   0.669   4.715   3.326 -0.7125 -1.6978  1.8386
 4912TIP3   OH236150   4.341   5.785  16.106  0.4698  0.3736 -0.0622
 4912TIP3    H136151   4.393   5.796  16.027  1.7185 -1.0661  0.4950
 4912TIP3    H236152   4.395   5.822  16.176  1.2234 -1.8345  0.6431
 4913TIP3   OH236153   1.187   6.771  12.927  0.0537 -0.0641 -0.0811
 4913TIP3    H136154   1.269   6.813  12.951 -0.1318  0.7964 -0.8827
 4913TIP3    H236155   1.141   6.759  13.010  0.6617  0.1594  0.2931
 4914TIP3   OH236156   1.365   0.159  14.917 -0.0729  1.0549  0.0041
 4914TIP3    H136157   1.451   0.196  14.896  0.6668 -0.9165 -0.6707
 4914TIP3    H236158   1.384   0.084  14.972 -0.9274 -1.6791 -3.1026
 4915TIP3   OH236159   3.846   2.148   3.066 -0.4404 -0.0991  0.2194
 4915TIP3    H136160   3.806   2.073   3.110  2.0080 -1.5323  0.1703
 4915TIP3    H236161   3.902   2.188   3.132 -1.5357  1.5977  0.1684
 4916TIP3   OH236162   1.958   1.093   3.487 -0.4993  0.1511 -0.1288
 4916TIP3    H136163   2.002   1.176   3.506  0.9161 -0.1374 -1.8828
 4916TIP3    H236164   1.922   1.065   3.572 -0.2595  2.1063  0.6618
 4917TIP3   OH236165   5.668   0.180  15.196  0.2869  0.1843 -0.0620
 4917TIP3    H136166   5.736   0.239  15.165 -0.0799  0.2868 -0.6988
 4917TIP3    H236167   5.703   0.141  15.276  0.7259  0.9016  0.0950
 4918TIP3   OH236168   4.153   0.597   0.729  0.3107  0.1784  0.0740
 4918TIP3    H136169   4.133   0.535   0.659 -0.8210  2.8449 -2.1629
 4918TIP3    H236170   4.070   0.607   0.776  0.8476 -0.9687  1.3002
 4919TIP3   OH236171   2.527   2.358   0.163  0.2752  0.0261 -0.3194
 4919TIP3    H136172   2.496   2.285   0.217  1.1414 -0.9571 -1.1267
 4919TIP3    H236173   2.601   2.323   0.114  1.2107  1.6665 -0.1651
 4920TIP3   OH236174   5.987   5.343   6.212 -0.3628 -0.2811 -0.4255
 4920TIP3    H136175   5.964   5.433   6.235 -1.0650 -0.7777  0.9168
 4920TIP3    H236176   6.073   5.329   6.251  0.2123  0.1189 -1.5180
 4921TIP3   OH236177   3.363   2.848  13.232 -0.5060 -0.0588 -0.3030
 4921TIP3    H136178   3.346   2.939  13.255 -0.4198 -0.6169  2.2728
 4921TIP3    H236179   3.459   2.842  13.226 -0.5589  0.5860 -3.4493
 4922TIP3   OH236180   4.527   1.439   3.396 -0.0201  0.3647 -0.1753
 4922TIP3    H136181   4.584   1.362   3.392 -0.1297  0.0323  2.6353
 4922TIP3    H236182   4.579   1.509   3.358  0.7819 -0.6886 -1.1105
 4923TIP3   OH236183   6.780   6.675  12.611  0.0444 -0.4394  0.3626
 4923TIP3    H136184   6.816   6.671  12.700  0.2548 -0.3654  0.2802
 4923TIP3    H236185   6.685   6.668  12.624  0.0776 -0.5056  0.5877
 4924TIP3   OH236186   4.418   6.059   2.760 -0.4226  0.2280  0.4214
 4924TIP3    H136187   4.451   6.124   2.697  1.9436 -0.9452  0.3335
 4924TIP3    H236188   4.398   5.982   2.707  0.2502 -0.2968  0.9072
 4925TIP3   OH236189   4.937   1.784  15.077 -0.5428  0.5768 -0.4198
 4925TIP3    H136190   5.021   1.788  15.032  0.2060 -0.0017  0.8676
 4925TIP3    H236191   4.947   1.714  15.142 -2.2668 -0.0128 -0.7189
 4926TIP3   OH236192   0.858   5.579   5.092 -0.6210  0.1932 -0.5564
 4926TIP3    H136193   0.877   5.620   5.007  1.3257 -0.7824 -0.6444
 4926TIP3    H236194   0.889   5.643   5.156 -2.1832  0.9748 -0.5355
 4927TIP3   OH236195   2.827   2.730   2.139  0.1313 -0.3380  1.1440
 4927TIP3    H136196   2.886   2.768   2.204  0.9968 -0.4971  0.4769
 4927TIP3    H236197   2.780   2.805   2.102  1.0403 -0.0228  0.5989
 4928TIP3   OH236198   3.856   0.763   0.280 -0.2503 -0.2747  0.1090
 4928TIP3    H136199   3.870   0.782   0.373  1.7288  2.8657 -0.6361
 4928TIP3    H236200   3.814   0.843   0.246 -0.3260 -1.0840 -1.8026
 4929TIP3   OH236201   3.455   2.666  16.744  0.4364 -0.3939  0.2605
 4929TIP3    H136202   3.414   2.678  16.829 -1.2567 -3.0746 -0.0536
 4929TIP3    H236203   3.500   2.582  16.751  1.6861  0.1207 -1.0107
 4930TIP3   OH236204   1.990   3.057   6.354  0.4734  0.1242 -0.7628
 4930TIP3    H136205   2.085   3.058   6.361  0.6150  0.6268 -2.3679
 4930TIP3    H236206   1.959   3.054   6.445  2.0015  0.6506 -0.1960
 4931TIP3   OH236207   5.122   3.860   0.236  0.7472 -0.1182 -0.0524
 4931TIP3    H136208   5.198   3.916   0.254  0.2672  0.8566 -0.9494
 4931TIP3    H236209   5.092   3.888   0.150  0.7731 -2.1166 -0.7526
 4932TIP3   OH236210   6.653   2.977  13.565  0.0783  0.1375  0.1315
 4932TIP3    H136211   6.593   3.000  13.635 -0.9006 -0.4933 -0.4789
 4932TIP3    H236212   6.739   2.972  13.607 -0.1910  1.5655  0.9174
 4933TIP3   OH236213   1.867   1.517  16.416 -0.2532 -0.4623  0.2763
 4933TIP3    H136214   1.932   1.466  16.366  0.9560  0.8966  0.3940
 4933TIP3    H236215   1.886   1.496  16.507  0.1689  0.0849  0.3201
 4934TIP3   OH236216   6.425   5.116  15.372  0.1571  0.4222 -0.2889
 4934TIP3    H136217   6.515   5.104  15.401 -0.1081 -1.7610 -0.1954
 4934TIP3    H236218   6.428   5.194  15.316  1.7606  1.3415  0.9903
 4935TIP3   OH236219   2.339   2.813   1.208  0.2129 -0.4997 -0.7246
 4935TIP3    H136220   2.395   2.746   1.248  0.2074  0.6037  1.2401
 4935TIP3    H236221   2.288   2.848   1.280  0.6348  2.0308 -1.5636
 4936TIP3   OH236222   5.143   0.459   2.561  0.4304  0.5735  0.4715
 4936TIP3    H136223   5.128   0.400   2.635  1.8212 -1.7073 -0.9338
 4936TIP3    H236224   5.057   0.497   2.542 -0.3643 -0.4310  1.9005
 4937TIP3   OH236225   4.570   6.551  14.405  0.1059 -0.0682  0.7822
 4937TIP3    H136226   4.607   6.481  14.460 -0.1748  0.4586  1.6622
 4937TIP3    H236227   4.496   6.510  14.361  1.2505 -0.9251 -0.4070
 4938TIP3   OH236228   5.864   1.500  16.299 -1.0412  0.0898 -0.3135
 4938TIP3    H136229   5.833   1.575  16.249 -1.8215 -0.5611 -0.8336
 4938TIP3    H236230   5.953   1.486  16.268  0.0498  2.2754  1.5295
 4939TIP3   OH236231   2.151   3.290  14.434 -0.0091  0.1524 -0.7831
 4939TIP3    H136232   2.157   3.221  14.500  1.4537  1.2110  0.2670
 4939TIP3    H236233   2.183   3.250  14.354 -0.0475 -0.6377 -0.4162
 4940TIP3   OH236234   3.666   1.201   1.100  0.1006 -0.5454  0.1621
 4940TIP3    H136235   3.580   1.241   1.090  1.0759  2.4265  2.4765
 4940TIP3    H236236   3.728   1.273   1.088  2.2934 -2.4118 -0.4860
 4941TIP3   OH236237   4.680   1.580   1.698 -0.1545  0.1280  0.5764
 4941TIP3    H136238   4.595   1.557   1.661 -0.1194 -0.4740  0.8707
 4941TIP3    H236239   4.743   1.542   1.637 -0.0960 -0.9109  1.2668
 4942TIP3   OH236240   1.500   0.729   5.787  0.1834  0.1980 -0.2643
 4942TIP3    H136241   1.407   0.752   5.782  0.2263  0.1656 -1.3133
 4942TIP3    H236242   1.500   0.635   5.805 -0.0002  0.0081 -1.1999
 4943TIP3   OH236243   4.533   0.816  12.958 -0.0615  0.3146 -0.6311
 4943TIP3    H136244   4.579   0.804  13.041  0.0189 -0.6460 -0.8041
 4943TIP3    H236245   4.450   0.771  12.970  0.8438 -1.7855 -1.8108
 4944TIP3   OH236246   2.440   1.657   2.099  0.3826  0.3742  0.5923
 4944TIP3    H136247   2.524   1.611   2.109 -0.3758 -1.3425 -0.4268
 4944TIP3    H236248   2.400   1.652   2.186  0.3727 -0.8773  0.5445
 4945TIP3   OH236249   3.522   2.802   0.052  0.6824  0.2834  0.0241
 4945TIP3    H136250   3.468   2.723   0.056 -1.5750  1.7498  2.7232
 4945TIP3    H236251   3.582   2.787  -0.020  1.0062 -4.2441  0.9380
 4946TIP3   OH236252   2.195   1.064  15.980 -0.2152  0.5710 -0.2798
 4946TIP3    H136253   2.107   1.083  15.946 -0.4970 -0.6410 -0.2694
 4946TIP3    H236254   2.240   1.149  15.978 -1.6391  1.3837  0.4963
 4947TIP3   OH236255   3.893   5.356  11.085  0.4054  0.9670 -0.8528
 4947TIP3    H136256   3.844   5.349  11.003  2.1120  0.0047 -1.8474
 4947TIP3    H236257   3.981   5.383  11.059  0.7151  1.6970  0.7819
 4948TIP3   OH236258   5.343   5.568   1.954 -0.0632  0.3206  0.0218
 4948TIP3    H136259   5.375   5.482   1.927  1.2585  0.4402  1.1395
 4948TIP3    H236260   5.248   5.562   1.944 -0.0564 -1.5044  0.7338
 4949TIP3   OH236261   4.542   0.383  12.855 -0.0563  0.1170  0.1605
 4949TIP3    H136262   4.580   0.470  12.845 -1.3209  0.8018  0.9949
 4949TIP3    H236263   4.521   0.376  12.948 -2.1045 -0.1168 -0.2712
 4950TIP3   OH236264   1.392   2.853   3.705 -0.6750  0.3357 -0.4297
 4950TIP3    H136265   1.393   2.920   3.774  0.9868 -0.2618  0.1799
 4950TIP3    H236266   1.323   2.882   3.645  0.1884  2.7776 -0.3754
 4951TIP3   OH236267   3.359   1.643  13.724  0.4942  0.1486  0.2803
 4951TIP3    H136268   3.392   1.655  13.636 -0.7802 -0.1253 -0.2689
 4951TIP3    H236269   3.314   1.725  13.745 -0.2920 -0.2301  0.1521
 4952TIP3   OH236270   1.217   6.227   4.653  0.1384  0.0017  0.2691
 4952TIP3    H136271   1.287   6.174   4.692  0.8421  1.6133  1.3047
 4952TIP3    H236272   1.204   6.189   4.566  2.1569 -0.4677  0.1264
 4953TIP3   OH236273   5.806   0.239  11.511 -0.1023 -0.0739 -0.3535
 4953TIP3    H136274   5.743   0.197  11.570  2.1681  0.4980  2.7316
 4953TIP3    H236275   5.846   0.166  11.463 -1.5799 -0.6135 -0.8275
 4954TIP3   OH236276   4.096   5.793  12.979  0.2639  0.2931  0.5372
 4954TIP3    H136277   4.174   5.779  13.032  1.8812  0.1603 -1.7211
 4954TIP3    H236278   4.109   5.879  12.939 -0.0027 -0.3254 -0.9696
 4955TIP3   OH236279   2.668   2.721   0.899  0.9014  0.2015  0.2166
 4955TIP3    H136280   2.681   2.794   0.960  0.4296  0.5980 -0.1445
 4955TIP3    H236281   2.608   2.756   0.833 -1.5372 -1.3664  1.4811
 4956TIP3   OH236282   1.801   3.175   3.981  0.4504 -0.6673  0.0910
 4956TIP3    H136283   1.731   3.239   3.965  0.2067 -1.2023 -1.0987
 4956TIP3    H236284   1.881   3.227   3.981  0.1012 -0.1153  0.9716
 4957TIP3   OH236285   2.224   6.123  11.292 -0.0786  0.4649 -0.7276
 4957TIP3    H136286   2.185   6.111  11.379 -0.5276 -1.1491 -1.1277
 4957TIP3    H236287   2.318   6.121  11.308 -0.1576  0.7823 -0.2015
 4958TIP3   OH236288   3.029   3.232  14.221 -0.0123  0.0061  0.4140
 4958TIP3    H136289   3.018   3.298  14.153 -0.4732  1.3502  1.7265
 4958TIP3    H236290   3.072   3.159  14.177  3.2357  2.2571 -0.4965
 4959TIP3   OH236291   5.355   0.706   2.764 -0.1165  0.1200 -0.4295
 4959TIP3    H136292   5.360   0.671   2.675 -1.0894  0.6121 -0.6902
 4959TIP3    H236293   5.373   0.799   2.755 -0.1128  0.1534 -0.1024
 4960TIP3   OH236294   5.824   5.179   2.666  0.3643  0.4266 -0.1594
 4960TIP3    H136295   5.747   5.128   2.690  0.0030  1.1118  0.1857
 4960TIP3    H236296   5.789   5.263   2.637  0.9688  0.6854 -0.1569
 4961TIP3   OH236297   3.920   4.085  12.185 -0.3676  0.1197  0.5807
 4961TIP3    H136298   3.841   4.032  12.179 -0.0498 -0.3714  0.6474
 4961TIP3    H236299   3.929   4.104  12.279 -1.2142  1.4448  0.4290
 4962TIP3   OH236300   3.760   0.689   1.047 -0.2130  0.1074  0.0731
 4962TIP3    H136301   3.765   0.779   1.078 -5.9366  0.6898  0.2525
 4962TIP3    H236302   3.786   0.636   1.123 -2.1815  1.6473  1.9461
 4963TIP3   OH236303   3.010   0.868   2.145  0.7568  0.0624  0.6685
 4963TIP3    H136304   3.084   0.867   2.084  0.1648 -1.8261 -0.0712
 4963TIP3    H236305   3.017   0.786   2.193 -0.9604 -0.2595  0.4383
 4964TIP3   OH236306   0.235   3.450   4.619  0.8317  0.0533  0.2246
 4964TIP3    H136307   0.164   3.500   4.662  2.0178  0.5233  1.7524
 4964TIP3    H236308   0.267   3.509   4.550  0.1317  0.0801 -0.0856
 4965TIP3   OH236309   6.128   0.824   3.296 -0.0919 -0.3034  0.3641
 4965TIP3    H136310   6.068   0.843   3.369 -1.9978 -0.9992 -0.9247
 4965TIP3    H236311   6.170   0.907   3.277 -3.4551  1.2862 -1.0269
 4966TIP3   OH236312   3.910   4.154   4.519 -0.8741 -0.1332  0.4820
 4966TIP3    H136313   3.959   4.188   4.444 -0.9848 -1.0270 -0.0065
 4966TIP3    H236314   3.968   4.167   4.594 -0.4939  0.1664  0.1369
 4967TIP3   OH236315   0.900   1.272  13.157  0.1086 -0.2671  0.2056
 4967TIP3    H136316   0.913   1.191  13.107 -0.6487 -0.8621  0.9387
 4967TIP3    H236317   0.977   1.278  13.213  0.4575 -0.1516 -0.2778
 4968TIP3   OH236318   0.905   4.683   4.714  0.0728 -0.0422 -0.2865
 4968TIP3    H136319   0.855   4.605   4.738  0.3791 -0.9416 -2.3442
 4968TIP3    H236320   0.980   4.649   4.665 -0.1934  1.5609 -1.9003
 4969TIP3   OH236321   2.157   5.158   4.647 -0.1418  0.5575  0.0703
 4969TIP3    H136322   2.193   5.085   4.696  1.2912  0.8882 -0.4601
 4969TIP3    H236323   2.152   5.230   4.710 -2.2513 -0.1438  0.7945
 4970TIP3   OH236324   5.051   0.567   5.077 -0.2279 -0.0460 -0.2710
 4970TIP3    H136325   5.052   0.600   5.167  0.1769  0.0758 -0.3182
 4970TIP3    H236326   5.060   0.472   5.086 -3.4065 -0.4493 -0.0262
 4971TIP3   OH236327   1.001   6.224   2.762 -0.1454 -0.1172  0.1251
 4971TIP3    H136328   1.079   6.226   2.819 -2.9381 -0.6129  4.4832
 4971TIP3    H236329   0.959   6.140   2.783 -3.1462  1.2503  0.0039
 4972TIP3   OH236330   3.662   1.906  11.838 -0.2793  0.5276  0.6106
 4972TIP3    H136331   3.683   1.928  11.747  1.7597 -2.4871  0.1834
 4972TIP3    H236332   3.728   1.951  11.890  1.3789 -1.2306  0.1218
 4973TIP3   OH236333   5.678   0.982  12.515 -0.6161  0.2593  0.1744
 4973TIP3    H136334   5.638   0.895  12.521 -0.3586  0.0600 -0.8351
 4973TIP3    H236335   5.633   1.023  12.442 -0.2669  0.7286  0.2223
 4974TIP3   OH236336   6.301   0.418  13.106  0.0759 -0.1298  0.5430
 4974TIP3    H136337   6.296   0.428  13.201  2.5332 -1.1148  0.8528
 4974TIP3    H236338   6.287   0.507  13.072  0.3622  0.4611  1.9021
 4975TIP3   OH236339   6.084   5.024   5.350 -0.1374 -0.0879 -0.0761
 4975TIP3    H136340   6.017   5.071   5.300  0.3528 -0.0239 -0.6689
 4975TIP3    H236341   6.108   5.084   5.420  0.5282  0.5847 -0.8656
 4976TIP3   OH236342   5.137   2.647   6.222  0.1028 -0.3464  0.1901
 4976TIP3    H136343   5.106   2.634   6.132 -0.2857 -1.2233  0.4425
 4976TIP3    H236344   5.087   2.722   6.253  1.7359  1.3156 -0.9984
 4977TIP3   OH236345   5.943   4.338  13.911  0.4460  0.0874  0.6548
 4977TIP3    H136346   5.982   4.350  13.824 -0.9337  1.6197  0.1904
 4977TIP3    H236347   5.947   4.244  13.926  0.3969 -0.2668 -1.2458
 4978TIP3   OH236348   6.630   5.628  15.281 -0.0976  0.0979 -0.2834
 4978TIP3    H136349   6.585   5.567  15.222  0.0941 -2.6149  2.1598
 4978TIP3    H236350   6.719   5.595  15.285  0.4460  1.5422 -0.0765
 4979TIP3   OH236351   3.827   2.894  11.513 -0.2149  0.1158  0.3584
 4979TIP3    H136352   3.812   2.919  11.422 -1.1272 -1.1545  0.1415
 4979TIP3    H236353   3.886   2.819  11.509  0.1423  0.3657  0.8435
 4980TIP3   OH236354   0.507   0.539   4.659  0.5518 -0.3096  0.4331
 4980TIP3    H136355   0.596   0.511   4.677  1.4805  0.0688 -2.9202
 4980TIP3    H236356   0.516   0.617   4.604 -1.9048  0.7425  1.3302
 4981TIP3   OH236357   4.104   5.871  17.129 -0.3732 -0.1845  0.1805
 4981TIP3    H136358   4.084   5.833  17.044 -1.7253 -1.2154  0.9141
 4981TIP3    H236359   4.032   5.933  17.145  0.0668  0.2702  0.4169
 4982TIP3   OH236360   1.967   0.181   1.867 -0.1544  0.4979 -0.3025
 4982TIP3    H136361   1.876   0.207   1.879 -0.0562  1.3761 -1.3282
 4982TIP3    H236362   2.017   0.242   1.922 -0.2324 -0.7861  1.2743
 4983TIP3   OH236363   3.015   0.587  16.848  0.1315 -0.8454  0.0862
 4983TIP3    H136364   2.937   0.572  16.902  0.3617  1.3194  1.1201
 4983TIP3    H236365   3.005   0.526  16.775 -2.5382 -0.6786  0.1910
 4984TIP3   OH236366   1.207   6.319  12.233 -0.4984  0.0548  0.2214
 4984TIP3    H136367   1.231   6.351  12.146  0.0713 -0.3702  0.2175
 4984TIP3    H236368   1.175   6.397  12.279 -0.8340  0.2759 -0.3732
 4985TIP3   OH236369   5.024   5.634  11.758  0.0924 -0.3584 -0.0460
 4985TIP3    H136370   4.987   5.560  11.711  1.5029 -0.7111 -0.6520
 4985TIP3    H236371   4.963   5.706  11.741 -1.8310 -1.5752  1.3792
 4986TIP3   OH236372   0.287   4.331  12.975 -0.0829 -0.5404 -0.0151
 4986TIP3    H136373   0.231   4.374  13.040 -0.0494  0.5118 -0.6595
 4986TIP3    H236374   0.307   4.246  13.013  0.2010  0.1750  1.5146
 4987TIP3   OH236375   2.019   5.233   3.693 -0.0033  0.5910  0.2077
 4987TIP3    H136376   1.969   5.206   3.770 -2.4578 -1.0469 -1.7781
 4987TIP3    H236377   1.956   5.283   3.640  1.8767  2.5037 -0.3897
 4988TIP3   OH236378   0.282   1.450  15.080 -0.3781 -0.2194 -0.4009
 4988TIP3    H136379   0.293   1.412  15.167 -0.0204 -1.6137 -1.0355
 4988TIP3    H236380   0.243   1.536  15.096 -0.2083 -0.4065  1.1367
 4989TIP3   OH236381   5.911   3.695  16.873 -0.6689 -0.4365  0.4901
 4989TIP3    H136382   5.828   3.661  16.839 -1.0940  1.1909 -0.1919
 4989TIP3    H236383   5.954   3.734  16.797  1.6159 -2.8031  0.4394
 4990TIP3   OH236384   0.769   4.326   5.851 -0.5079 -0.2650 -0.3542
 4990TIP3    H136385   0.701   4.324   5.919 -0.0178 -1.7140  0.1328
 4990TIP3    H236386   0.843   4.370   5.894 -1.4339  2.4144 -1.2602
 4991TIP3   OH236387   2.769   0.051   3.875  0.2846  0.1768 -0.2490
 4991TIP3    H136388   2.752   0.082   3.786 -1.3520  0.4149  0.1097
 4991TIP3    H236389   2.682   0.041   3.914  0.8804 -1.7663  0.7191
 4992TIP3   OH236390   5.968   0.952  11.738 -0.8547  0.3850 -0.4493
 4992TIP3    H136391   5.916   0.874  11.723 -2.1699  1.1413  0.0679
 4992TIP3    H236392   5.943   1.012  11.667  1.2778 -0.1694 -1.7765
 4993TIP3   OH236393   0.579   5.513  14.468  0.0238 -0.1541 -0.4096
 4993TIP3    H136394   0.642   5.566  14.517 -0.3598 -1.4313  1.5875
 4993TIP3    H236395   0.494   5.541  14.501 -0.3464  0.0013 -1.4641
 4994TIP3   OH236396   1.803   6.760   1.672  0.0918 -0.3536 -0.7456
 4994TIP3    H136397   1.893   6.735   1.692  0.2315 -0.2035 -1.1821
 4994TIP3    H236398   1.774   6.695   1.608  0.2768  0.2740 -1.4797
 4995TIP3   OH236399   1.790   0.705  15.075 -0.5981 -0.3759  0.0490
 4995TIP3    H136400   1.815   0.613  15.070  1.4721 -0.0478  2.5735
 4995TIP3    H236401   1.713   0.706  15.131 -0.2200 -0.5223  0.5739
 4996TIP3   OH236402   3.251   0.497   0.977 -0.1382 -0.0265 -0.0847
 4996TIP3    H136403   3.343   0.518   0.960  0.6730 -2.9630  0.2238
 4996TIP3    H236404   3.220   0.460   0.895 -0.2941 -1.3132  0.5383
 4997TIP3   OH236405   3.861   6.319   0.856 -0.8031  0.2270  0.5081
 4997TIP3    H136406   3.789   6.353   0.909 -1.1956 -0.0964  0.1859
 4997TIP3    H236407   3.940   6.346   0.903 -1.1421 -0.1449  1.3122
 4998TIP3   OH236408   1.338   5.605  10.422  0.2415 -0.0388  0.5572
 4998TIP3    H136409   1.267   5.626  10.483 -0.3329  0.0992 -0.1354
 4998TIP3    H236410   1.360   5.514  10.440 -1.3488 -0.6534 -0.3969
 4999TIP3   OH236411   3.428   5.291  12.177 -0.0844  0.4783  0.2518
 4999TIP3    H136412   3.500   5.346  12.206 -0.8819  1.8126 -0.2172
 4999TIP3    H236413   3.457   5.202  12.196  0.8699  1.0834  1.8787
 5000TIP3   OH236414   0.962   5.731   4.585 -0.3659  0.0832  0.2537
 5000TIP3    H136415   0.979   5.825   4.593  1.2573 -0.0466 -1.0689
 5000TIP3    H236416   1.049   5.691   4.591 -0.9115 -1.2379 -0.4130
 5001TIP3   OH236417   6.285   6.148  13.168 -0.7884  0.2822 -0.2170
 5001TIP3    H136418   6.235   6.073  13.135  0.3375  0.1271 -1.6925
 5001TIP3    H236419   6.315   6.193  13.089  1.3719  0.3905  0.6079
 5002TIP3   OH236420   5.089   0.469   5.669 -0.0561  0.5426 -0.2238
 5002TIP3    H136421   5.092   0.374   5.661  0.1317  0.5190  0.1117
 5002TIP3    H236422   5.132   0.488   5.753  0.3434  0.9543 -0.5148
 5003TIP3   OH236423   5.806   4.322   4.991 -0.0942  0.3645 -0.3958
 5003TIP3    H136424   5.753   4.340   5.068  2.7484  0.7592  1.6346
 5003TIP3    H236425   5.798   4.400   4.937 -2.0691  0.1146 -0.5166
 5004TIP3   OH236426   3.189   3.956  14.351  0.3102  0.1779 -0.0479
 5004TIP3    H136427   3.129   4.022  14.318  1.6643 -0.5599 -4.8120
 5004TIP3    H236428   3.159   3.874  14.311  2.2103 -0.8915  0.5414
 5005TIP3   OH236429   3.636   0.082   0.039  1.3220 -0.0918 -0.1567
 5005TIP3    H136430   3.548   0.083   0.076  1.4468 -2.3672  0.3677
 5005TIP3    H236431   3.623   0.096  -0.055  0.4187 -0.2589 -0.0634
 5006TIP3   OH236432   6.324   0.558  12.309  0.9818  0.0194  0.2758
 5006TIP3    H136433   6.397   0.579  12.250  0.8099 -1.4373 -0.4910
 5006TIP3    H236434   6.343   0.469  12.340 -1.5620 -1.3682 -1.7336
 5007TIP3   OH236435   1.365   0.339  10.989 -0.2413  0.1639  0.0227
 5007TIP3    H136436   1.366   0.268  11.052 -2.0826  0.8446  0.8720
 5007TIP3    H236437   1.404   0.414  11.035 -0.7000  0.4046  0.0232
 5008TIP3   OH236438   1.351   6.723   1.384 -0.9830 -0.5681 -0.0330
 5008TIP3    H136439   1.334   6.800   1.438 -0.9501 -0.4630 -0.1700
 5008TIP3    H236440   1.387   6.658   1.444  0.1417 -0.0616 -0.1399
 5009TIP3   OH236441   4.257   4.985   5.150  0.7372  0.3487 -0.5504
 5009TIP3    H136442   4.297   4.902   5.176  3.0541  0.7600 -2.4866
 5009TIP3    H236443   4.330   5.047   5.148 -0.2965  1.6029 -2.5299
 5010TIP3   OH236444   5.362   6.473   3.008  0.1966  0.2431  0.3727
 5010TIP3    H136445   5.372   6.385   2.971  0.8334  0.9646 -1.2255
 5010TIP3    H236446   5.450   6.497   3.036 -0.1700 -0.0442  1.8619
 5011TIP3   OH236447   0.508   5.459  11.299  0.0127  0.3189  0.3017
 5011TIP3    H136448   0.576   5.507  11.346 -1.5240  1.1856  1.7659
 5011TIP3    H236449   0.497   5.507  11.217  0.8827  0.4007  0.2260
 5012TIP3   OH236450   6.129   0.684  14.744 -0.2449  0.1428 -0.6625
 5012TIP3    H136451   6.201   0.656  14.799 -1.8245 -0.4075  1.2493
 5012TIP3    H236452   6.116   0.612  14.683 -1.9703 -1.9316  1.9066
 5013TIP3   OH236453   5.506   1.161   5.897 -0.0448 -0.2109  0.0490
 5013TIP3    H136454   5.507   1.228   5.965 -2.1029  1.2907 -1.2597
 5013TIP3    H236455   5.509   1.078   5.944  1.2311  0.7716  1.7917
 5014TIP3   OH236456   4.078   4.842   4.361  1.0927 -0.3339 -0.2759
 5014TIP3    H136457   4.098   4.864   4.451  1.8026 -0.7667 -0.3134
 5014TIP3    H236458   4.053   4.925   4.320  0.2631 -0.2213  0.4356
 5015TIP3   OH236459   5.288   0.053   2.317 -0.5351 -0.2872 -0.3739
 5015TIP3    H136460   5.243   0.120   2.266 -0.1601  0.1915 -0.0837
 5015TIP3    H236461   5.225   0.029   2.386  0.3611  1.8930  1.3291
 5016TIP3   OH236462   1.417   3.671   5.001 -0.2769 -0.6183  0.4202
 5016TIP3    H136463   1.445   3.599   5.058 -0.5646 -2.6754 -1.8577
 5016TIP3    H236464   1.360   3.724   5.057 -0.8719 -2.7190  1.9685
 5017TIP3   OH236465   5.594   3.376  14.866 -0.1350 -0.1953 -0.6853
 5017TIP3    H136466   5.575   3.391  14.959  0.0659  1.2644 -0.8489
 5017TIP3    H236467   5.515   3.405  14.821 -0.3421 -1.1737 -0.9635
 5018TIP3   OH236468   3.330   1.464   3.524 -0.2740 -0.1736  0.3864
 5018TIP3    H136469   3.278   1.508   3.456 -0.8268  1.2531  1.6739
 5018TIP3    H236470   3.268   1.402   3.564 -0.7624  0.8771  1.3137
 5019TIP3   OH236471   0.581   5.363   2.868  0.6218 -0.4595 -0.1809
 5019TIP3    H136472   0.634   5.340   2.944  0.9473 -0.7097 -0.4785
 5019TIP3    H236473   0.530   5.438   2.896  2.3082  0.8163 -0.3806
 5020TIP3   OH236474   2.314   4.394  13.501  0.1296  0.4870  0.7333
 5020TIP3    H136475   2.352   4.473  13.538 -0.4360  1.0247  0.1851
 5020TIP3    H236476   2.232   4.423  13.461 -1.0740 -0.6966  2.2003
 5021TIP3   OH236477   1.114   1.100   4.177  0.1706 -0.1500 -0.0288
 5021TIP3    H136478   1.079   1.017   4.209  3.0338 -0.9658  1.2653
 5021TIP3    H236479   1.117   1.156   4.255 -0.3795  0.6953 -0.5981
 5022TIP3   OH236480   0.399   3.636   2.242  0.0847  0.1242 -0.1227
 5022TIP3    H136481   0.488   3.649   2.209  0.2338  1.3306  0.6962
 5022TIP3    H236482   0.370   3.555   2.201  2.2344 -1.3358  1.0603
 5023TIP3   OH236483   5.175   2.944   3.088 -0.3378 -0.4360 -0.2799
 5023TIP3    H136484   5.205   2.986   3.169  2.0278 -2.0472 -0.2145
 5023TIP3    H236485   5.080   2.946   3.094 -0.2494  1.0587  1.6825
 5024TIP3   OH236486   6.660   4.739  13.370  0.2142 -0.8091 -0.2156
 5024TIP3    H136487   6.641   4.816  13.423 -2.0094 -1.5581  0.1802
 5024TIP3    H236488   6.656   4.666  13.432 -0.5957 -1.5143 -1.0755
 5025TIP3   OH236489   0.939   5.900  11.834 -0.4322  0.0124 -0.0037
 5025TIP3    H136490   0.880   5.920  11.906  1.1974  0.2837  1.3039
 5025TIP3    H236491   0.958   5.807  11.843  1.4770  0.4733  1.3088
 5026TIP3   OH236492   0.980   6.188   3.962  0.2959  0.2859  0.3734
 5026TIP3    H136493   1.032   6.176   3.882 -0.5335 -0.2261 -0.1042
 5026TIP3    H236494   1.035   6.242   4.018  0.4026  1.6815 -1.0198
 5027TIP3   OH236495   6.349   3.667   3.078  0.0440 -0.8119  0.0790
 5027TIP3    H136496   6.408   3.606   3.033  0.8754  0.2382 -0.2794
 5027TIP3    H236497   6.278   3.681   3.015 -0.2087 -1.4704  0.2020
 5028TIP3   OH236498   3.177   0.815  11.840  0.2647  0.1331 -0.2431
 5028TIP3    H136499   3.206   0.739  11.789 -1.1496 -1.7083  1.5221
 5028TIP3    H236500   3.258   0.859  11.866  1.0618  0.8170 -3.4207
 5029TIP3   OH236501   4.575   1.292  11.805  0.3387  0.1259 -0.2670
 5029TIP3    H136502   4.616   1.274  11.721  0.4505  0.6126 -0.3211
 5029TIP3    H236503   4.647   1.293  11.868  0.3760  0.6847 -0.3152
 5030TIP3   OH236504   3.322   3.392  12.194 -0.0482 -0.6017  0.1348
 5030TIP3    H136505   3.415   3.391  12.214 -0.1019  0.4131  0.5269
 5030TIP3    H236506   3.315   3.439  12.111 -0.3089  0.6695  0.8491
 5031TIP3   OH236507   1.777   2.882   0.621 -0.6614 -0.0332 -0.2149
 5031TIP3    H136508   1.863   2.850   0.593  1.2289  2.5162  2.0302
 5031TIP3    H236509   1.764   2.963   0.573 -0.3792  1.0578  1.4394
 5032TIP3   OH236510   6.697   5.373  16.461 -0.5809  0.2010 -0.5787
 5032TIP3    H136511   6.601   5.378  16.457 -0.6193  0.3170  0.2017
 5032TIP3    H236512   6.718   5.286  16.428 -0.9560  0.1930 -0.7999
 5033TIP3   OH236513   0.599   4.178   5.476 -0.1811 -0.0471 -0.2512
 5033TIP3    H136514   0.518   4.128   5.488  0.0386 -0.8010 -1.6638
 5033TIP3    H236515   0.570   4.262   5.441 -0.3810 -0.2386 -0.5567
 5034TIP3   OH236516   2.768   5.318  12.670 -0.2498 -0.4170 -0.4385
 5034TIP3    H136517   2.674   5.332  12.658 -0.0390  2.0003  0.1683
 5034TIP3    H236518   2.791   5.370  12.747  1.9020  0.6116 -1.6621
 5035TIP3   OH236519   2.072   3.724  13.762 -0.0102 -0.7200 -0.2022
 5035TIP3    H136520   2.042   3.814  13.776 -0.0692 -0.2956 -2.6080
 5035TIP3    H236521   2.155   3.719  13.808  0.1030  0.6463 -0.2101
 5036TIP3   OH236522   1.124   3.197  12.776 -0.5643 -0.1128  0.3157
 5036TIP3    H136523   1.138   3.206  12.870 -0.4416 -1.5468  0.4647
 5036TIP3    H236524   1.173   3.118  12.752 -1.3817 -0.3164 -0.7625
 5037TIP3   OH236525   3.185   4.020   0.851 -0.1824  0.0518 -0.2436
 5037TIP3    H136526   3.233   3.946   0.815  1.7276  0.4658  1.3204
 5037TIP3    H236527   3.145   3.987   0.931 -3.1573 -0.4526 -1.7996
 5038TIP3   OH236528   2.805   4.990  12.281 -0.2279 -0.2368 -0.6414
 5038TIP3    H136529   2.739   4.968  12.346 -0.8485 -0.9917 -1.5001
 5038TIP3    H236530   2.778   5.076  12.247 -0.8259 -0.5775 -1.0461
 5039TIP3   OH236531   0.269   1.347   0.388 -0.4175  0.0523 -0.0852
 5039TIP3    H136532   0.268   1.264   0.436 -2.1791  0.7635  1.2308
 5039TIP3    H236533   0.357   1.352   0.350  0.0527 -1.9407  0.6078
 5040TIP3   OH236534   0.610   2.154   0.173 -0.4713 -0.3942 -0.4378
 5040TIP3    H136535   0.589   2.155   0.266 -1.0956 -1.1503 -0.5615
 5040TIP3    H236536   0.702   2.182   0.169 -0.1791 -1.1756  0.4783
 5041TIP3   OH236537   3.668   1.097   4.177  0.4349 -0.6208 -0.1896
 5041TIP3    H136538   3.641   1.188   4.192  1.0622 -0.5738  0.7320
 5041TIP3    H236539   3.742   1.103   4.117 -1.3677 -0.7388 -2.5867
 5042TIP3   OH236540   3.583   5.647  11.855  0.2513 -0.5424  0.1831
 5042TIP3    H136541   3.540   5.620  11.935 -1.5295 -1.7537 -1.1008
 5042TIP3    H236542   3.628   5.568  11.824  0.5207 -0.2204 -0.2625
 5043TIP3   OH236543   4.869   5.875   4.146 -0.1476  0.0180 -0.2750
 5043TIP3    H136544   4.895   5.846   4.059  1.4253  1.1344 -0.2157
 5043TIP3    H236545   4.899   5.805   4.204 -0.0490 -0.1397 -0.5127
 5044TIP3   OH236546   2.396   1.855  11.656 -0.3004  0.5139 -0.8005
 5044TIP3    H136547   2.428   1.915  11.723 -0.6186 -0.8358  0.5923
 5044TIP3    H236548   2.468   1.848  11.593  0.3595  1.0735 -0.1169
 5045TIP3   OH236549   1.438   4.122  14.072  0.3191 -0.3981  0.0158
 5045TIP3    H136550   1.493   4.199  14.054  0.0657  0.1900  1.6460
 5045TIP3    H236551   1.369   4.127  14.005  0.5194  0.5715 -0.1450
 5046TIP3   OH236552   5.911   1.612   3.858 -0.0006  0.1544 -0.8945
 5046TIP3    H136553   5.831   1.584   3.902 -0.0564 -1.1383 -1.7617
 5046TIP3    H236554   5.955   1.670   3.921 -0.6834 -0.6336  0.3300
 5047TIP3   OH236555   2.081   5.794  15.091 -0.6657  0.2997 -0.3421
 5047TIP3    H136556   2.100   5.850  15.016 -0.2427  1.0789  0.3298
 5047TIP3    H236557   2.070   5.707  15.054  0.1264  0.5686 -1.2436
 5048TIP3   OH236558   3.412   1.801   5.700  0.2702 -0.0958  0.0823
 5048TIP3    H136559   3.435   1.884   5.658 -0.5028  0.1853  0.1913
 5048TIP3    H236560   3.476   1.790   5.770  0.6478  0.1855 -0.2154
 5049TIP3   OH236561   0.652   1.465  15.981 -0.3689  0.3194 -0.4214
 5049TIP3    H136562   0.744   1.453  16.002 -0.5341 -0.0505  0.1027
 5049TIP3    H236563   0.609   1.474  16.066 -0.7679  0.8781 -0.6734
 5050TIP3   OH236564   4.385   6.759   4.502 -0.2372 -0.0558 -0.1345
 5050TIP3    H136565   4.322   6.689   4.518  1.6402 -1.8650 -0.2103
 5050TIP3    H236566   4.448   6.750   4.573  1.1225  0.2424 -1.2617
 5051TIP3   OH236567   5.118   1.320  12.771  0.1121 -0.1598  0.7987
 5051TIP3    H136568   5.199   1.282  12.805  1.1485  1.1761 -0.0716
 5051TIP3    H236569   5.148   1.386  12.709 -1.6300  1.6145  1.7782
 5052TIP3   OH236570   4.920   1.980   0.965  0.2112 -0.7700 -0.1253
 5052TIP3    H136571   4.953   2.067   0.943 -1.2711 -0.3391 -0.8524
 5052TIP3    H236572   4.831   1.979   0.928  0.2030 -2.5952 -0.1271
 5053TIP3   OH236573   4.681   2.031   0.155 -0.0104  0.0375 -0.1781
 5053TIP3    H136574   4.758   1.990   0.194 -0.0147 -0.2155 -0.4375
 5053TIP3    H236575   4.640   1.962   0.104 -0.5090  0.1253  0.0969
 5054TIP3   OH236576   1.203   3.582   4.826 -0.0615 -0.3348 -0.3695
 5054TIP3    H136577   1.158   3.499   4.844 -1.6511  0.5492 -0.1536
 5054TIP3    H236578   1.277   3.581   4.887 -1.4064 -0.5607  1.3430
 5055TIP3   OH236579   1.557   6.326   3.490 -0.0523  0.2316  0.3951
 5055TIP3    H136580   1.537   6.238   3.457  1.2903 -0.5316  1.5106
 5055TIP3    H236581   1.494   6.383   3.445 -1.2016 -1.3321 -0.0819
 5056TIP3   OH236582   5.598   4.713  13.264 -0.3691  0.1757 -0.7285
 5056TIP3    H136583   5.545   4.663  13.327  0.6837 -1.1851 -0.8889
 5056TIP3    H236584   5.571   4.681  13.179  0.2352 -0.0366 -0.8420
 5057TIP3   OH236585   4.126   1.658   0.627 -0.0030 -0.3250 -0.4623
 5057TIP3    H136586   4.110   1.637   0.719  1.6774 -0.2329 -0.1208
 5057TIP3    H236587   4.194   1.597   0.600 -0.9784 -0.8364 -1.8777
 5058TIP3   OH236588   5.035   1.729  11.483 -0.0424  0.1234 -0.0846
 5058TIP3    H136589   5.065   1.818  11.464  0.0865  0.2884  0.8179
 5058TIP3    H236590   5.025   1.687  11.398 -1.5184  1.4583 -0.6083
 5059TIP3   OH236591   1.860   6.671  14.315 -0.7838  0.2295  0.1934
 5059TIP3    H136592   1.913   6.592  14.318 -0.2228  0.6152  0.7813
 5059TIP3    H236593   1.771   6.640  14.302 -0.4370 -0.4376 -0.6855
 5060TIP3   OH236594   3.721   1.473   6.023 -0.1431 -0.6743  0.3496
 5060TIP3    H136595   3.664   1.451   6.097 -3.3961  2.1188 -1.0348
 5060TIP3    H236596   3.804   1.497   6.064 -0.9089 -1.8633  2.8168
 5061TIP3   OH236597   4.696   6.680  16.094  0.2232 -0.3148  0.1099
 5061TIP3    H136598   4.643   6.674  16.014  0.6810 -2.5940 -0.1053
 5061TIP3    H236599   4.634   6.661  16.165  0.5172 -2.0460 -0.0625
 5062TIP3   OH236600   1.461   2.495  17.070  0.0129 -0.5274 -0.0178
 5062TIP3    H136601   1.556   2.487  17.075 -0.1493 -2.7769  1.0624
 5062TIP3    H236602   1.441   2.575  17.117  1.3745  0.0200 -0.3208
 5063TIP3   OH236603   0.656   3.130  16.582  0.0821 -0.1611  0.0739
 5063TIP3    H136604   0.664   3.223  16.559 -0.7641 -0.0705  0.0796
 5063TIP3    H236605   0.566   3.122  16.614 -0.5821 -1.3741 -1.8993
 5064TIP3   OH236606   2.942   4.140  14.029  0.5031  0.5457 -0.1395
 5064TIP3    H136607   2.971   4.229  14.012 -1.3435  1.3909  0.8698
 5064TIP3    H236608   2.846   4.145  14.030  0.2868 -1.7112 -1.3996
 5065TIP3   OH236609   1.941   1.152  15.445  0.2109  0.4562  0.3876
 5065TIP3    H136610   1.892   1.070  15.450 -0.7216  0.9396 -0.5475
 5065TIP3    H236611   1.886   1.216  15.489  0.1310  0.9344 -0.3881
 5066TIP3   OH236612   2.699   0.908  10.967  0.2571 -0.6751  0.1009
 5066TIP3    H136613   2.618   0.858  10.972  0.0442 -0.4403 -0.7484
 5066TIP3    H236614   2.760   0.851  10.921  0.4695 -0.7179  0.4327
 5067TIP3   OH236615   0.048   0.904  16.028  0.2060 -0.0909 -0.5411
 5067TIP3    H136616  -0.035   0.903  15.981  0.0766  0.4605 -0.3283
 5067TIP3    H236617   0.028   0.865  16.113 -0.3903  2.0841  0.3953
 5068TIP3   OH236618   5.850   2.339   0.274  0.2159 -0.0258 -0.1953
 5068TIP3    H136619   5.937   2.322   0.310  0.4603 -2.2612 -1.6494
 5068TIP3    H236620   5.791   2.284   0.326  0.1475 -0.9013 -1.1589
 5069TIP3   OH236621   5.319   1.504   2.346 -0.3341 -0.0194 -0.0714
 5069TIP3    H136622   5.337   1.575   2.408 -1.3650  0.5752 -0.4322
 5069TIP3    H236623   5.319   1.546   2.260  0.1368 -0.6639 -0.3933
 5070TIP3   OH236624   3.354   1.607   1.287 -0.2245  0.5408  0.0927
 5070TIP3    H136625   3.368   1.552   1.364  0.3547  2.2435  1.2578
 5070TIP3    H236626   3.270   1.650   1.302  0.6806  2.2089  0.6825
 5071TIP3   OH236627   1.482   4.301   2.352  0.0543  0.0907 -0.0590
 5071TIP3    H136628   1.423   4.290   2.426 -2.9013 -0.7451 -2.3558
 5071TIP3    H236629   1.466   4.225   2.296  3.1396 -0.0167 -1.0197
 5072TIP3   OH236630   3.489   3.113  15.605 -0.2941 -0.4946 -1.2298
 5072TIP3    H136631   3.431   3.043  15.575 -1.6641  0.1388 -0.1721
 5072TIP3    H236632   3.447   3.147  15.684  1.3038  0.3096 -0.6872
 5073TIP3   OH236633   3.062   2.847   3.791 -0.0934 -0.2918  0.4184
 5073TIP3    H136634   3.092   2.926   3.747  2.0802 -0.9333  0.6210
 5073TIP3    H236635   2.981   2.824   3.747  0.9100  0.2520 -1.8308
 5074TIP3   OH236636   0.528   6.174   1.875  0.3606 -1.1832 -0.0269
 5074TIP3    H136637   0.504   6.213   1.791  1.1101  1.1087  0.7577
 5074TIP3    H236638   0.608   6.124   1.856 -0.0753 -1.5891 -0.8592
 5075TIP3   OH236639   3.567   6.362   1.511  0.7904 -0.3826 -0.3398
 5075TIP3    H136640   3.658   6.347   1.484  0.9724 -0.1032  0.0996
 5075TIP3    H236641   3.554   6.456   1.499  2.3139  0.7885  4.5805
 5076TIP3   OH236642   2.422   6.136  13.430  0.2599 -0.3562 -0.0980
 5076TIP3    H136643   2.377   6.138  13.514  1.1543 -0.5481  0.4040
 5076TIP3    H236644   2.364   6.181  13.369  0.5272  1.7039  1.0916
 5077TIP3   OH236645   6.285   6.550   2.611 -0.2948  0.0165  0.3668
 5077TIP3    H136646   6.243   6.554   2.526 -0.3289  0.3239  0.3942
 5077TIP3    H236647   6.216   6.574   2.673  0.2158  1.8631  0.3050
 5078TIP3   OH236648   2.291   3.264   5.712  0.0314 -0.3487 -0.0057
 5078TIP3    H136649   2.201   3.234   5.721 -0.3188  0.7262  0.1290
 5078TIP3    H236650   2.330   3.249   5.798 -0.3008  0.0880  0.2237
 5079TIP3   OH236651   5.172   6.705  11.732  0.0312 -0.1376  0.5878
 5079TIP3    H136652   5.205   6.677  11.817  1.4881 -1.2431 -0.2833
 5079TIP3    H236653   5.249   6.701  11.674 -0.1942  3.4288 -0.1808
 5080TIP3   OH236654   5.550   6.201   0.526  0.1423  0.0720  0.5811
 5080TIP3    H136655   5.563   6.227   0.435 -1.9325 -1.0839 -0.1065
 5080TIP3    H236656   5.566   6.106   0.527  1.2716  0.2355  1.6999
 5081TIP3   OH236657   4.895   5.843   5.303 -0.4461  0.1477 -0.1535
 5081TIP3    H136658   4.914   5.784   5.376 -1.5960 -0.4419 -0.3003
 5081TIP3    H236659   4.872   5.926   5.345 -0.3688  0.0315  0.1252
 5082TIP3   OH236660   4.075   4.355  15.130  0.1533 -0.5097 -0.1094
 5082TIP3    H136661   4.109   4.332  15.044 -2.0086  1.7441 -1.7167
 5082TIP3    H236662   4.030   4.276  15.160 -1.2267 -0.6374 -2.2810
 5083TIP3   OH236663   6.161   6.511  14.307 -0.3961 -0.0404  0.2598
 5083TIP3    H136664   6.081   6.459  14.297  0.2283 -1.2147  1.1611
 5083TIP3    H236665   6.163   6.534  14.400  1.0603 -1.2976  0.5696
 5084TIP3   OH236666   3.142   1.256   3.907 -0.4588  0.4999 -0.5204
 5084TIP3    H136667   3.048   1.249   3.922 -0.3055 -1.6952 -0.3232
 5084TIP3    H236668   3.151   1.329   3.846 -2.2891  0.6007 -0.7323
 5085TIP3   OH236669   2.514   5.617   3.636 -0.5911 -0.4447  0.4447
 5085TIP3    H136670   2.445   5.658   3.583 -1.1810 -0.9935  0.7670
 5085TIP3    H236671   2.470   5.543   3.678  0.1825 -0.7506  0.7250
 5086TIP3   OH236672   3.092   5.799   3.346 -0.3433  0.5164 -0.3182
 5086TIP3    H136673   3.003   5.774   3.324 -0.7932  2.6611 -1.1808
 5086TIP3    H236674   3.092   5.808   3.442 -0.2865 -1.9939 -0.0117
 5087TIP3   OH236675   3.887   1.540   3.715 -0.3911 -0.1942  0.5691
 5087TIP3    H136676   3.947   1.473   3.747 -0.8136 -0.3661  1.0128
 5087TIP3    H236677   3.800   1.503   3.728 -0.6319  0.4308  0.7953
 5088TIP3   OH236678   6.209   2.184   0.968 -0.0586  0.3748  0.7864
 5088TIP3    H136679   6.281   2.120   0.972  0.0429  0.3520 -0.9245
 5088TIP3    H236680   6.131   2.133   0.992  0.2865  0.0741  1.3033
 5089TIP3   OH236681   3.166   3.289   0.654  0.3024  0.4160  0.0479
 5089TIP3    H136682   3.083   3.241   0.647  1.1125 -1.5240  2.3600
 5089TIP3    H236683   3.149   3.372   0.610 -1.8020 -1.1987 -2.4808
 5090TIP3   OH236684   6.506   4.508  13.529  0.1108  0.2134 -0.2759
 5090TIP3    H136685   6.549   4.424  13.512 -2.1402 -1.1279  0.2283
 5090TIP3    H236686   6.531   4.528  13.620 -0.0263 -0.3570 -0.1053
 5091TIP3   OH236687   4.997   0.610  16.045  0.3781 -0.0453 -0.3736
 5091TIP3    H136688   4.931   0.659  15.995 -0.8973 -2.4700 -1.2596
 5091TIP3    H236689   4.953   0.587  16.127  0.4633 -0.8223 -0.5386
 5092TIP3   OH236690   0.305   3.450  16.510  0.7102 -0.1433  0.4748
 5092TIP3    H136691   0.255   3.403  16.444 -0.9848  1.4169  0.5595
 5092TIP3    H236692   0.369   3.501  16.461 -0.7494  1.2572 -0.0792
 5093TIP3   OH236693   3.888   1.944  14.266 -0.0346  0.1664 -0.5069
 5093TIP3    H136694   3.799   1.977  14.256 -0.2915 -0.5299 -0.5818
 5093TIP3    H236695   3.893   1.917  14.358 -0.7156 -2.0381 -1.0532
 5094TIP3   OH236696   6.559   2.705   3.403  0.4155  0.1138  0.0449
 5094TIP3    H136697   6.579   2.653   3.325 -0.0039 -0.1070  0.0806
 5094TIP3    H236698   6.593   2.792   3.382  0.2644  0.0706 -0.4098
 5095TIP3   OH236699   6.308   0.524   5.031 -0.1588  0.1285  0.4492
 5095TIP3    H136700   6.215   0.541   5.017  0.2381  1.6139 -0.6683
 5095TIP3    H236701   6.322   0.436   4.997 -1.1452 -0.1152  0.6358
 5096TIP3   OH236702   5.416   0.367   4.548  0.9106  0.3392  0.0601
 5096TIP3    H136703   5.446   0.332   4.464  0.4603 -0.5496  0.2522
 5096TIP3    H236704   5.483   0.340   4.611  0.2495 -0.8026  0.3208
 5097TIP3   OH236705   1.521   4.435  14.542 -0.1520 -0.4802 -0.1040
 5097TIP3    H136706   1.507   4.447  14.449  0.6387  0.7637 -0.0743
 5097TIP3    H236707   1.512   4.522  14.580 -0.8189 -1.0177  1.0428
 5098TIP3   OH236708   4.609   6.107  14.567 -0.2185 -0.2648  0.0566
 5098TIP3    H136709   4.577   6.060  14.644 -1.0070 -0.0710 -0.1450
 5098TIP3    H236710   4.531   6.147  14.529  0.5629  2.2051  0.8781
 5099TIP3   OH236711   5.510   6.178   0.931  0.0995  0.2050  0.3350
 5099TIP3    H136712   5.590   6.138   0.896 -1.8187 -1.0793 -3.0403
 5099TIP3    H236713   5.511   6.267   0.895  0.0826  0.2246  0.3833
 5100TIP3   OH236714   1.177   2.091   1.704  0.1530  0.3080 -0.1641
 5100TIP3    H136715   1.191   2.002   1.671 -0.2648  0.2327 -0.1477
 5100TIP3    H236716   1.096   2.119   1.661 -1.3799 -0.4263  2.0696
 5101TIP3   OH236717   3.427   0.891  16.884  0.3161  0.2694 -0.2949
 5101TIP3    H136718   3.360   0.941  16.929 -1.3680 -2.1428  0.0504
 5101TIP3    H236719   3.500   0.887  16.945 -1.2397 -1.4068  1.6007
 5102TIP3   OH236720   6.031   3.667   1.152  0.2166 -0.4006  0.4304
 5102TIP3    H136721   6.000   3.729   1.217  0.9978  0.2026  0.2350
 5102TIP3    H236722   6.052   3.588   1.202 -1.6860 -0.8868  0.5585
 5103TIP3   OH236723   4.107   4.604   4.598  0.0367 -0.0321  0.2732
 5103TIP3    H136724   4.103   4.589   4.692  1.2165  0.2482  0.3859
 5103TIP3    H236725   4.017   4.591   4.568 -0.2825 -0.5131  1.3710
 5104TIP3   OH236726   2.844   4.600  13.401 -0.3542  0.5694  0.1135
 5104TIP3    H136727   2.817   4.514  13.367  1.3852  0.6426 -1.5785
 5104TIP3    H236728   2.861   4.584  13.494 -2.1952 -0.3800  0.3310
 5105TIP3   OH236729   0.579   5.615  13.852 -0.3164 -0.2916 -0.4644
 5105TIP3    H136730   0.496   5.607  13.898  0.4636 -1.2591  0.8835
 5105TIP3    H236731   0.592   5.709  13.840 -1.0407 -0.0636  0.4145
 5106TIP3   OH236732   4.197   2.962  11.197 -0.2907 -0.4580  0.2505
 5106TIP3    H136733   4.218   2.980  11.288 -2.5348 -3.3455  1.4925
 5106TIP3    H236734   4.246   2.882  11.176  0.6377  0.4619 -1.3392
 5107TIP3   OH236735   1.650   3.026  15.019 -0.7512  0.1942  0.6323
 5107TIP3    H136736   1.678   3.068  15.101  1.6636 -1.0775  0.5691
 5107TIP3    H236737   1.708   3.065  14.953 -1.4139 -0.1420 -0.1494
 5108TIP3   OH236738   2.626   5.340  10.251  0.2551 -0.2061  0.0150
 5108TIP3    H136739   2.675   5.274  10.300  0.0308 -0.2484  0.1849
 5108TIP3    H236740   2.575   5.290  10.187 -0.5177 -0.2717  0.6615
 5109TIP3   OH236741   4.665   4.111   4.982  0.4445 -0.0641  0.8873
 5109TIP3    H136742   4.689   4.201   5.007 -2.5727  1.3007 -0.6388
 5109TIP3    H236743   4.639   4.118   4.891  1.5597 -2.8879  0.2643
 5110TIP3   OH236744   4.704   1.630   3.640  0.1854  0.2499 -0.7330
 5110TIP3    H136745   4.613   1.648   3.664  0.3270  0.9238 -0.6652
 5110TIP3    H236746   4.745   1.604   3.722 -0.1037 -0.7830 -0.8969
 5111TIP3   OH236747   2.487   5.446   0.204 -0.2691  0.4246  0.4983
 5111TIP3    H136748   2.461   5.455   0.296  0.0175 -2.5665  0.9725
 5111TIP3    H236749   2.452   5.361   0.178  2.2186 -0.1570 -1.2519
 5112TIP3   OH236750   1.105   6.741  15.085  0.6723 -0.4233 -0.4223
 5112TIP3    H136751   1.073   6.699  15.005 -1.0393  0.4678 -0.2551
 5112TIP3    H236752   1.154   6.817  15.054  0.1096 -0.1433 -0.6543
 5113TIP3   OH236753   2.332   5.434  13.889 -0.0416  0.2678  0.1860
 5113TIP3    H136754   2.287   5.350  13.878  0.1724  0.2769 -0.9040
 5113TIP3    H236755   2.300   5.487  13.816  0.5851  0.7881  0.2906
 5114TIP3   OH236756   0.056   5.426   6.070  0.6387 -0.1266 -0.1793
 5114TIP3    H136757   0.106   5.396   6.145 -0.5069 -1.5521  0.0514
 5114TIP3    H236758  -0.029   5.382   6.078 -0.7261  2.2485 -0.5028
 5115TIP3   OH236759   0.423   5.009  14.144  0.5174 -0.1173  0.1279
 5115TIP3    H136760   0.479   5.032  14.219  0.4213 -1.1965  0.5451
 5115TIP3    H236761   0.421   5.089  14.091  0.6362  0.6622  1.2443
 5116TIP3   OH236762   2.927   5.688   0.869  0.4305 -0.1212 -0.0049
 5116TIP3    H136763   2.965   5.758   0.923 -1.3972 -0.4625  1.8545
 5116TIP3    H236764   2.952   5.607   0.913 -0.1613 -0.4627 -0.2852
 5117TIP3   OH236765   0.466   0.984   5.396  0.2358 -0.1529 -0.1894
 5117TIP3    H136766   0.509   0.916   5.447  0.0431 -0.6875 -0.7295
 5117TIP3    H236767   0.535   1.017   5.338 -0.0558 -1.0132 -1.0585
 5118TIP3   OH236768   4.626   0.003  12.507  0.0449 -0.0677  0.6916
 5118TIP3    H136769   4.616   0.011  12.602  0.7491 -0.0755  0.7736
 5118TIP3    H236770   4.720   0.015  12.492  0.0858 -1.0416  0.0936
 5119TIP3   OH236771   3.115   5.215   0.110  0.5998 -0.1898 -0.0865
 5119TIP3    H136772   3.184   5.150   0.102  1.1680  0.2409  1.0843
 5119TIP3    H236773   3.153   5.284   0.165 -1.7194 -1.3616  3.3686
 5120TIP3   OH236774   5.668   5.208  11.436 -0.5136 -0.0189 -0.1019
 5120TIP3    H136775   5.756   5.241  11.455 -1.0807  0.9736  0.9389
 5120TIP3    H236776   5.675   5.170  11.349  1.3225 -1.3423  0.5523
 5121TIP3   OH236777   6.710   2.051   5.937  0.6082  0.2751 -0.0795
 5121TIP3    H136778   6.729   2.073   6.028 -0.4634 -0.0575  0.2301
 5121TIP3    H236779   6.625   2.089   5.919  0.3512 -0.5223 -0.6324
 5122TIP3   OH236780   4.624   3.094   2.725  0.3789 -0.6745  0.2425
 5122TIP3    H136781   4.668   3.178   2.740 -1.1517  0.3664 -0.7328
 5122TIP3    H236782   4.684   3.044   2.670  1.3583 -0.2826  0.9242
 5123TIP3   OH236783   1.670   3.297  11.530 -0.7305 -0.0902  0.2904
 5123TIP3    H136784   1.614   3.230  11.569  0.0187 -0.8479  0.0958
 5123TIP3    H236785   1.625   3.380  11.550 -1.8428 -0.6587  0.2415
 5124TIP3   OH236786   1.935   0.606  13.316  0.1149 -0.2100 -0.2812
 5124TIP3    H136787   1.864   0.564  13.364  1.7144 -0.5686  1.9761
 5124TIP3    H236788   1.935   0.696  13.347  0.8516 -0.3144  0.0574
 5125TIP3   OH236789   3.719   2.425   2.317 -0.5106 -0.2996 -0.1442
 5125TIP3    H136790   3.756   2.467   2.239  0.7265  0.7133  0.9343
 5125TIP3    H236791   3.668   2.494   2.359 -1.1100 -0.8209 -0.0019
 5126TIP3   OH236792   5.364   2.554   6.363  0.2674  0.7999  0.3831
 5126TIP3    H136793   5.281   2.570   6.318  0.8055 -0.8644 -1.3545
 5126TIP3    H236794   5.409   2.638   6.362 -0.6761  1.3124 -0.2423
 5127TIP3   OH236795   4.527   4.409  10.492 -0.2078 -0.0368 -0.7129
 5127TIP3    H136796   4.442   4.384  10.458 -0.3622 -1.2133  0.4391
 5127TIP3    H236797   4.585   4.336  10.468 -0.1064 -0.4233  0.6109
 5128TIP3   OH236798   6.365   1.525  16.207 -0.6971  0.2528 -0.1757
 5128TIP3    H136799   6.329   1.510  16.294  0.8186  0.3636  0.5091
 5128TIP3    H236800   6.414   1.445  16.187 -1.4241  0.0333 -1.1419
 5129TIP3   OH236801   0.754   3.991  15.457  0.4505 -0.9005  0.5287
 5129TIP3    H136802   0.660   3.990  15.437 -0.3496 -0.4172  3.6249
 5129TIP3    H236803   0.780   4.082  15.442  0.2909 -0.9175  0.1416
 5130TIP3   OH236804   3.658   3.173  14.529  0.5132  0.3745 -0.5819
 5130TIP3    H136805   3.668   3.173  14.624 -3.0628 -1.0804 -0.0695
 5130TIP3    H236806   3.643   3.081  14.507 -1.1953  0.9942 -2.2006
 5131TIP3   OH236807   5.846   5.138  10.837 -1.0691  0.0374  0.5849
 5131TIP3    H136808   5.895   5.129  10.918 -0.9462 -1.2799  0.3793
 5131TIP3    H236809   5.785   5.065  10.837 -0.4451 -0.5149 -0.9311
 5132TIP3   OH236810   3.048   0.575   5.952  0.2802  0.6467  0.0516
 5132TIP3    H136811   3.052   0.633   6.028  0.0762  0.9615 -0.1783
 5132TIP3    H236812   2.986   0.616   5.893 -2.4653 -1.4156  1.2649
 5133TIP3   OH236813   6.135   3.655   6.390  0.0655  0.4700  0.1843
 5133TIP3    H136814   6.083   3.593   6.441 -2.0040 -0.9010 -3.2123
 5133TIP3    H236815   6.081   3.734   6.387  0.6693  0.9191  0.9376
 5134TIP3   OH236816   2.912   3.960   3.796  0.2439  0.2510 -0.7051
 5134TIP3    H136817   2.879   3.928   3.712 -0.6884  0.4298 -0.4246
 5134TIP3    H236818   2.834   3.993   3.842  0.8504  0.9011 -0.0973
 5135TIP3   OH236819   4.860   3.552   0.028  0.1646  0.0960 -0.5210
 5135TIP3    H136820   4.869   3.473   0.082  0.2431 -0.4176 -1.2761
 5135TIP3    H236821   4.767   3.571   0.029  0.1438 -0.0109 -0.3452
 5136TIP3   OH236822   0.864   3.878  12.621 -0.0820  0.5223  0.4086
 5136TIP3    H136823   0.892   3.962  12.585 -0.8941  0.9608  0.7713
 5136TIP3    H236824   0.802   3.844  12.556  0.3461  0.1337  0.1975
 5137TIP3   OH236825   6.123   3.802   1.543 -0.6102 -0.3816 -0.1322
 5137TIP3    H136826   6.044   3.828   1.496  1.5091  0.6017 -3.5688
 5137TIP3    H236827   6.094   3.733   1.603 -4.2774  1.1305  0.0614
 5138TIP3   OH236828   4.753   5.954  16.604 -0.4935 -0.6093 -0.6621
 5138TIP3    H136829   4.698   5.879  16.622 -0.1210 -1.3760 -2.4962
 5138TIP3    H236830   4.797   5.973  16.687 -1.6561 -1.4987  0.1822
 5139TIP3   OH236831   5.380   1.401   3.602  0.3028 -0.0818  0.2455
 5139TIP3    H136832   5.435   1.353   3.540 -0.6367 -0.2550 -0.4827
 5139TIP3    H236833   5.422   1.487   3.608  0.3597 -0.0205 -0.7250
 5140TIP3   OH236834   0.290   1.291  12.276  0.2312 -0.1430  0.0324
 5140TIP3    H136835   0.205   1.248  12.270  0.4257 -0.5064 -0.1859
 5140TIP3    H236836   0.344   1.246  12.211  1.2038 -1.3536  1.6045
 5141TIP3   OH236837   0.792   5.056   1.910  0.4220 -0.2729  0.0530
 5141TIP3    H136838   0.879   5.019   1.927  0.0104 -0.3307  2.3538
 5141TIP3    H236839   0.761   5.008   1.833  1.0921 -2.6661  1.1638
 5142TIP3   OH236840   3.812   4.495   4.632 -0.1853  0.0896 -0.5936
 5142TIP3    H136841   3.765   4.429   4.684 -0.2930  0.6205 -0.0068
 5142TIP3    H236842   3.746   4.532   4.574  0.1677 -1.3264 -1.9989
 5143TIP3   OH236843   6.382   1.175  12.844 -0.7294 -0.2425 -0.4075
 5143TIP3    H136844   6.301   1.211  12.807 -0.7898  0.9635  0.8166
 5143TIP3    H236845   6.384   1.207  12.934  1.3198  0.1449 -0.5239
 5144TIP3   OH236846   1.652   0.318  12.823 -0.1967  0.0489 -0.2447
 5144TIP3    H136847   1.725   0.378  12.841 -1.2917  1.5618 -0.6221
 5144TIP3    H236848   1.621   0.344  12.736 -0.9647 -0.8012 -0.2355
 5145TIP3   OH236849   2.310   2.714  11.057 -0.2622 -0.5606 -0.3664
 5145TIP3    H136850   2.275   2.802  11.068 -2.1460 -1.3031 -0.0750
 5145TIP3    H236851   2.279   2.666  11.134 -1.6854 -2.1844 -1.8614
 5146TIP3   OH236852   4.724   2.886  14.056  0.3013  0.2562 -0.2600
 5146TIP3    H136853   4.667   2.940  14.002  1.2129  0.3088 -1.1992
 5146TIP3    H236854   4.701   2.796  14.033 -0.1193  0.2633  0.1310
 5147TIP3   OH236855   4.888   5.831   3.332  0.1341 -0.0024  0.1794
 5147TIP3    H136856   4.857   5.917   3.360 -0.2949 -0.5064  1.3201
 5147TIP3    H236857   4.879   5.832   3.237 -2.8344  0.1180  0.3776
 5148TIP3   OH236858   1.183   5.784  11.226 -0.6424 -0.2610  0.4770
 5148TIP3    H136859   1.189   5.698  11.267 -3.0693 -0.1609  1.1846
 5148TIP3    H236860   1.272   5.802  11.195  0.0832 -2.6763  0.9524
 5149TIP3   OH236861   0.021   1.752   2.621  0.0707 -0.0980  0.3730
 5149TIP3    H136862   0.032   1.817   2.552  2.2989 -2.4831 -1.7603
 5149TIP3    H236863   0.108   1.747   2.662  1.1362 -3.8709 -1.8168
 5150TIP3   OH236864   1.052   1.491   5.567 -0.0073 -0.9956 -0.4739
 5150TIP3    H136865   1.102   1.477   5.648 -0.3230 -0.4311 -0.1759
 5150TIP3    H236866   0.995   1.415   5.561 -0.0903 -0.9691 -0.0798
 5151TIP3   OH236867   1.784   4.235  12.710 -0.7567 -0.1228  0.5621
 5151TIP3    H136868   1.777   4.279  12.794  2.5832  0.9335  0.4105
 5151TIP3    H236869   1.798   4.143  12.731  3.4939  0.5367  1.5229
 5152TIP3   OH236870   5.173   5.904   4.633  0.0204  0.1937  0.3579
 5152TIP3    H136871   5.218   5.954   4.701  0.0751  1.9506 -0.8840
 5152TIP3    H236872   5.123   5.970   4.584 -0.4116 -1.0752 -0.9972
 5153TIP3   OH236873   3.176   3.264  12.699  0.0874 -0.1355  0.2588
 5153TIP3    H136874   3.214   3.177  12.711  0.3591  0.1152  1.2614
 5153TIP3    H236875   3.204   3.314  12.776 -0.9253  0.5278  0.2181
 5154TIP3   OH236876   5.865   4.500  15.509  0.1487 -0.4435 -0.7681
 5154TIP3    H136877   5.858   4.421  15.455 -0.9855  0.3311 -1.8010
 5154TIP3    H236878   5.897   4.567  15.450 -1.3236  0.4805 -0.5560
 5155TIP3   OH236879   4.994   5.977  12.931 -0.0684  0.0449 -0.1844
 5155TIP3    H136880   5.080   6.019  12.920 -0.6503  1.9767  1.9630
 5155TIP3    H236881   5.014   5.888  12.960  1.2602  0.9731  1.9304
 5156TIP3   OH236882   1.275   1.186  16.072 -0.2499 -0.3475 -0.3928
 5156TIP3    H136883   1.330   1.211  16.147 -0.2279 -2.5496  0.3870
 5156TIP3    H236884   1.289   1.256  16.008  3.1446 -0.5972 -0.0807
 5157TIP3   OH236885   4.423   1.627   1.373 -0.2475  0.2078 -0.7403
 5157TIP3    H136886   4.371   1.584   1.440 -0.3380  0.6585 -0.5210
 5157TIP3    H236887   4.395   1.587   1.291 -0.3363 -0.1443 -0.5382
 5158TIP3   OH236888   4.116   4.453   2.137  0.2251  0.2764 -0.0552
 5158TIP3    H136889   4.177   4.458   2.064  1.9281  1.7885  1.3947
 5158TIP3    H236890   4.147   4.380   2.190  0.9462  1.1643  0.7819
 5159TIP3   OH236891   1.994   3.202  15.890 -0.0301  0.1661  0.1382
 5159TIP3    H136892   1.943   3.276  15.859  1.3836  0.6472 -1.1231
 5159TIP3    H236893   2.085   3.227  15.876  0.4899 -2.3381 -1.6693
 5160TIP3   OH236894   6.219   1.329   0.825 -0.1947 -0.0606 -0.7329
 5160TIP3    H136895   6.182   1.360   0.742 -0.9679 -1.4205 -0.9345
 5160TIP3    H236896   6.205   1.401   0.886 -1.5526  0.1524 -1.2670
 5161TIP3   OH236897   1.630   6.010  15.203 -0.0187  0.1849  0.3401
 5161TIP3    H136898   1.561   6.033  15.265 -1.0319  2.0257 -1.3574
 5161TIP3    H236899   1.607   5.923  15.172 -1.2844  0.5431  0.2227
 5162TIP3   OH236900   1.541   0.467   4.545  0.2786 -0.1711  0.4065
 5162TIP3    H136901   1.538   0.440   4.453  1.0429  0.9465  0.0239
 5162TIP3    H236902   1.449   0.486   4.567 -0.0025 -1.1068  0.1004
 5163TIP3   OH236903   1.174   3.828  10.956  0.0354  0.1780 -0.2825
 5163TIP3    H136904   1.094   3.855  10.911 -0.0068 -0.1424 -0.4038
 5163TIP3    H236905   1.183   3.889  11.029 -0.2997  0.2389 -0.2917
 5164TIP3   OH236906   6.245   2.631   1.309 -0.1164 -0.0116  0.0891
 5164TIP3    H136907   6.216   2.539   1.306  1.6730 -0.6086 -1.6394
 5164TIP3    H236908   6.218   2.662   1.395 -1.3955 -1.9475  0.4592
 5165TIP3   OH236909   2.068   5.530  14.989 -0.4062 -0.2265 -0.5382
 5165TIP3    H136910   2.137   5.544  14.924  1.3168 -2.1108  0.7618
 5165TIP3    H236911   2.012   5.464  14.949  0.8583 -1.6565 -0.0309
 5166TIP3   OH236912   2.472   6.207   2.934 -0.2208  0.2589  0.6285
 5166TIP3    H136913   2.441   6.149   2.864  1.2117 -0.5192  0.5910
 5166TIP3    H236914   2.560   6.175   2.954  0.4035  2.0973  1.0084
 5167TIP3   OH236915   2.104   5.022  17.048  0.0801 -0.3559  0.0822
 5167TIP3    H136916   2.023   4.975  17.025 -0.1129  0.1065 -0.2023
 5167TIP3    H236917   2.120   5.000  17.139 -0.0756 -0.8750 -0.0094
 5168TIP3   OH236918   5.118   6.162  16.293 -0.9511 -0.4436 -0.0177
 5168TIP3    H136919   5.131   6.255  16.277 -0.9817 -0.2938  0.7962
 5168TIP3    H236920   5.110   6.123  16.205  0.8605  0.0516 -0.4548
 5169TIP3   OH236921   5.752   5.349  13.915  0.0464  0.3533 -0.3135
 5169TIP3    H136922   5.762   5.435  13.957  0.6721  0.2807 -0.3051
 5169TIP3    H236923   5.664   5.351  13.878  0.9591  2.0511 -2.6231
 5170TIP3   OH236924   3.093   0.495  16.236 -0.4233 -0.5029 -0.1974
 5170TIP3    H136925   3.108   0.588  16.217  1.9227 -0.8233 -0.2494
 5170TIP3    H236926   3.174   0.465  16.276 -0.1947 -3.0553 -2.2621
 5171TIP3   OH236927   4.102   4.772  12.536 -0.0487 -0.4371 -0.0051
 5171TIP3    H136928   4.134   4.726  12.458  0.8857  0.9207 -0.4540
 5171TIP3    H236929   4.177   4.825  12.565 -0.1589 -1.3462  2.1892
 5172TIP3   OH236930   6.281   3.865  10.621 -0.7598  0.6369 -0.2068
 5172TIP3    H136931   6.346   3.935  10.605  1.2155 -1.2404 -0.9528
 5172TIP3    H236932   6.317   3.815  10.694 -2.3493  0.5949  0.5838
 5173TIP3   OH236933   3.438   3.311   2.224 -0.2307  0.3842  0.2724
 5173TIP3    H136934   3.476   3.225   2.206  0.2459  0.7574 -0.5830
 5173TIP3    H236935   3.513   3.370   2.227 -0.6244  0.9190 -0.1066
 5174TIP3   OH236936   2.484   5.084  16.403 -0.5118  0.3903  0.2486
 5174TIP3    H136937   2.438   5.040  16.475  0.2507  0.1201  0.5798
 5174TIP3    H236938   2.453   5.175  16.408  0.4224  0.6710  1.7038
 5175TIP3   OH236939   3.247   2.670  11.906  0.1182 -0.1578  0.5531
 5175TIP3    H136940   3.303   2.716  11.842  0.5308  0.0290  1.0456
 5175TIP3    H236941   3.164   2.719  11.904 -0.7197 -1.5231 -1.5343
 5176TIP3   OH236942   2.341   2.938  15.925  0.3022  0.1311 -0.2687
 5176TIP3    H136943   2.433   2.914  15.934  0.1907  0.4057  1.9731
 5176TIP3    H236944   2.296   2.854  15.911  0.4893 -0.5215  2.5533
 5177TIP3   OH236945   6.374   4.329   5.003 -0.2067 -0.1253 -0.2391
 5177TIP3    H136946   6.408   4.271   5.071 -0.5331 -0.9050 -0.7376
 5177TIP3    H236947   6.310   4.277   4.955  0.2738  0.2872 -1.3781
 5178TIP3   OH236948   5.032   3.018  16.074 -0.0274 -0.6853 -0.3273
 5178TIP3    H136949   5.064   3.044  15.988  0.7792  0.5827  0.3385
 5178TIP3    H236950   4.966   3.084  16.096  0.4068 -0.4876  0.4005
 5179TIP3   OH236951   4.010   1.907  12.960  0.1737 -0.1631 -0.2091
 5179TIP3    H136952   3.966   1.956  12.890 -2.2057 -0.5138  0.9642
 5179TIP3    H236953   4.101   1.899  12.929  0.1491  2.9682 -1.5062
 5180TIP3   OH236954   6.443   4.782  15.832  0.5722  0.4690  0.5539
 5180TIP3    H136955   6.354   4.807  15.806  1.3753  1.6014 -1.3258
 5180TIP3    H236956   6.468   4.714  15.770  1.4722  1.0735  0.2414
 5181TIP3   OH236957   6.645   4.550   1.599  0.7584 -0.0394  0.4898
 5181TIP3    H136958   6.693   4.593   1.528  0.5060  1.7425  1.3518
 5181TIP3    H236959   6.575   4.503   1.554  1.9063 -0.7771 -0.6033
 5182TIP3   OH236960   5.764   6.101   0.866  0.0276 -0.3199 -0.8336
 5182TIP3    H136961   5.839   6.053   0.830  0.9403  0.2201  0.2878
 5182TIP3    H236962   5.803   6.161   0.930 -1.4380 -0.5953  0.3663
 5183TIP3   OH236963   5.550   5.155  13.808 -0.4037 -0.2074  0.1264
 5183TIP3    H136964   5.566   5.139  13.715  0.1503  1.9364 -0.2048
 5183TIP3    H236965   5.487   5.088  13.834 -0.3497 -1.0259 -1.7112
 5184TIP3   OH236966   2.957   0.351  16.008 -0.6641  0.3186 -0.3667
 5184TIP3    H136967   3.024   0.376  16.071  1.0171 -4.0757 -0.0792
 5184TIP3    H236968   2.967   0.414  15.937  2.7915  0.8171  0.3618
 5185TIP3   OH236969   5.300   3.351  14.668 -0.3950 -0.4711  0.3350
 5185TIP3    H136970   5.239   3.423  14.653 -0.8747 -1.1317 -1.0831
 5185TIP3    H236971   5.364   3.357  14.597  0.1133 -0.8819  0.7452
 5186TIP3   OH236972   6.438   3.103   3.490  0.0770 -0.1286 -0.3712
 5186TIP3    H136973   6.397   3.027   3.531 -0.0160 -0.5005 -1.1459
 5186TIP3    H236974   6.465   3.158   3.564 -0.2336 -0.7087  0.1843
 5187TIP3   OH236975   0.728   6.134   2.946  0.2245  0.0181  0.5584
 5187TIP3    H136976   0.748   6.205   2.884  3.4244 -0.5373  0.7638
 5187TIP3    H236977   0.697   6.063   2.890  0.1855  0.4949 -0.0464
 5188TIP3   OH236978   4.983   4.225   3.592  0.5165 -0.4183  0.2721
 5188TIP3    H136979   5.001   4.218   3.685 -1.2233  0.7651  0.7541
 5188TIP3    H236980   4.912   4.163   3.576  0.1819  0.0462 -0.0674
 5189TIP3   OH236981   5.615   5.890  16.673 -0.0707 -0.1674  0.1247
 5189TIP3    H136982   5.674   5.939  16.615  1.1100  1.0118  2.2166
 5189TIP3    H236983   5.529   5.929  16.659 -0.1882 -1.0716 -2.0505
 5190TIP3   OH236984   3.663   1.400  16.457 -0.0149  0.1967  0.1165
 5190TIP3    H136985   3.611   1.394  16.378 -0.0006 -0.7733  0.1687
 5190TIP3    H236986   3.618   1.342  16.519  1.3253 -0.9704  0.0352
 5191TIP3   OH236987   2.944   6.754   4.794 -0.8550 -0.3818  1.0465
 5191TIP3    H136988   3.027   6.712   4.769 -0.7372  0.1900  0.4240
 5191TIP3    H236989   2.947   6.840   4.750 -1.4359 -0.0480  1.6451
 5192TIP3   OH236990   4.156   3.190   1.004  0.0849  0.8708  0.7203
 5192TIP3    H136991   4.135   3.217   1.094  0.5926 -0.0679  1.1388
 5192TIP3    H236992   4.084   3.223   0.951  0.2566  2.2716  1.3316
 5193TIP3   OH236993   0.937   4.406   2.630  0.0991 -0.3005  0.4277
 5193TIP3    H136994   0.955   4.337   2.566  0.6503  1.0355 -0.9078
 5193TIP3    H236995   1.020   4.416   2.679 -0.4136 -1.5328  1.6231
 5194TIP3   OH236996   4.104   3.212   2.989 -0.3535 -0.1900 -0.1309
 5194TIP3    H136997   4.097   3.298   2.949  2.6179 -0.4991 -1.5253
 5194TIP3    H236998   4.077   3.151   2.920 -1.5183 -0.4752  0.5415
 5195TIP3   OH236999   0.556   0.014   3.566  0.3990  0.0275 -0.1853
 5195TIP3    H137000   0.614  -0.047   3.521 -1.8379 -1.7037 -0.9086
 5195TIP3    H237001   0.475   0.013   3.514 -0.2117  2.6140  0.5535
 5196TIP3   OH237002   2.906   5.007  15.092 -0.7061  0.0831  0.2133
 5196TIP3    H137003   2.955   5.084  15.064 -0.3780 -0.2495 -0.1412
 5196TIP3    H237004   2.862   5.035  15.172  0.6289  0.1889  0.9493
 5197TIP3   OH237005   6.712   4.346  11.428 -0.0670 -0.8418  0.4447
 5197TIP3    H137006   6.651   4.312  11.363 -0.2849  0.5859 -0.1369
 5197TIP3    H237007   6.675   4.430  11.454  1.7722  0.2078 -0.1357
 5198TIP3   OH237008   3.997   5.984  13.875  0.0336  0.0501 -0.7628
 5198TIP3    H137009   4.081   5.990  13.921 -0.2876  2.4792 -0.3763
 5198TIP3    H237010   4.022   5.975  13.783  0.6691 -1.0003 -0.5153
 5199TIP3   OH237011   2.210   4.506   3.141 -0.0002 -0.4062 -0.1163
 5199TIP3    H137012   2.250   4.469   3.062 -0.1413  0.8896 -0.8362
 5199TIP3    H237013   2.117   4.510   3.120  0.2430  2.7458 -1.2035
 5200TIP3   OH237014   0.038   5.785  16.811  0.2542  0.4951 -0.1045
 5200TIP3    H137015   0.018   5.700  16.771  1.7160  0.4811 -0.8627
 5200TIP3    H237016  -0.034   5.841  16.784 -0.7510 -0.4900  0.4257
 5201TIP3   OH237017   0.301   4.341   3.700  0.0321 -0.1894 -0.1712
 5201TIP3    H137018   0.242   4.278   3.660  0.4540 -0.5874 -0.1792
 5201TIP3    H237019   0.354   4.289   3.761 -0.7666  0.4498  1.0984
 5202TIP3   OH237020   0.673   0.755   3.428 -0.2066  0.0766  0.1303
 5202TIP3    H137021   0.601   0.774   3.367 -0.3310 -0.9444 -0.0573
 5202TIP3    H237022   0.662   0.663   3.450  1.0878 -0.1129  0.0443
 5203TIP3   OH237023   6.483   1.857  12.710 -0.2793 -0.1410  0.3053
 5203TIP3    H137024   6.514   1.899  12.629  2.2588 -0.1790  1.1535
 5203TIP3    H237025   6.515   1.767  12.703  2.9754  0.6543  2.6724
 5204TIP3   OH237026   1.064   6.701  13.162 -0.4067 -0.2073 -0.1342
 5204TIP3    H137027   1.074   6.629  13.224  1.6773  1.1036  1.1865
 5204TIP3    H237028   1.052   6.778  13.217  1.3267  0.9813 -1.3024
 5205TIP3   OH237029   5.723   1.133   4.984 -0.4010 -0.1858 -0.0686
 5205TIP3    H137030   5.774   1.167   4.910 -0.1650 -1.1428 -0.3659
 5205TIP3    H237031   5.788   1.115   5.052 -0.9027  4.0929  1.8766
 5206TIP3   OH237032   2.706   6.297  12.217  0.1411 -0.1302 -0.6026
 5206TIP3    H137033   2.650   6.237  12.169 -0.8497 -0.5097  0.9711
 5206TIP3    H237034   2.672   6.384  12.197 -1.1142 -0.3599  0.3946
 5207TIP3   OH237035   1.676   6.594   1.226 -0.1271 -0.1661 -0.3982
 5207TIP3    H137036   1.644   6.676   1.187 -0.1922 -0.3337 -0.6983
 5207TIP3    H237037   1.743   6.563   1.165  0.3222 -0.0283  0.0200
 5208TIP3   OH237038   0.555   4.907   4.746  0.0825  0.5708  0.2027
 5208TIP3    H137039   0.568   4.954   4.829  0.3581  1.8281 -0.5145
 5208TIP3    H237040   0.505   4.969   4.692 -1.0075 -0.6400 -0.2140
 5209TIP3   OH237041   4.582   6.533   5.968  0.1478  0.7777  0.0017
 5209TIP3    H137042   4.654   6.470   5.965 -1.0763 -0.7607  1.2585
 5209TIP3    H237043   4.527   6.510   5.894 -0.2117  0.4767  0.3608
 5210TIP3   OH237044   3.022   2.735  14.813 -0.7166 -0.2707  0.4581
 5210TIP3    H137045   3.076   2.811  14.833  1.3317 -0.9751 -1.8689
 5210TIP3    H237046   2.994   2.748  14.722 -0.0994 -2.3426 -0.0979
 5211TIP3   OH237047   3.945   3.750  15.663 -0.4699 -0.4198  0.3045
 5211TIP3    H137048   3.851   3.745  15.682 -0.4681  0.2107  0.5052
 5211TIP3    H237049   3.987   3.706  15.737 -0.5364  0.7024  1.0232
 5212TIP3   OH237050   3.949   0.026  11.940  0.0682 -0.1858 -0.5646
 5212TIP3    H137051   3.855   0.039  11.952 -0.1521 -1.7012 -0.4983
 5212TIP3    H237052   3.961   0.025  11.845 -0.0394 -0.3999 -0.5753
 5213TIP3   OH237053   2.646   3.804   1.006  0.5199  0.7864 -0.5852
 5213TIP3    H137054   2.706   3.750   1.058  0.1695  0.4794 -0.4994
 5213TIP3    H237055   2.574   3.824   1.066 -0.1274  0.0274 -1.0949
 5214TIP3   OH237056   2.487   4.793  13.637  0.0639 -0.3896 -0.0229
 5214TIP3    H137057   2.419   4.735  13.601 -0.3837 -0.2392  0.5662
 5214TIP3    H237058   2.484   4.871  13.581 -1.3006  0.2582  0.9102
 5215TIP3   OH237059   1.491   5.824  14.851 -0.3915  0.6669  0.0377
 5215TIP3    H137060   1.507   5.918  14.864 -2.1451  0.9255  0.6022
 5215TIP3    H237061   1.535   5.783  14.926  0.4530  1.0163 -0.2528
 5216TIP3   OH237062   4.552   1.215  10.957  0.1424  0.3108 -0.4088
 5216TIP3    H137063   4.623   1.183  11.011 -0.4718 -0.0709  0.1915
 5216TIP3    H237064   4.590   1.286  10.905  1.4127 -1.0875 -1.4575
 5217TIP3   OH237065   1.385   3.935   3.139  0.3234 -0.0645  0.2394
 5217TIP3    H137066   1.421   3.949   3.227  0.2925  1.8055 -0.0097
 5217TIP3    H237067   1.455   3.893   3.090  0.6775 -0.2361  0.8794
 5218TIP3   OH237068   4.380   1.656  10.252  0.1487  0.1116 -0.6002
 5218TIP3    H137069   4.458   1.665  10.306 -0.5632 -1.6855  0.8122
 5218TIP3    H237070   4.343   1.571  10.276 -1.7204  0.4802 -1.9309
 5219TIP3   OH237071   4.899   4.902  16.019  0.4017 -0.4749  0.0623
 5219TIP3    H137072   4.867   4.844  16.088  0.3011 -1.4200 -0.7635
 5219TIP3    H237073   4.966   4.851  15.974  0.8041  0.3110 -0.2468
 5220TIP3   OH237074   5.058   5.387  14.754 -0.2664 -0.9677 -0.3303
 5220TIP3    H137075   5.069   5.375  14.660 -0.3679 -1.3873 -0.2899
 5220TIP3    H237076   4.986   5.328  14.777  0.7934 -2.0696  0.2811
 5221TIP3   OH237077   1.092   3.074  15.043  0.2774  0.3147  0.0222
 5221TIP3    H137078   1.122   3.121  14.965 -2.0382  1.6157 -0.1588
 5221TIP3    H237079   1.001   3.052  15.024  0.4325 -1.7023  1.3371
 5222TIP3   OH237080   1.421   4.240   4.866  0.3867 -0.3344  0.4438
 5222TIP3    H137081   1.473   4.318   4.887 -1.4328  1.5043 -1.4491
 5222TIP3    H237082   1.486   4.173   4.846  2.0294  0.5769  2.3037
 5223TIP3   OH237083   6.165   2.393   2.152 -0.1972  0.1083 -0.5035
 5223TIP3    H137084   6.250   2.359   2.124 -0.0018  0.7608 -0.7405
 5223TIP3    H237085   6.166   2.384   2.247 -0.4026 -1.0914 -0.6044
 5224TIP3   OH237086   4.137   5.907   5.539  0.0675 -0.5165 -0.1844
 5224TIP3    H137087   4.077   5.845   5.579  0.2205 -0.1179  0.6927
 5224TIP3    H237088   4.145   5.878   5.448  1.1827 -2.6063  0.5107
 5225TIP3   OH237089   3.089   2.346  10.632  0.3371  0.2884 -0.5613
 5225TIP3    H137090   3.055   2.420  10.581  0.4227  1.1456  0.5828
 5225TIP3    H237091   3.014   2.315  10.682  0.5228  0.2102 -0.3307
 5226TIP3   OH237092   5.711   0.360  16.972 -0.3387 -0.1658 -0.1603
 5226TIP3    H137093   5.779   0.408  17.021 -0.0640 -1.4396  0.7484
 5226TIP3    H237094   5.745   0.272  16.963 -1.6515 -0.6967 -0.1525
 5227TIP3   OH237095   2.080   2.045   2.395  0.4865  0.0605  0.5695
 5227TIP3    H137096   2.162   2.068   2.438 -1.0682  2.3057  2.6006
 5227TIP3    H237097   2.105   1.984   2.326  4.0839  1.9436 -0.0465
 5228TIP3   OH237098   1.048   5.774  16.656 -0.1535 -0.6905 -0.6477
 5228TIP3    H137099   0.964   5.728  16.660 -1.6134  1.6322 -2.2015
 5228TIP3    H237100   1.053   5.822  16.738 -0.7571 -0.2171 -0.8783
 5229TIP3   OH237101   1.808   4.347  14.447  0.3577  0.1462 -0.4352
 5229TIP3    H137102   1.852   4.420  14.491  0.4096 -1.0256  1.5464
 5229TIP3    H237103   1.716   4.356  14.473 -0.3881  1.5310 -3.1125
 5230TIP3   OH237104   6.108   3.201   1.218 -0.3893 -0.7338 -0.2400
 5230TIP3    H137105   6.021   3.189   1.179 -0.8995 -1.7778  1.1346
 5230TIP3    H237106   6.143   3.112   1.226  1.1477 -0.2801 -1.4551
 5231TIP3   OH237107   5.527   2.900  14.795 -0.0787  0.5011  0.1057
 5231TIP3    H137108   5.474   2.868  14.868  1.0045  0.4251  0.8628
 5231TIP3    H237109   5.492   2.987  14.777 -1.1174  0.0689 -0.0671
 5232TIP3   OH237110   0.050   0.398  13.375  0.5037  0.4439  0.6510
 5232TIP3    H137111   0.051   0.346  13.295 -0.9043  0.6955  0.4421
 5232TIP3    H237112  -0.031   0.449  13.369  0.6789  0.9061  1.9572
 5233TIP3   OH237113   4.545   1.704  14.920 -0.3256 -0.6990  0.7611
 5233TIP3    H137114   4.464   1.751  14.901  1.2241  1.4792 -1.0485
 5233TIP3    H237115   4.558   1.716  15.014 -2.2360 -1.4111  1.1495
 5234TIP3   OH237116   3.446   4.049  14.552  0.3191 -0.0327 -0.4015
 5234TIP3    H137117   3.371   4.025  14.498 -0.3303  1.6204 -0.2919
 5234TIP3    H237118   3.410   4.062  14.640  1.2996 -2.3262  0.4397
 5235TIP3   OH237119   0.721   6.446   0.285 -0.5746  0.1710  0.2195
 5235TIP3    H137120   0.735   6.372   0.344 -0.8141 -0.9315 -1.0474
 5235TIP3    H237121   0.809   6.467   0.252 -0.7580 -1.2874 -1.3732
 5236TIP3   OH237122   3.208   3.947  15.872 -0.2509 -0.2042 -0.1922
 5236TIP3    H137123   3.140   4.012  15.883 -0.8770 -1.0323  1.0498
 5236TIP3    H237124   3.196   3.914  15.783 -0.2255  1.0030 -0.6607
 5237TIP3   OH237125   5.821   6.458   3.625 -0.0481 -0.0282 -0.4978
 5237TIP3    H137126   5.825   6.545   3.664 -0.1439 -0.2028 -0.0867
 5237TIP3    H237127   5.766   6.468   3.548  0.7666  0.4820 -1.0299
 5238TIP3   OH237128   4.160   4.297  16.118  0.1117  0.0186  0.3009
 5238TIP3    H137129   4.100   4.372  16.111  1.8182  1.5293  1.1209
 5238TIP3    H237130   4.227   4.313  16.051  0.2412 -1.0709  0.1434
 5239TIP3   OH237131   4.530   1.773  13.869  0.2039 -0.4186 -0.1934
 5239TIP3    H137132   4.477   1.694  13.859  0.3356 -0.5075 -0.1883
 5239TIP3    H237133   4.604   1.746  13.923  0.5245 -0.4216 -0.6308
 5240TIP3   OH237134   3.481   4.171   4.576  0.6369 -0.0680  0.3295
 5240TIP3    H137135   3.441   4.097   4.530  0.7446  0.8732 -1.3701
 5240TIP3    H237136   3.546   4.205   4.514 -0.0732  2.0225  0.6522
 5241TIP3   OH237137   0.204   0.634   2.745  0.0973  0.3087  0.0030
 5241TIP3    H137138   0.115   0.611   2.769  0.3155 -1.3939 -0.7019
 5241TIP3    H237139   0.217   0.721   2.782 -2.1844  1.0371 -0.7641
 5242TIP3   OH237140   4.237   3.914   2.524  0.3239 -0.3303 -0.0937
 5242TIP3    H137141   4.236   3.944   2.615 -0.5778 -0.6948  0.0269
 5242TIP3    H237142   4.232   3.994   2.472  1.1000 -0.1036  0.1607
 5243TIP3   OH237143   4.485   1.960  15.100  0.4158 -0.1906  0.4299
 5243TIP3    H137144   4.428   1.999  15.166 -0.2092 -0.1186 -0.1393
 5243TIP3    H237145   4.475   1.866  15.111  0.0206 -0.1770  0.1954
 5244TIP3   OH237146   2.865   2.876   3.984  0.1165 -0.0944  0.7629
 5244TIP3    H137147   2.951   2.845   3.954 -0.9727 -1.3605 -1.2988
 5244TIP3    H237148   2.829   2.803   4.034 -0.1810  0.0036  0.6971
 5245TIP3   OH237149   6.651   5.878   5.777  0.5209 -0.0453 -0.4893
 5245TIP3    H137150   6.605   5.855   5.858 -1.4350  1.5756 -1.0441
 5245TIP3    H237151   6.673   5.970   5.788 -1.3564  0.7248 -2.4035
 5246TIP3   OH237152   0.719   5.259   2.670 -0.8242 -0.0579  0.7836
 5246TIP3    H137153   0.656   5.191   2.647 -0.2628 -0.8017  1.4105
 5246TIP3    H237154   0.697   5.283   2.760 -1.2350  0.8486  0.4576
 5247TIP3   OH237155   2.140   5.325  13.556 -0.2794 -0.5727  0.1535
 5247TIP3    H137156   2.206   5.312  13.488  0.5324  2.6786  0.1823
 5247TIP3    H237157   2.059   5.343  13.508  0.1114  0.8806 -0.0146
 5248TIP3   OH237158   4.588   4.696   3.763 -0.1269  0.4137 -0.2763
 5248TIP3    H137159   4.588   4.789   3.785  1.6053  0.4977 -0.4489
 5248TIP3    H237160   4.568   4.651   3.845 -0.4445  0.9212 -0.0743
 5249TIP3   OH237161   0.440   4.202   2.813  0.3442 -0.5546 -0.0224
 5249TIP3    H137162   0.364   4.259   2.801 -0.1018 -1.4870 -2.0093
 5249TIP3    H237163   0.515   4.262   2.810 -0.2279  0.2935  1.2999
 5250TIP3   OH237164   5.268   3.819   4.628 -0.1634  0.1306 -0.0296
 5250TIP3    H137165   5.335   3.874   4.669 -0.8157 -0.0238  1.2910
 5250TIP3    H237166   5.215   3.787   4.701 -1.7906  0.3851 -1.0557
 5251TIP3   OH237167   6.553   1.423   5.359 -0.1763 -0.2280  0.4989
 5251TIP3    H137168   6.574   1.515   5.340  0.4194 -0.8272 -2.1939
 5251TIP3    H237169   6.637   1.378   5.359 -0.3276 -0.6323  3.1502
 5252TIP3   OH237170   5.305   5.335   4.199  0.1654  0.4444  0.3900
 5252TIP3    H137171   5.349   5.358   4.281 -1.4157  1.2409  1.0687
 5252TIP3    H237172   5.279   5.244   4.210  0.3101  0.4318  0.6252
 5253TIP3   OH237173   4.439   0.128   5.659  0.2954  0.0017  0.1156
 5253TIP3    H137174   4.404   0.129   5.748  1.8503 -1.6189  0.8069
 5253TIP3    H237175   4.368   0.091   5.606  0.1862 -1.3052  1.1212
 5254TIP3   OH237176   6.566   1.380   2.140 -1.0593  0.3765 -0.5778
 5254TIP3    H137177   6.536   1.333   2.062  0.1540 -1.7431  0.1327
 5254TIP3    H237178   6.520   1.338   2.213  1.3100 -1.0065  0.2497
 5255TIP3   OH237179   3.968   6.681   5.787  0.0807  0.3501  0.3277
 5255TIP3    H137180   4.047   6.648   5.830 -0.0705 -0.6638 -0.1529
 5255TIP3    H237181   3.907   6.608   5.791 -0.1020  0.4033 -1.1767
 5256TIP3   OH237182   2.607   1.032  16.680 -0.2351  0.0947 -0.2361
 5256TIP3    H137183   2.607   0.957  16.740  0.5947  0.3815  0.1321
 5256TIP3    H237184   2.532   1.084  16.708 -1.8113 -1.3698 -1.5147
 5257TIP3   OH237185   0.669   4.211   3.238  0.4004  0.0051  0.1771
 5257TIP3    H137186   0.702   4.273   3.303  0.6183 -0.7140  0.7695
 5257TIP3    H237187   0.592   4.255   3.200  0.6020  0.6689  0.5118
 5258TIP3   OH237188   2.213   1.483   2.769 -0.0831 -0.8057  0.0375
 5258TIP3    H137189   2.253   1.551   2.824  0.3390  0.4943 -1.7642
 5258TIP3    H237190   2.272   1.408   2.776  0.2261 -0.4820  0.9519
 5259TIP3   OH237191   1.380   0.285   1.221 -0.3332  0.6152 -0.0904
 5259TIP3    H137192   1.312   0.351   1.211 -1.2866 -0.0276  1.6778
 5259TIP3    H237193   1.365   0.248   1.308 -0.2792 -2.4115 -1.2576
 5260TIP3   OH237194   0.968   6.563  15.569 -0.3251 -0.2078 -0.0107
 5260TIP3    H137195   1.052   6.588  15.607 -0.1535 -0.1252 -0.4309
 5260TIP3    H237196   0.919   6.644  15.562  0.0593 -0.0365 -0.9551
 5261TIP3   OH237197   3.324   3.976   0.538 -0.4188  0.0383  0.5609
 5261TIP3    H137198   3.365   3.993   0.453  2.7873 -3.1410  1.2150
 5261TIP3    H237199   3.365   4.039   0.598  2.9667 -2.2234  0.9278
 5262TIP3   OH237200   2.660   1.039   1.986  0.3260 -0.3950 -0.3188
 5262TIP3    H137201   2.735   1.079   2.031  0.3889 -0.7124 -0.1359
 5262TIP3    H237202   2.679   0.945   1.989  1.6627 -0.3236 -3.2861
 5263TIP3   OH237203   0.724   6.440   3.529  0.2770 -0.2914 -0.1543
 5263TIP3    H137204   0.743   6.458   3.620  2.3045  1.2516 -0.8210
 5263TIP3    H237205   0.637   6.478   3.515 -0.9158 -2.2343  1.5353
 5264TIP3   OH237206   5.809   1.611   6.255 -0.4599  0.5691 -0.2615
 5264TIP3    H137207   5.881   1.617   6.318 -0.3978  0.6524 -0.3391
 5264TIP3    H237208   5.760   1.533   6.281 -0.8725  1.0237  0.3444
 5265TIP3   OH237209   5.233   3.364  15.510  0.4834  0.1196  0.1936
 5265TIP3    H137210   5.175   3.320  15.573 -0.3887 -1.2514 -1.4885
 5265TIP3    H237211   5.299   3.407  15.565 -0.0619 -1.2431  2.0302
 5266TIP3   OH237212   6.098   2.808   3.719  0.5342 -0.5552 -0.7465
 5266TIP3    H137213   6.162   2.753   3.676  0.7871  0.2333 -1.4085
 5266TIP3    H237214   6.143   2.843   3.796  0.2167 -1.6371 -0.0535
 5267TIP3   OH237215   1.640   5.172  15.569  0.0598 -0.9771  0.3400
 5267TIP3    H137216   1.604   5.260  15.565 -0.2187 -1.0816  0.5329
 5267TIP3    H237217   1.564   5.115  15.578  0.2025 -1.2769 -0.2655
 5268TIP3   OH237218   6.341   3.924  16.949  0.0023  0.0071  0.8325
 5268TIP3    H137219   6.405   3.857  16.925  0.2372  0.7210 -0.6435
 5268TIP3    H237220   6.312   3.899  17.036 -0.1217 -2.1713  0.2265
 5269TIP3   OH237221   1.848   0.732   5.115 -0.2961 -0.1977  0.1490
 5269TIP3    H137222   1.817   0.823   5.109 -2.0640 -0.6972  1.0481
 5269TIP3    H237223   1.894   0.728   5.199  2.2850  0.5191 -1.1426
 5270TIP3   OH237224   4.857   2.596  10.578 -0.3031  0.3595  0.0488
 5270TIP3    H137225   4.915   2.618  10.505 -0.1214 -1.4448 -0.4141
 5270TIP3    H237226   4.916   2.574  10.650 -0.2874 -2.1648 -0.6279
 5271TIP3   OH237227   4.043   2.635  13.456 -0.6336  0.0284  0.5669
 5271TIP3    H137228   4.072   2.585  13.380 -0.8589 -1.2138  1.2552
 5271TIP3    H237229   3.984   2.575  13.503 -3.0074  1.8718  0.1067
 5272TIP3   OH237230   5.564   3.069   1.758  0.2885  0.7259 -0.7573
 5272TIP3    H137231   5.655   3.044   1.770  0.3131  0.4835 -1.3929
 5272TIP3    H237232   5.522   2.991   1.723  0.0188  1.0809 -1.2499
 5273TIP3   OH237233   6.417   2.876  12.781  0.3582 -0.2485  0.0675
 5273TIP3    H137234   6.409   2.881  12.686  0.9808 -0.9572 -0.0330
 5273TIP3    H237235   6.466   2.956  12.804 -0.2454  0.1879 -0.1433
 5274TIP3   OH237236   0.145   3.874   2.774 -0.3286  0.4850  0.6922
 5274TIP3    H137237   0.205   3.804   2.746 -2.1924 -1.4567  1.2344
 5274TIP3    H237238   0.113   3.912   2.692  0.0882  0.1458  0.3663
 5275TIP3   OH237239   4.533   6.391  13.633  0.5022  0.0859 -0.2273
 5275TIP3    H137240   4.498   6.304  13.616  1.2344  0.2188 -2.7681
 5275TIP3    H237241   4.613   6.376  13.683 -0.4419 -0.5109  1.1736
 5276TIP3   OH237242   4.712   2.842   0.961 -0.1705  0.1097 -0.1030
 5276TIP3    H137243   4.742   2.908   0.899 -0.2164  0.7200  0.5064
 5276TIP3    H237244   4.762   2.763   0.939 -0.6577  0.1171 -1.3288
 5277TIP3   OH237245   0.692   1.402   2.681  0.1104  0.2749  0.4151
 5277TIP3    H137246   0.630   1.331   2.667 -1.1157  1.2998  0.5420
 5277TIP3    H237247   0.639   1.478   2.704  1.2071  1.7752 -1.6422
 5278TIP3   OH237248   1.637   5.424  14.255 -0.2444  0.3583  0.2872
 5278TIP3    H137249   1.672   5.405  14.343 -2.9125 -0.2177  1.3324
 5278TIP3    H237250   1.582   5.502  14.268 -2.3620 -0.9569 -0.3283
 5279TIP3   OH237251   6.347   2.139   2.311 -0.5273 -0.1338 -0.4634
 5279TIP3    H137252   6.315   2.079   2.378 -1.7185 -0.4811 -1.3046
 5279TIP3    H237253   6.389   2.084   2.246  1.5346  0.2897  0.4369
 5280TIP3   OH237254   4.917   3.964   1.445 -0.3309  0.1974 -0.0656
 5280TIP3    H137255   4.946   3.885   1.400  0.9272  0.9364 -0.6104
 5280TIP3    H237256   4.825   3.974   1.419  0.3470  0.6234 -2.6034
 5281TIP3   OH237257   3.536   3.903   3.549  0.1866 -0.5629 -0.8927
 5281TIP3    H137258   3.482   3.825   3.552 -0.4559 -0.1080 -0.1378
 5281TIP3    H237259   3.604   3.883   3.485 -0.9257 -1.1037 -1.9427
 5282TIP3   OH237260   2.172   0.800  12.418  0.0492 -0.4025  0.2549
 5282TIP3    H137261   2.228   0.843  12.353  0.4562  1.1550  1.5671
 5282TIP3    H237262   2.229   0.734  12.458 -0.0480 -1.0090 -0.5810
 5283TIP3   OH237263   2.901   5.567  16.901  0.1305 -0.3209  0.6009
 5283TIP3    H137264   2.883   5.643  16.957 -0.6961  0.1734 -0.3169
 5283TIP3    H237265   2.858   5.494  16.946  0.0262 -0.0582  0.9339
 5284TIP3   OH237266   3.683   3.452   1.756 -0.7777 -0.0300 -0.1655
 5284TIP3    H137267   3.605   3.401   1.733  0.9419 -2.7655 -0.4621
 5284TIP3    H237268   3.746   3.433   1.686  0.8343  0.4149  1.0915
 5285TIP3   OH237269   1.898   2.199   0.973 -0.1105 -0.4138  0.3124
 5285TIP3    H137270   1.945   2.118   0.991  0.8910 -0.0237 -0.4749
 5285TIP3    H237271   1.941   2.265   1.027 -0.8611 -0.3763  0.8782
 5286TIP3   OH237272   4.484   2.106   1.825 -0.5181 -0.6001  0.8288
 5286TIP3    H137273   4.575   2.130   1.806 -0.8889  1.1048  1.0536
 5286TIP3    H237274   4.450   2.179   1.876 -2.2508 -0.8249  0.0585
 5287TIP3   OH237275   4.086   5.491  16.060  0.3870 -0.4895 -0.1905
 5287TIP3    H137276   3.997   5.461  16.042  0.7346 -0.4554 -2.2979
 5287TIP3    H237277   4.080   5.540  16.141 -1.1078 -2.2351  0.8355
 5288TIP3   OH237278   1.527   3.511  16.207 -0.3184 -0.8379 -0.0389
 5288TIP3    H137279   1.529   3.430  16.256  0.3246 -0.0374  1.3066
 5288TIP3    H237280   1.462   3.565  16.252 -0.5868 -0.5148 -0.7935
 5289TIP3   OH237281   0.741   2.053   0.394 -0.4406  0.5027 -0.6582
 5289TIP3    H137282   0.789   2.073   0.314  2.2841  0.3121  0.8027
 5289TIP3    H237283   0.706   2.137   0.422  1.7968  1.3378 -0.1584
 5290TIP3   OH237284   6.133   3.751  13.744  0.4029 -0.1809  0.3246
 5290TIP3    H137285   6.055   3.738  13.799 -0.1371 -1.1814 -0.6387
 5290TIP3    H237286   6.147   3.666  13.702  1.8912  0.0507  0.3007
 5291TIP3   OH237287   1.314   6.454   6.725 -0.1514  0.0139 -0.1880
 5291TIP3    H137288   1.294   6.528   6.668  0.4385 -0.6845 -1.3559
 5291TIP3    H237289   1.400   6.475   6.762  0.0687 -0.1402 -0.6108
 5292TIP3   OH237290   0.992   6.623  12.754  0.0333  0.0667  0.0808
 5292TIP3    H137291   1.069   6.675  12.777 -0.0491  0.6374 -0.8745
 5292TIP3    H237292   0.918   6.675  12.783 -0.0144 -0.2518  0.5441
 5293TIP3   OH237293   1.250   3.249  16.705  0.6443 -0.3655 -0.1770
 5293TIP3    H137294   1.301   3.224  16.782  0.2532  0.2441  0.2967
 5293TIP3    H237295   1.249   3.344  16.707 -2.5354 -0.2638  1.2894
 5294TIP3   OH237296   6.619   4.065  12.627 -0.0085  0.0304 -0.2589
 5294TIP3    H137297   6.599   3.971  12.628 -2.6148  0.5053 -0.8745
 5294TIP3    H237298   6.601   4.094  12.717  1.6293 -0.1648  0.1620
 5295TIP3   OH237299   1.954   3.300  14.175  0.0224  0.0897  0.4556
 5295TIP3    H137300   1.915   3.220  14.207  2.2858 -0.7417  1.3537
 5295TIP3    H237301   2.047   3.293  14.198  0.5448  2.3847 -0.5847
 5296TIP3   OH237302   5.262   2.734  15.854 -0.0720 -0.1331  0.2107
 5296TIP3    H137303   5.257   2.718  15.760 -1.4973 -0.1497  0.2683
 5296TIP3    H237304   5.305   2.657  15.890 -0.3986 -0.5630 -0.3166
 5297TIP3   OH237305   5.640   3.384  12.414  0.2361  0.1035  0.4340
 5297TIP3    H137306   5.693   3.443  12.359 -0.4589 -1.0022 -1.5239
 5297TIP3    H237307   5.575   3.441  12.455  0.3657  0.8947 -0.4254
 5298TIP3   OH237308   6.448   4.200  14.876  0.3209  0.5926  0.5081
 5298TIP3    H137309   6.380   4.263  14.855  0.0156  1.0513  2.5861
 5298TIP3    H237310   6.403   4.116  14.883  0.3545  0.5143 -0.1375
 5299TIP3   OH237311   2.767   5.458   0.206 -0.1126  0.2096  0.0565
 5299TIP3    H137312   2.678   5.447   0.239  0.1071 -0.2799  0.5026
 5299TIP3    H237313   2.766   5.414   0.121  0.4888 -2.6001  1.3876
 5300TIP3   OH237314   0.308   3.024  16.000  0.0632  0.1661 -0.3572
 5300TIP3    H137315   0.368   2.979  15.940 -0.0180 -1.0687  0.4345
 5300TIP3    H237316   0.258   2.953  16.041 -0.7790  1.0651  0.2174
 5301TIP3   OH237317   5.953   6.694   1.834 -0.6289 -0.6010  0.2321
 5301TIP3    H137318   5.895   6.618   1.836 -0.4248 -0.7638 -0.0711
 5301TIP3    H237319   5.978   6.703   1.742 -1.2439  0.2774  0.1332
 5302TIP3   OH237320   1.440   2.910   4.965 -0.1427  0.4530  0.2999
 5302TIP3    H137321   1.482   2.825   4.978 -2.4738 -0.9250 -0.4155
 5302TIP3    H237322   1.486   2.949   4.892  1.2742  0.0366  0.9325
 5303TIP3   OH237323   0.828   1.022  14.688  0.2850 -0.2963  0.4118
 5303TIP3    H137324   0.909   1.002  14.734 -0.3489 -1.1683  1.2101
 5303TIP3    H237325   0.800   0.938  14.651 -0.6554 -0.1966  0.8571
 5304TIP3   OH237326   1.498   1.933   1.366 -0.0134  0.2357  0.2221
 5304TIP3    H137327   1.496   2.023   1.399  0.2706 -0.1936  1.4813
 5304TIP3    H237328   1.574   1.894   1.409  0.9735 -0.1135 -1.7377
 5305TIP3   OH237329   6.682   3.604  16.780  0.5151 -0.5578  0.2149
 5305TIP3    H137330   6.667   3.584  16.687 -0.7040  0.2256  0.2215
 5305TIP3    H237331   6.740   3.680  16.779  0.4920 -0.5416  0.1017
 5306TIP3   OH237332   6.039   5.649   0.714 -0.3434 -0.0579  0.7480
 5306TIP3    H137333   5.971   5.633   0.648  0.2916  0.6563 -0.1178
 5306TIP3    H237334   6.121   5.626   0.669  0.0267 -0.4371  1.6034
 5307TIP3   OH237335   6.676   1.193  14.487 -0.2265  0.0090 -0.3687
 5307TIP3    H137336   6.714   1.106  14.499 -1.0362 -0.0118  3.1776
 5307TIP3    H237337   6.742   1.253  14.521 -1.7517  0.2245  2.5514
 5308TIP3   OH237338   5.779   5.014   4.041 -0.2375 -0.6508 -0.5045
 5308TIP3    H137339   5.696   5.052   4.071 -0.7757 -1.0677 -1.4396
 5308TIP3    H237340   5.809   5.074   3.972  0.7782  0.0649  0.5093
 5309TIP3   OH237341   1.842   3.887   1.713 -0.3219 -0.0620  0.5840
 5309TIP3    H137342   1.750   3.864   1.721 -0.9875  2.0016 -0.3329
 5309TIP3    H237343   1.887   3.804   1.697 -2.0027 -1.0997  1.0129
 5310TIP3   OH237344   2.503   6.454  12.414 -0.0586  0.2470  0.6493
 5310TIP3    H137345   2.559   6.410  12.350 -1.7723 -0.5118 -0.3980
 5310TIP3    H237346   2.498   6.394  12.488 -0.9037 -0.5364 -0.0142
 5311TIP3   OH237347   3.826   0.072   4.422 -0.1858  0.0932  0.9978
 5311TIP3    H137348   3.890   0.037   4.484  0.2908  0.7454  0.8876
 5311TIP3    H237349   3.754   0.102   4.477  0.1673  0.5283  1.2292
 5312TIP3   OH237350   2.039   6.260   5.128  0.0043  0.0439  0.0297
 5312TIP3    H137351   1.977   6.321   5.168 -1.9250 -0.4718 -1.9582
 5312TIP3    H237352   2.116   6.314   5.109 -0.8779  1.4037  0.1198
 5313TIP3   OH237353   6.160   4.171   0.213 -0.4218  0.5758  0.4153
 5313TIP3    H137354   6.224   4.157   0.283 -1.0719 -0.8641  0.7477
 5313TIP3    H237355   6.208   4.220   0.147  1.0325 -0.4331  0.6679
 5314TIP3   OH237356   1.782   6.366  13.038  0.2723  0.8344  0.6954
 5314TIP3    H137357   1.764   6.431  12.969  1.8657  0.0908 -0.4816
 5314TIP3    H237358   1.729   6.290  13.015  1.9223  0.0230 -0.6471
 5315TIP3   OH237359   5.015   3.226   5.658 -0.2625 -0.5343 -0.1210
 5315TIP3    H137360   4.960   3.148   5.649 -0.5334 -0.1385 -2.6403
 5315TIP3    H237361   4.959   3.289   5.704 -0.9641 -1.0019 -0.3075
 5316TIP3   OH237362   5.673   6.377  12.084 -0.4914 -0.2777  0.0859
 5316TIP3    H137363   5.743   6.432  12.049  0.0237 -2.0514 -1.8216
 5316TIP3    H237364   5.713   6.332  12.159 -0.6219  1.1144  1.0315
 5317TIP3   OH237365   3.720   0.863   0.772 -0.0685  0.7215 -0.2700
 5317TIP3    H137366   3.726   0.777   0.729 -0.1899 -0.2338  1.5207
 5317TIP3    H237367   3.630   0.868   0.804  0.6792  0.1841  2.1531
 5318TIP3   OH237368   6.170   4.111   1.391 -0.9003 -0.0212  0.6156
 5318TIP3    H137369   6.173   4.119   1.295 -2.5289 -0.4183  0.4883
 5318TIP3    H237370   6.229   4.038   1.410  0.1198  0.6274  0.0101
 5319TIP3   OH237371   3.667   3.987  11.522 -0.8153  0.0746 -0.0557
 5319TIP3    H137372   3.717   3.914  11.559 -1.2725 -1.1788 -1.7784
 5319TIP3    H237373   3.690   3.987  11.429 -1.7248  1.4105 -0.3063
 5320TIP3   OH237374   0.215   4.917  15.046 -0.1695 -0.2266 -0.4109
 5320TIP3    H137375   0.305   4.910  15.012 -0.1815  0.3966 -0.5944
 5320TIP3    H237376   0.163   4.940  14.969 -0.1571  1.4686  0.0511
 5321TIP3   OH237377   1.701   3.147  13.174 -0.1128 -0.2773  0.3818
 5321TIP3    H137378   1.696   3.240  13.197 -2.0120  0.3446 -2.1041
 5321TIP3    H237379   1.792   3.135  13.144 -0.2879  1.2925 -0.9657
 5322TIP3   OH237380   4.311   0.382   1.389  0.2061 -0.3704 -0.2661
 5322TIP3    H137381   4.268   0.306   1.427  1.0883 -1.5431 -1.5347
 5322TIP3    H237382   4.404   0.368   1.405  0.3473  0.7014 -0.0754
 5323TIP3   OH237383   4.636   3.941  13.080 -0.4920  0.0101 -0.0230
 5323TIP3    H137384   4.704   3.960  13.145  0.1820 -1.5761 -0.2118
 5323TIP3    H237385   4.558   3.923  13.132 -0.3469  0.2510  0.2813
 5324TIP3   OH237386   0.045   0.831  12.078  0.0116  0.3460  0.2496
 5324TIP3    H137387   0.090   0.912  12.055 -0.3403  0.8962  1.3852
 5324TIP3    H237388  -0.047   0.858  12.090  0.1112  0.0829  1.9142
 5325TIP3   OH237389   0.385   2.448   3.225 -0.0395  0.2708  0.9582
 5325TIP3    H137390   0.322   2.378   3.242 -0.7962  0.9265  0.9263
 5325TIP3    H237391   0.332   2.520   3.190  0.9584  0.2603 -0.7003
 5326TIP3   OH237392   4.868   3.893  15.176 -0.4717  0.3536  0.3278
 5326TIP3    H137393   4.802   3.891  15.246  0.2155  0.0067  0.9786
 5326TIP3    H237394   4.942   3.940  15.215  0.7449 -1.6839  0.5907
 5327TIP3   OH237395   3.541   0.318  11.288  0.1590 -0.4299  0.0561
 5327TIP3    H137396   3.623   0.341  11.331 -1.2348 -1.9692  3.9432
 5327TIP3    H237397   3.551   0.226  11.264 -0.0514 -0.3031 -0.5488
 5328TIP3   OH237398   6.361   3.790   5.834 -0.0715  0.4172 -0.5710
 5328TIP3    H137399   6.297   3.847   5.876  1.6883  1.3656  0.9259
 5328TIP3    H237400   6.413   3.848   5.779 -0.3442 -0.3141 -1.6304
 5329TIP3   OH237401   2.945   1.993   1.713 -0.0013 -0.3057 -0.6998
 5329TIP3    H137402   3.033   1.961   1.731 -1.2511 -2.8235  1.6560
 5329TIP3    H237403   2.889   1.916   1.721 -2.4154  1.0699 -2.7228
 5330TIP3   OH237404   5.231   0.168   2.752 -0.1028  0.4215 -0.5238
 5330TIP3    H137405   5.188   0.107   2.812  2.3100  0.6053  1.5621
 5330TIP3    H237406   5.245   0.247   2.804  1.1079  0.9847 -1.6378
 5331TIP3   OH237407   3.764   4.981   4.872 -0.2915 -0.3629  0.2141
 5331TIP3    H137408   3.803   4.906   4.827 -1.3689 -1.3282  0.8364
 5331TIP3    H237409   3.827   5.052   4.859  0.3308 -1.1249 -1.1450
 5332TIP3   OH237410   3.904   6.422  16.634  0.0621 -0.0433  0.2939
 5332TIP3    H137411   3.908   6.329  16.657  1.0085 -0.2726 -0.7108
 5332TIP3    H237412   3.932   6.468  16.713  0.5220 -0.6600  0.4955
 5333TIP3   OH237413   4.020   2.217  12.011  0.2222  0.3334  0.3535
 5333TIP3    H137414   4.024   2.122  12.004  0.2616  0.4025 -0.7016
 5333TIP3    H237415   3.929   2.235  12.037 -0.1611  0.0590 -0.7311
 5334TIP3   OH237416   6.494   0.370  11.634 -0.0524  0.0422  0.1640
 5334TIP3    H137417   6.470   0.295  11.580  0.9175 -0.9077  1.0256
 5334TIP3    H237418   6.415   0.425  11.634 -0.9922 -1.2583 -0.0023
 5335TIP3   OH237419   3.969   2.526   5.005 -1.0160 -0.0182 -0.1595
 5335TIP3    H137420   4.014   2.610   5.014 -0.9830 -0.0783  0.2625
 5335TIP3    H237421   3.965   2.492   5.094 -1.8600 -0.0317 -0.1955
 5336TIP3   OH237422   6.153   5.478   2.896 -0.1789  0.0178  0.2317
 5336TIP3    H137423   6.072   5.461   2.848 -0.3170  0.7154  0.2041
 5336TIP3    H237424   6.210   5.522   2.833  0.3340 -0.7147  0.1711
 5337TIP3   OH237425   6.505   0.140   4.640 -0.0443  0.4124 -0.4223
 5337TIP3    H137426   6.563   0.163   4.567  0.8812  0.1658  0.2077
 5337TIP3    H237427   6.557   0.079   4.693  0.3095  2.4622  1.7793
 5338TIP3   OH237428   5.636   2.830   3.351 -1.0979 -0.0506  0.3305
 5338TIP3    H137429   5.608   2.915   3.387 -1.0672 -0.1882  0.6787
 5338TIP3    H237430   5.725   2.819   3.383 -0.4413  0.6051 -1.1494
 5339TIP3   OH237431   2.363   1.633  16.852 -0.1289 -0.1527  0.3655
 5339TIP3    H137432   2.403   1.579  16.784 -1.5465  0.5037 -1.0575
 5339TIP3    H237433   2.272   1.641  16.825  0.1178  3.4737  0.1172
 5340TIP3   OH237434   1.417   4.146  16.808 -0.3483 -0.3018 -0.6750
 5340TIP3    H137435   1.457   4.154  16.895  0.4961  1.2627 -1.1710
 5340TIP3    H237436   1.433   4.230  16.766  0.4948 -1.4565 -2.8738
 5341TIP3   OH237437   1.937   3.331  12.929  0.3231  0.0066  0.5728
 5341TIP3    H137438   1.954   3.249  12.975 -0.2497 -0.0597  0.6673
 5341TIP3    H237439   1.842   3.339  12.928  0.0990 -1.3124 -2.8805
 5342TIP3   OH237440   6.603   3.028   7.044  0.1571 -0.6038  0.2383
 5342TIP3    H137441   6.643   3.108   7.010 -0.7482 -0.7598 -1.2693
 5342TIP3    H237442   6.510   3.037   7.023 -0.1951 -1.4335  1.3178
 5343TIP3   OH237443   1.641   4.082  15.642  0.7322  0.1604 -0.0349
 5343TIP3    H137444   1.606   4.136  15.571  0.5237 -0.4821 -0.4359
 5343TIP3    H237445   1.685   4.010  15.597  1.0348  0.0157  0.4882
 5344TIP3   OH237446   0.562   1.539  13.457 -0.3288  0.4132 -0.3360
 5344TIP3    H137447   0.648   1.539  13.498 -0.6277 -0.0886  0.2917
 5344TIP3    H237448   0.577   1.501  13.370 -0.0814 -0.5821  0.1282
 5345TIP3   OH237449   2.197   3.413   3.042  0.0361  0.0541 -0.2021
 5345TIP3    H137450   2.183   3.340   3.102 -2.1857 -0.9879 -1.8397
 5345TIP3    H237451   2.274   3.459   3.077  0.2123 -1.8058  2.0766
 5346TIP3   OH237452   4.432   1.733   0.005 -0.1105 -0.1994 -0.1139
 5346TIP3    H137453   4.517   1.743   0.048  0.2747  1.0068 -1.0735
 5346TIP3    H237454   4.437   1.792  -0.071 -1.3883 -0.9552 -0.8241
 5347TIP3   OH237455   6.213   1.488   0.510  0.3124  0.2456 -0.4090
 5347TIP3    H137456   6.222   1.582   0.522  0.4535  0.1326  0.3816
 5347TIP3    H237457   6.123   1.468   0.538 -0.2464  0.3572 -1.9946
 5348TIP3   OH237458   1.986   3.884   2.266 -0.1089  0.1025  0.1487
 5348TIP3    H137459   2.059   3.883   2.205  0.7078 -0.0393  1.1034
 5348TIP3    H237460   2.001   3.962   2.320  0.2944 -0.8646  1.4653
 5349TIP3   OH237461   0.751   1.289   5.423  0.1483 -0.7346 -0.2089
 5349TIP3    H137462   0.836   1.248   5.407  0.9180  0.0727  1.5743
 5349TIP3    H237463   0.725   1.257   5.509  0.0284  1.2519  0.5406
 5350TIP3   OH237464   6.041   1.431   4.044 -0.1317 -0.0040 -0.2237
 5350TIP3    H137465   6.031   1.451   3.951 -0.7247  0.0119 -0.1577
 5350TIP3    H237466   5.971   1.370   4.063  0.0523 -0.0877  0.1916
 5351TIP3   OH237467   4.546   4.047  15.653  0.3793  0.3854 -0.1244
 5351TIP3    H137468   4.452   4.026  15.656  0.3549  0.5878  1.2277
 5351TIP3    H237469   4.550   4.135  15.617  0.1706 -0.1725 -1.5831
 5352TIP3   OH237470   0.338   2.883  13.372  0.0307  0.3877  0.3507
 5352TIP3    H137471   0.252   2.851  13.399  0.9111 -1.6607  0.9724
 5352TIP3    H237472   0.374   2.813  13.317  1.5352  0.8773  0.6431
 5353TIP3   OH237473   1.878   5.675   2.125  0.2602 -0.5458 -0.5550
 5353TIP3    H137474   1.859   5.581   2.118  2.4215 -1.1815  0.9825
 5353TIP3    H237475   1.905   5.702   2.038  3.3388 -2.3496 -0.2949
 5354TIP3   OH237476   6.549   6.578  16.197 -0.3817  0.0118 -0.0894
 5354TIP3    H137477   6.476   6.630  16.231 -0.1474  0.3825 -0.1421
 5354TIP3    H237478   6.580   6.627  16.121 -0.1970 -0.2373 -0.1744
 5355TIP3   OH237479   4.475   1.982   2.181  0.1923 -0.2682 -0.3496
 5355TIP3    H137480   4.439   1.950   2.097  1.8095 -0.7318 -0.8990
 5355TIP3    H237481   4.398   2.003   2.233 -0.8866 -1.5172 -1.3672
 5356TIP3   OH237482   4.209   1.430   4.430  0.3546 -0.1769 -0.5257
 5356TIP3    H137483   4.186   1.342   4.398  3.4484 -2.1421  2.0195
 5356TIP3    H237484   4.134   1.457   4.482 -0.1693 -1.8957 -0.3328
 5357TIP3   OH237485   1.882   1.657  14.692 -0.1266 -0.3925 -0.0725
 5357TIP3    H137486   1.819   1.586  14.694  0.3789 -0.8663 -0.6947
 5357TIP3    H237487   1.932   1.648  14.773  0.2639 -1.0516 -0.3840
 5358TIP3   OH237488   5.296   3.407  11.155 -0.0399 -0.2391  0.2889
 5358TIP3    H137489   5.289   3.410  11.060  3.1688  0.7463 -0.0313
 5358TIP3    H237490   5.224   3.462  11.186 -0.2106  0.6978 -1.6177
 5359TIP3   OH237491   4.029   3.861   5.341  0.1069 -0.0791 -0.1534
 5359TIP3    H137492   4.005   3.921   5.270 -1.1301  0.5204  0.7467
 5359TIP3    H237493   4.047   3.918   5.416 -0.7612 -0.8065  0.6232
 5360TIP3   OH237494   5.013   6.303   3.176 -0.0596  0.1917  0.2752
 5360TIP3    H137495   5.025   6.387   3.132 -3.0874  1.1387  1.0487
 5360TIP3    H237496   4.947   6.257   3.123 -1.6702  0.1789  2.2167
 5361TIP3   OH237497   0.272   3.271  14.948 -0.1738  0.0453  0.7193
 5361TIP3    H137498   0.354   3.308  14.978  1.2857 -2.3331 -0.0483
 5361TIP3    H237499   0.272   3.283  14.853 -0.2355 -0.8158  0.6009
 5362TIP3   OH237500   2.146   6.128  16.149  0.1601  0.3032  0.1848
 5362TIP3    H137501   2.112   6.170  16.228 -0.2806 -2.1167  1.3673
 5362TIP3    H237502   2.067   6.101  16.101  0.3854  2.6038 -1.6826
 5363TIP3   OH237503   4.012   5.367   3.595 -0.1412  0.5815 -0.4404
 5363TIP3    H137504   4.067   5.429   3.643 -0.1868 -0.1317  0.5744
 5363TIP3    H237505   4.028   5.387   3.503  1.3139  0.8196 -0.1594
 5364TIP3   OH237506   2.628   5.024   0.244  0.1044  0.1177 -0.0839
 5364TIP3    H137507   2.621   5.082   0.320  0.6545 -1.8866  1.5937
 5364TIP3    H237508   2.693   5.067   0.188  0.3814  1.2174  1.0273
 5365TIP3   OH237509   4.709   6.345   0.214 -0.2881 -0.5101 -0.2161
 5365TIP3    H137510   4.786   6.369   0.162  0.1856 -0.6484  0.4091
 5365TIP3    H237511   4.646   6.415   0.198  0.9763  1.1035  1.3961
 5366TIP3   OH237512   0.870   1.921  12.846  0.0150  0.0963 -0.2561
 5366TIP3    H137513   0.821   1.998  12.816 -2.2779  0.0218  2.7827
 5366TIP3    H237514   0.821   1.847  12.811  0.1003  0.0277 -0.2310
 5367TIP3   OH237515   5.574   4.111  12.660  0.2550 -0.2734  0.7522
 5367TIP3    H137516   5.540   4.198  12.680 -1.7781 -1.0293  0.7928
 5367TIP3    H237517   5.618   4.121  12.575  0.0046  0.7839  0.7375
 5368TIP3   OH237518   0.887   3.507  13.063  0.2773 -0.1595  0.1957
 5368TIP3    H137519   0.961   3.472  13.112  0.4915  0.9375  0.6960
 5368TIP3    H237520   0.928   3.549  12.987  0.0765 -0.4666 -0.0821
 5369TIP3   OH237521   3.010   6.532   6.867  0.3836  0.3005 -0.3667
 5369TIP3    H137522   2.939   6.593   6.885  0.5138  0.0139  1.3217
 5369TIP3    H237523   3.085   6.588   6.847  0.0755  0.6516 -0.5415
 5370TIP3   OH237524   1.762   0.307   5.415 -0.4797  0.0906 -0.3639
 5370TIP3    H137525   1.695   0.371   5.438  0.0270  0.2081  0.8339
 5370TIP3    H237526   1.817   0.300   5.493  0.0989 -1.0182 -0.8449
 5371TIP3   OH237527   2.519   2.515   3.082 -0.0103 -0.0014  0.2735
 5371TIP3    H137528   2.579   2.483   3.014  1.0242  0.7219  0.8018
 5371TIP3    H237529   2.502   2.606   3.056 -0.2925  0.0144  0.5222
 5372TIP3   OH237530   3.880   1.090   2.267  0.0738 -0.1703  0.2363
 5372TIP3    H137531   3.913   1.057   2.184  2.3346  1.5936  0.3321
 5372TIP3    H237532   3.850   1.178   2.247 -1.1146 -0.3926  0.9560
 5373TIP3   OH237533   3.822   1.002   4.456  0.3045 -0.4933  0.7180
 5373TIP3    H137534   3.798   0.947   4.382 -1.0386 -0.1810  0.8868
 5373TIP3    H237535   3.762   0.976   4.525  0.2036  0.6024  1.0581
 5374TIP3   OH237536   1.961   0.779  12.202 -0.3465  0.0110 -0.0698
 5374TIP3    H137537   2.018   0.774  12.279 -0.8838  0.6326  0.3759
 5374TIP3    H237538   1.993   0.856  12.154 -0.2012 -0.2037 -0.3198
 5375TIP3   OH237539   4.437   3.341   3.466 -0.1079  0.0480 -0.4322
 5375TIP3    H137540   4.416   3.317   3.375  0.1366  0.0853 -0.4967
 5375TIP3    H237541   4.407   3.431   3.474  0.0410  0.1053 -0.5282
 5376TIP3   OH237542   5.429   3.663  12.768 -0.1817 -0.0955 -0.2165
 5376TIP3    H137543   5.366   3.652  12.839 -0.5895 -0.9022 -0.6949
 5376TIP3    H237544   5.513   3.676  12.813 -0.9834  3.7749  0.5252
 5377TIP3   OH237545   1.996   6.732   6.021 -0.1192  0.2461  0.0252
 5377TIP3    H137546   1.926   6.795   6.036  0.0888  1.3123 -2.8047
 5377TIP3    H237547   2.072   6.768   6.068 -0.6945  0.6513  0.6537
 5378TIP3   OH237548   5.648   6.564  10.992  0.5133 -0.0104 -0.0516
 5378TIP3    H137549   5.555   6.567  11.015  0.4199  0.5194 -0.4785
 5378TIP3    H237550   5.663   6.473  10.968 -0.7136  0.4713 -3.1824
 5379TIP3   OH237551   4.496   3.690   1.445  0.0916  0.2839  0.4119
 5379TIP3    H137552   4.437   3.626   1.405  1.3975 -1.0609  0.5590
 5379TIP3    H237553   4.579   3.679   1.399  0.3498  1.9217  0.4186
 5380TIP3   OH237554   2.948   1.628  10.760  0.9123  0.2063  0.2189
 5380TIP3    H137555   2.904   1.620  10.676 -1.6473  1.1942  1.3616
 5380TIP3    H237556   3.012   1.697  10.747  0.7951  0.1105 -0.9888
 5381TIP3   OH237557   1.006   5.919   4.188 -0.0559  0.4298 -0.0282
 5381TIP3    H137558   1.037   6.009   4.197 -0.4038  0.4444  1.1230
 5381TIP3    H237559   1.039   5.891   4.103 -0.2793  1.7769 -0.5809
 5382TIP3   OH237560   5.947   5.520  13.039 -0.0351 -0.4173 -0.3555
 5382TIP3    H137561   5.873   5.516  13.099 -0.8288  0.3189 -1.2539
 5382TIP3    H237562   5.928   5.456  12.971  0.9050 -1.3162  0.1983
 5383TIP3   OH237563   6.557   2.421   2.330  0.2934  0.2714 -0.6744
 5383TIP3    H137564   6.503   2.397   2.406  0.7134  0.8524 -0.1838
 5383TIP3    H237565   6.647   2.421   2.363  0.6698 -1.1056 -1.5900
 5384TIP3   OH237566   6.725   0.093   0.472 -0.1040  0.0076  0.0901
 5384TIP3    H137567   6.645   0.092   0.525 -0.1514 -1.9742  0.0335
 5384TIP3    H237568   6.727   0.008   0.429  0.9245  0.8545 -1.6510
 5385TIP3   OH237569   4.590   3.061  14.828  0.5538 -0.1893 -0.0465
 5385TIP3    H137570   4.570   3.065  14.922  2.1916 -0.5283  0.3655
 5385TIP3    H237571   4.527   3.120  14.787 -1.4276 -1.4548  1.0259
 5386TIP3   OH237572   1.700   5.194   0.005  0.0889 -0.2678  0.3220
 5386TIP3    H137573   1.767   5.145  -0.042  1.5617  0.8293  1.1992
 5386TIP3    H237574   1.749   5.252   0.063 -1.6458 -1.1637  2.8359
 5387TIP3   OH237575   3.226   6.149   1.332  0.7559  0.3075  0.3873
 5387TIP3    H137576   3.207   6.061   1.365  0.7993  0.8987  2.1500
 5387TIP3    H237577   3.145   6.177   1.290  0.5638 -0.3770  0.3008
 5388TIP3   OH237578   5.906   5.955  15.719  0.2638 -0.0290  0.4843
 5388TIP3    H137579   5.887   5.882  15.778 -0.2594 -0.0697  0.2635
 5388TIP3    H237580   5.881   5.924  15.632  3.1323 -0.8192 -0.1745
 5389TIP3   OH237581   1.342   3.294   1.323  0.0838 -0.2490 -0.1350
 5389TIP3    H137582   1.255   3.295   1.363 -0.7364 -1.0062 -1.8291
 5389TIP3    H237583   1.326   3.303   1.229  1.7259 -1.7724 -0.6214
 5390TIP3   OH237584   4.025   4.961  13.018  0.0138  0.1931 -0.3474
 5390TIP3    H137585   4.075   5.032  13.058 -0.8192 -0.2364  1.5652
 5390TIP3    H237586   3.988   4.912  13.092 -0.7929 -1.2608 -1.6344
 5391TIP3   OH237587   0.340   6.770  13.410 -0.2888  0.1730 -0.3472
 5391TIP3    H137588   0.367   6.862  13.408 -1.6331  0.6232  0.8540
 5391TIP3    H237589   0.337   6.747  13.503  0.6721 -1.3144 -0.6333
 5392TIP3   OH237590   1.453   4.853   3.362 -0.1068  0.2200 -0.1475
 5392TIP3    H137591   1.538   4.871   3.321 -0.1249 -1.3298 -0.9246
 5392TIP3    H237592   1.468   4.774   3.414 -0.8148  0.5505  0.5644
 5393TIP3   OH237593   0.097   0.896   4.606 -0.0004  0.4298  0.6028
 5393TIP3    H137594   0.115   0.985   4.637 -1.1294  0.5212  1.0559
 5393TIP3    H237595   0.050   0.854   4.679 -1.9730  0.3739 -0.6090
 5394TIP3   OH237596   1.669   5.424   2.810 -0.4310 -0.1812  0.0786
 5394TIP3    H137597   1.734   5.354   2.819 -0.3908 -0.7131 -3.1179
 5394TIP3    H237598   1.721   5.504   2.812  0.2826 -0.5537 -1.3923
 5395TIP3   OH237599   2.062   3.897  12.901  0.0311  0.0548 -0.1121
 5395TIP3    H137600   2.106   3.958  12.842  1.3710 -0.5898  0.1904
 5395TIP3    H237601   2.114   3.817  12.897  0.0405 -0.0754  1.7607
 5396TIP3   OH237602   3.413   0.380   4.626 -0.5404  0.1361  0.4283
 5396TIP3    H137603   3.484   0.400   4.687 -0.7929  1.5472  0.2809
 5396TIP3    H237604   3.399   0.461   4.578 -0.0738 -1.0268 -1.8381
 5397TIP3   OH237605   5.706   4.737   3.423 -0.0070  0.1362 -0.4151
 5397TIP3    H137606   5.653   4.761   3.347 -0.9558 -1.2455 -0.2248
 5397TIP3    H237607   5.797   4.743   3.391 -0.2980  1.3057 -1.1076
 5398TIP3   OH237608   6.029   3.758   3.350 -0.6836 -0.3476 -0.4285
 5398TIP3    H137609   6.099   3.711   3.305 -0.2798 -0.2159  0.0530
 5398TIP3    H237610   5.983   3.691   3.399 -1.4154 -0.5656 -1.3983
 5399TIP3   OH237611   6.608   0.919   1.577  0.2306 -0.0679  0.2518
 5399TIP3    H137612   6.514   0.900   1.569  0.3400 -1.2520  1.4834
 5399TIP3    H237613   6.611   1.002   1.625 -0.1918  0.9637 -1.4337
 5400TIP3   OH237614   1.128   5.097  11.342 -0.7798  0.3285  0.0205
 5400TIP3    H137615   1.114   5.014  11.297 -1.9790  0.5505 -0.0699
 5400TIP3    H237616   1.059   5.154  11.308 -0.5713  1.0569  0.7883
 5401TIP3   OH237617   1.332   4.441   6.173  0.1702 -0.5453 -0.0101
 5401TIP3    H137618   1.393   4.503   6.214 -0.6224 -0.0218  0.4085
 5401TIP3    H237619   1.296   4.390   6.247 -0.1298 -0.6362 -0.2148
 5402TIP3   OH237620   3.063   1.029   3.493 -0.9789  0.3042  0.4064
 5402TIP3    H137621   3.101   1.089   3.428  1.1449 -1.7973 -0.4573
 5402TIP3    H237622   2.969   1.035   3.479 -0.7541  2.2198 -0.7153
 5403TIP3   OH237623   6.126   3.055  16.284  0.4130 -0.3520  0.0920
 5403TIP3    H137624   6.170   3.031  16.203  1.1839  1.8017 -0.1721
 5403TIP3    H237625   6.045   3.003  16.283 -0.0923  0.3506 -2.5457
 5404TIP3   OH237626   0.090   0.339  13.732  0.1996 -0.4639  0.4609
 5404TIP3    H137627   0.066   0.279  13.661 -0.0764 -0.4703  0.5567
 5404TIP3    H237628   0.185   0.346  13.726  0.4359 -2.2338  1.4947
 5405TIP3   OH237629   0.145   3.456   6.303 -0.3133  0.0573  1.0462
 5405TIP3    H137630   0.187   3.385   6.255 -1.5453 -1.9599  2.7903
 5405TIP3    H237631   0.064   3.473   6.255  0.6207  1.3525 -0.1725
 5406TIP3   OH237632   0.271   0.037  14.165  0.7276 -0.4639 -0.7718
 5406TIP3    H137633   0.262   0.093  14.242  1.6442 -0.3751 -0.7165
 5406TIP3    H237634   0.274   0.097  14.091  0.3136 -0.5255 -0.8446
 5407TIP3   OH237635   3.942   6.411   0.578  0.1788  0.6729  1.0401
 5407TIP3    H137636   3.923   6.345   0.511  2.2041 -0.2355  1.2961
 5407TIP3    H237637   3.894   6.382   0.655  2.1138 -1.3322  1.5657
 5408TIP3   OH237638   3.652   6.385   6.118  0.3715 -0.4720  0.0934
 5408TIP3    H137639   3.576   6.425   6.077 -2.2435 -1.4927  3.4065
 5408TIP3    H237640   3.713   6.457   6.133 -1.0930  0.9121 -0.3367
 5409TIP3   OH237641   5.607   4.653  15.132 -0.0040  0.6299  0.2052
 5409TIP3    H137642   5.622   4.566  15.097 -0.9070  0.9686 -1.0901
 5409TIP3    H237643   5.512   4.657  15.145  0.0629  1.3195  0.5070
 5410TIP3   OH237644   6.468   2.699   1.188 -0.2893 -0.2883 -0.1222
 5410TIP3    H137645   6.467   2.794   1.204 -2.7567 -0.4689  1.2716
 5410TIP3    H237646   6.382   2.669   1.217  0.8548 -3.1589  0.6192
 5411TIP3   OH237647   1.113   5.685  16.196  0.0434 -0.8065  0.2906
 5411TIP3    H137648   1.203   5.653  16.206  0.9552  0.8208 -1.7949
 5411TIP3    H237649   1.111   5.765  16.248  0.4538  0.1502 -1.0839
 5412TIP3   OH237650   1.631   3.413   5.715  0.2959 -0.4101 -0.3474
 5412TIP3    H137651   1.653   3.505   5.700 -0.3347  0.2369  2.3193
 5412TIP3    H237652   1.714   3.371   5.734  0.6898 -0.6064 -2.3108
 5413TIP3   OH237653   1.804   6.075   0.689 -0.2289 -0.1130 -0.0506
 5413TIP3    H137654   1.776   6.026   0.766  1.3205  0.5669  1.0065
 5413TIP3    H237655   1.820   6.163   0.722  0.5052  0.1749 -1.1416
 5414TIP3   OH237656   4.393   1.018   0.849 -0.1602 -0.5151 -0.1088
 5414TIP3    H137657   4.332   0.979   0.912 -1.4685  0.9080 -0.4346
 5414TIP3    H237658   4.429   1.093   0.895  0.2480 -0.5112 -0.4381
 5415TIP3   OH237659   3.231   6.220   5.494 -0.1791  0.2830 -0.1450
 5415TIP3    H137660   3.309   6.271   5.515 -0.0175  0.4883 -1.1675
 5415TIP3    H237661   3.177   6.223   5.573 -0.4384  2.5290 -0.3457
 5416TIP3   OH237662   1.916   6.245  11.221 -0.0697 -0.3992  0.5690
 5416TIP3    H137663   1.971   6.297  11.279 -1.0914  2.1616 -0.5901
 5416TIP3    H237664   1.826   6.268  11.245 -0.5654 -1.4789 -0.1580
 5417TIP3   OH237665   5.961   3.628  12.914 -0.2115 -0.4054  0.0566
 5417TIP3    H137666   5.989   3.625  12.822  0.6659 -0.9226  0.3215
 5417TIP3    H237667   5.939   3.537  12.935  1.8116 -0.7378  0.9855
 5418TIP3   OH237668   6.345   0.378  15.138 -0.0429  0.2515 -0.4507
 5418TIP3    H137669   6.390   0.442  15.193  2.9376 -1.7906 -0.2458
 5418TIP3    H237670   6.323   0.306  15.198 -1.0524 -0.0073 -1.1028
 5419TIP3   OH237671   3.591   4.354  13.182 -0.7366  0.1496  0.0476
 5419TIP3    H137672   3.656   4.344  13.251 -1.7519 -1.4636  0.8336
 5419TIP3    H237673   3.559   4.265  13.166 -1.8111  0.7303 -1.2294
 5420TIP3   OH237674   5.257   6.085  15.600 -0.1951 -0.1850  0.4274
 5420TIP3    H137675   5.228   6.166  15.558  1.3007  0.1713 -0.0013
 5420TIP3    H237676   5.339   6.063  15.554  0.4241 -0.8780  1.8134
 5421TIP3   OH237677   1.354   0.354   3.783 -0.4463  0.7016  0.0187
 5421TIP3    H137678   1.281   0.324   3.837  0.0794 -0.4129  0.1345
 5421TIP3    H237679   1.334   0.323   3.695  0.3259 -0.4805  0.2257
 5422TIP3   OH237680   0.939   2.969  13.561  0.1253  0.4689  0.7189
 5422TIP3    H137681   0.897   2.983  13.646 -0.7135  1.0715  0.2233
 5422TIP3    H237682   0.869   2.934  13.505  0.7930 -0.4030  0.4068
 5423TIP3   OH237683   1.245   5.760  15.094  0.3790  0.0088  0.8106
 5423TIP3    H137684   1.334   5.724  15.091 -0.4853 -2.3297  0.6907
 5423TIP3    H237685   1.190   5.686  15.121 -1.5710  1.3436  0.7662
 5424TIP3   OH237686   3.746   1.126  11.041  0.3991 -0.2520 -0.0556
 5424TIP3    H137687   3.802   1.060  11.081 -1.0979 -1.6870 -0.2188
 5424TIP3    H237688   3.659   1.109  11.077  0.1689  2.4847  0.8795
 5425TIP3   OH237689   2.973   0.060  13.590 -0.2570  0.1968  0.1007
 5425TIP3    H137690   3.029  -0.016  13.573  0.0644 -0.3077  2.8717
 5425TIP3    H237691   3.009   0.129  13.535  0.6376 -1.1389 -1.0769
 5426TIP3   OH237692   5.878   5.628   3.611 -0.4044 -0.2912 -0.4846
 5426TIP3    H137693   5.857   5.720   3.594 -0.9035 -0.2844  0.1174
 5426TIP3    H237694   5.968   5.629   3.644  0.0701 -0.1656 -1.7407
 5427TIP3   OH237695   5.710   6.348  11.327  0.4359 -0.3034  0.0953
 5427TIP3    H137696   5.769   6.423  11.331  1.6751 -1.2662  0.8415
 5427TIP3    H237697   5.631   6.381  11.285  1.1461  1.2745 -0.0616
 5428TIP3   OH237698   4.733   1.232   4.644 -0.2951  0.0392 -0.0275
 5428TIP3    H137699   4.648   1.226   4.688  0.5738 -1.6071  1.5269
 5428TIP3    H237700   4.793   1.183   4.700  1.5052  0.3675 -1.5722
 5429TIP3   OH237701   4.835   5.630   0.565  0.0914 -0.1180 -0.1072
 5429TIP3    H137702   4.898   5.651   0.633  1.0478  0.4333 -1.1297
 5429TIP3    H237703   4.882   5.644   0.483 -0.7884 -1.4813 -0.8914
 5430TIP3   OH237704   6.090   4.804   4.990  0.4031  0.1624  0.2110
 5430TIP3    H137705   6.135   4.831   5.071  1.7604  0.3693 -0.5818
 5430TIP3    H237706   6.062   4.714   5.007  0.6535  0.2129  0.9287
 5431TIP3   OH237707   2.717   2.237  13.275 -0.0519  0.0292 -0.1430
 5431TIP3    H137708   2.625   2.222  13.250 -0.4769  0.0878  1.2845
 5431TIP3    H237709   2.767   2.205  13.201 -1.1474 -2.4218  0.0566
 5432TIP3   OH237710   1.231   5.653  10.666 -0.6016  0.5339 -0.3645
 5432TIP3    H137711   1.262   5.705  10.740 -1.0681  1.0074 -0.4971
 5432TIP3    H237712   1.278   5.570  10.674 -0.6248  0.5884  0.4468
 5433TIP3   OH237713   2.655   0.878  15.029 -0.1637 -0.2751  0.1775
 5433TIP3    H137714   2.726   0.923  15.075  0.5530 -1.7114  0.5295
 5433TIP3    H237715   2.656   0.914  14.941  0.5958  0.1743  0.3636
 5434TIP3   OH237716   4.110   5.791   3.181 -0.6853  0.1378  0.5327
 5434TIP3    H137717   4.158   5.834   3.110 -0.6415  0.5049  0.7796
 5434TIP3    H237718   4.172   5.727   3.216 -0.2119  0.8949  1.1217
 5435TIP3   OH237719   6.431   0.778  11.766  0.2694  0.0066  0.3415
 5435TIP3    H137720   6.403   0.869  11.766  0.7711  0.1783 -0.5862
 5435TIP3    H237721   6.527   0.783  11.768  0.3425 -0.4508 -1.0026
 5436TIP3   OH237722   1.427   4.179   2.943  0.3520  0.3007 -0.2330
 5436TIP3    H137723   1.393   4.109   2.999 -2.0021  1.0845 -0.5568
 5436TIP3    H237724   1.349   4.228   2.916  1.6492  1.4482 -2.1784
 5437TIP3   OH237725   4.782   0.379   3.471  0.6540  0.3067 -0.4501
 5437TIP3    H137726   4.822   0.390   3.558 -0.1628 -1.2269  0.1774
 5437TIP3    H237727   4.728   0.300   3.481 -2.2236  2.0415 -1.3391
 5438TIP3   OH237728   2.991   3.520   2.427 -0.7135  0.7671 -0.3896
 5438TIP3    H137729   3.003   3.614   2.412  1.9531  0.3959 -1.1053
 5438TIP3    H237730   3.015   3.479   2.344  1.7416 -0.6823  0.9337
 5439TIP3   OH237731   1.785   1.077  12.652 -0.0542  0.1257  0.0549
 5439TIP3    H137732   1.799   1.167  12.622 -0.5461  0.6189  1.2370
 5439TIP3    H237733   1.865   1.055  12.701  0.2009 -0.2035 -0.5030
 5440TIP3   OH237734   4.345   0.549   4.061  0.1589 -0.3001 -0.0477
 5440TIP3    H137735   4.370   0.458   4.076  0.0293 -0.5478 -1.2204
 5440TIP3    H237736   4.274   0.544   3.997 -0.0689  0.6104  0.1214
 5441TIP3   OH237737   2.699   4.248   2.306  0.1681  0.8016  0.2361
 5441TIP3    H137738   2.724   4.157   2.290 -0.3286  0.4227  1.4716
 5441TIP3    H237739   2.615   4.258   2.260 -0.0027  0.4905  0.4726
 5442TIP3   OH237740   5.420   3.550   0.510 -0.4572 -0.0711  0.4283
 5442TIP3    H137741   5.441   3.634   0.550  0.9068 -0.2305  0.1196
 5442TIP3    H237742   5.380   3.573   0.426 -0.4964  0.2688  0.5398
 5443TIP3   OH237743   1.271   4.119  13.825  0.7380 -0.5867  0.2720
 5443TIP3    H137744   1.194   4.134  13.879  0.2157 -1.2508 -0.2730
 5443TIP3    H237745   1.254   4.168  13.745  0.6045 -1.1957 -0.0837
 5444TIP3   OH237746   6.745   4.725   0.747 -0.1547 -0.1865 -0.5430
 5444TIP3    H137747   6.697   4.804   0.772  0.5176 -0.4052  1.7411
 5444TIP3    H237748   6.837   4.748   0.760  0.0847 -1.1136 -0.5179
 5445TIP3   OH237749   5.804   4.683   2.188 -0.0576  0.2112 -0.0144
 5445TIP3    H137750   5.780   4.773   2.166  1.0353  0.1155 -1.7436
 5445TIP3    H237751   5.735   4.654   2.247 -0.5997  2.0731  0.3406
 5446TIP3   OH237752   3.166   1.521  11.568  0.5945  0.0586 -0.0986
 5446TIP3    H137753   3.223   1.445  11.579 -1.0864 -1.1508  0.6974
 5446TIP3    H237754   3.164   1.536  11.473  1.6198 -0.3424 -0.1947
 5447TIP3   OH237755   0.249   2.726  11.403 -1.3892  0.1560 -0.0069
 5447TIP3    H137756   0.278   2.779  11.329 -1.5323 -1.2953 -1.1530
 5447TIP3    H237757   0.265   2.636  11.376  0.8133 -0.4115  2.6831
 5448TIP3   OH237758   0.975   0.989  13.023  0.1084  0.0767  0.1168
 5448TIP3    H137759   0.956   0.988  12.929 -2.1950  2.5699  0.4302
 5448TIP3    H237760   0.929   0.912  13.057  0.2563 -0.3683 -0.6477
 5449TIP3   OH237761   4.660   2.554  10.388 -0.1814 -0.4596  0.1547
 5449TIP3    H137762   4.722   2.576  10.459 -0.3619 -1.0514  0.4989
 5449TIP3    H237763   4.581   2.603  10.410 -0.2458 -0.6624  0.3814
 5450TIP3   OH237764   2.720   5.110   6.163 -0.1551  0.1059  0.6195
 5450TIP3    H137765   2.656   5.044   6.189  0.5762 -0.3649  1.2533
 5450TIP3    H237766   2.758   5.141   6.245  1.3549 -0.5750  0.2131
 5451TIP3   OH237767   4.098   2.536  15.511  0.0414 -0.2640 -0.0418
 5451TIP3    H137768   4.109   2.558  15.418  0.4033  1.1866  0.3211
 5451TIP3    H237769   4.017   2.580  15.536  1.2553  1.5697  0.9340
 5452TIP3   OH237770   2.274   5.139  13.712  0.0970  0.1285  0.1018
 5452TIP3    H137771   2.242   5.217  13.667 -0.6340 -1.9502 -3.3224
 5452TIP3    H237772   2.365   5.132  13.686  0.8386  0.9257  2.2282
 5453TIP3   OH237773   5.670   5.481  13.091 -0.2019  0.1338  0.7486
 5453TIP3    H137774   5.685   5.522  13.177  1.7946 -0.6706  0.8558
 5453TIP3    H237775   5.584   5.442  13.098 -1.2031  2.2890  1.4456
 5454TIP3   OH237776   0.870   4.212   4.590  0.3090 -0.0822  0.3912
 5454TIP3    H137777   0.929   4.287   4.596  0.4069 -0.2383  1.9490
 5454TIP3    H237778   0.835   4.203   4.679 -0.4078 -1.3070  0.0034
 5455TIP3   OH237779   5.593   1.306   3.465  0.0272  0.1866  0.3273
 5455TIP3    H137780   5.661   1.328   3.529  0.9236 -0.2760 -0.4501
 5455TIP3    H237781   5.632   1.240   3.409 -0.9376  0.1814 -0.3773
 5456TIP3   OH237782   1.590   2.184  10.586 -0.0869 -0.5739 -0.5423
 5456TIP3    H137783   1.623   2.272  10.602  2.4197 -1.7392  1.5464
 5456TIP3    H237784   1.500   2.196  10.557  0.0583  2.6245 -0.0022
 5457TIP3   OH237785   4.050   2.984   2.302  0.1468 -0.7695 -0.0809
 5457TIP3    H137786   4.063   3.078   2.319  0.4956 -0.6360 -1.0070
 5457TIP3    H237787   4.130   2.943   2.333  0.5878 -0.5805 -0.9176
 5458TIP3   OH237788   6.516   0.362  12.356 -0.0579  0.9943 -0.5079
 5458TIP3    H137789   6.488   0.287  12.408 -1.7292  0.5422 -1.9677
 5458TIP3    H237790   6.605   0.380  12.386  0.6525 -1.9618 -0.5333
 5459TIP3   OH237791   2.442   4.275   5.051  0.4585 -0.4580  0.1649
 5459TIP3    H137792   2.418   4.365   5.074 -0.0678 -0.4690 -0.3038
 5459TIP3    H237793   2.373   4.222   5.092  1.7255 -0.8108  1.9523
 5460TIP3   OH237794   2.792   2.113  11.320  0.2114  0.0072 -0.2124
 5460TIP3    H137795   2.857   2.102  11.389 -1.9595 -1.3431  1.7649
 5460TIP3    H237796   2.759   2.024  11.304  0.8316  0.2139 -3.2955
 5461TIP3   OH237797   2.442   5.774  15.802 -0.6616 -0.3244  0.0587
 5461TIP3    H137798   2.442   5.723  15.721 -2.1538 -0.4433  0.1075
 5461TIP3    H237799   2.419   5.863  15.775  0.8662  0.1235  0.1158
 5462TIP3   OH237800   4.948   2.948  17.032 -0.0183  0.0232  0.8724
 5462TIP3    H137801   4.875   2.887  17.036  1.1609 -1.4032  2.3676
 5462TIP3    H237802   4.974   2.948  16.940 -1.2594 -0.2234  0.5053
 5463TIP3   OH237803   0.551   2.821  16.159  0.1367 -0.9603  0.0440
 5463TIP3    H137804   0.628   2.770  16.133  0.4820 -1.2703  1.5338
 5463TIP3    H237805   0.488   2.755  16.187  0.2568 -0.6246  1.1519
 5464TIP3   OH237806   2.780   0.719   4.319 -0.4744 -0.4869  0.3014
 5464TIP3    H137807   2.834   0.715   4.240 -0.6179 -0.8586  0.2223
 5464TIP3    H237808   2.698   0.676   4.295 -0.8130  0.0908  0.4188
 5465TIP3   OH237809   5.103   3.991   3.446 -0.6148  0.2529  0.4597
 5465TIP3    H137810   5.151   4.038   3.514 -0.3997  0.5883  0.0865
 5465TIP3    H237811   5.029   4.047   3.426  1.0215  1.8187 -1.8387
 5466TIP3   OH237812   3.298   4.079  12.872 -0.1152  0.3961 -0.0845
 5466TIP3    H137813   3.229   4.143  12.888 -0.4777 -0.0692  0.1938
 5466TIP3    H237814   3.270   4.032  12.793  0.0320  0.4085 -0.1459
 5467TIP3   OH237815   2.705   0.367  16.313  0.2993 -0.0076 -0.5746
 5467TIP3    H137816   2.701   0.279  16.276  0.6052 -0.0984 -0.3987
 5467TIP3    H237817   2.624   0.375  16.365 -0.9782  0.7338 -2.5769
 5468TIP3   OH237818   3.541   3.163   3.346  0.0223 -0.0717  0.2285
 5468TIP3    H137819   3.606   3.202   3.287 -1.1055 -1.5860 -2.2202
 5468TIP3    H237820   3.592   3.112   3.408  1.2416 -0.5013 -1.0617
 5469TIP3   OH237821   0.189   0.533  14.456  0.0242  0.1273  0.0826
 5469TIP3    H137822   0.276   0.510  14.489 -0.0496  1.4956  1.3206
 5469TIP3    H237823   0.206   0.597  14.387  0.0011  0.6288  0.5351
 5470TIP3   OH237824   1.639   1.530   3.032 -0.1615 -0.7597  0.2905
 5470TIP3    H137825   1.626   1.549   3.125 -0.7691  0.7118 -0.0618
 5470TIP3    H237826   1.733   1.537   3.018 -0.3574  3.1072  0.0483
 5471TIP3   OH237827   0.314   4.112   3.240  0.2184 -0.5277 -1.0663
 5471TIP3    H137828   0.261   4.070   3.308 -0.7530  0.6570 -1.0639
 5471TIP3    H237829   0.271   4.089   3.158 -0.9651  1.2601 -1.0061
 5472TIP3   OH237830   5.766   1.911  16.032  0.1095 -0.0545  0.0360
 5472TIP3    H137831   5.697   1.971  16.059  0.5398  0.6222 -0.3312
 5472TIP3    H237832   5.809   1.956  15.959  0.6422 -0.6686 -0.0324
 5473TIP3   OH237833   2.228   6.198   4.325  0.8201 -0.4167  0.0340
 5473TIP3    H137834   2.312   6.221   4.285  1.0632  0.8202  1.1712
 5473TIP3    H237835   2.250   6.184   4.418 -0.1183 -0.7926  0.2051
 5474TIP3   OH237836   0.312   0.881  13.235  0.2445  0.3945 -0.1246
 5474TIP3    H137837   0.257   0.943  13.283  1.0976  0.5646  0.6609
 5474TIP3    H237838   0.250   0.833  13.180 -0.4023  2.1935 -1.0627
 5475TIP3   OH237839   4.360   6.799  11.145  0.0982 -0.2210  0.2947
 5475TIP3    H137840   4.414   6.876  11.126 -0.0880 -0.1438  0.0741
 5475TIP3    H237841   4.416   6.744  11.200  0.7033 -0.5296 -0.6204
 5476TIP3   OH237842   5.021   2.912  11.643  0.8712  0.1157  0.3412
 5476TIP3    H137843   4.952   2.845  11.643  2.1090 -1.2218  0.5263
 5476TIP3    H237844   5.067   2.899  11.560  0.4536  1.4957 -0.1273
 5477TIP3   OH237845   3.263   3.781  11.693 -0.4026 -0.1149 -0.5767
 5477TIP3    H137846   3.190   3.759  11.752  1.0218  0.4229  1.5206
 5477TIP3    H237847   3.337   3.796  11.752  1.1914  0.2600 -2.5694
 5478TIP3   OH237848   5.832   2.027  13.396  0.0721  0.4028  0.3680
 5478TIP3    H137849   5.877   1.981  13.325 -2.7849 -1.1335 -0.6004
 5478TIP3    H237850   5.774   2.089  13.351 -0.7404  0.4455  1.4290
 5479TIP3   OH237851   2.556   3.712  12.000  0.5510  0.0154  0.2539
 5479TIP3    H137852   2.564   3.701  11.906 -0.3000 -1.1504  0.2999
 5479TIP3    H237853   2.598   3.634  12.037  0.0997  0.0323  0.8144
 5480TIP3   OH237854   4.451   3.486  11.481  0.1128 -0.1933 -0.4124
 5480TIP3    H137855   4.376   3.464  11.426 -0.8247 -0.5499  0.9499
 5480TIP3    H237856   4.524   3.493  11.420 -1.2931  1.7251 -2.0055
 5481TIP3   OH237857   5.303   5.853  16.697  0.2343  0.5039  0.2778
 5481TIP3    H137858   5.265   5.906  16.627 -0.2042  0.7781  0.7183
 5481TIP3    H237859   5.352   5.785  16.651  3.5155  3.0599 -0.4092
 5482TIP3   OH237860   5.866   0.825   2.713  0.4076  0.4773 -0.4091
 5482TIP3    H137861   5.854   0.731   2.726  0.9175  0.7872  3.0426
 5482TIP3    H237862   5.961   0.836   2.707  0.3839  0.8638 -0.0445
 5483TIP3   OH237863   3.802   2.893   2.153  0.7346 -0.5018 -0.0671
 5483TIP3    H137864   3.861   2.889   2.078  1.0751  0.0863  0.1649
 5483TIP3    H237865   3.856   2.928   2.224 -0.0629  0.6553 -0.0213
 5484TIP3   OH237866   4.670   3.474   2.635  0.0531 -0.4681 -0.3525
 5484TIP3    H137867   4.759   3.440   2.645  1.2474  1.2377 -3.6399
 5484TIP3    H237868   4.626   3.408   2.582 -0.4504 -0.9153  0.5875
 5485TIP3   OH237869   1.853   1.830   4.874  0.1736  0.7099  0.2446
 5485TIP3    H137870   1.925   1.778   4.911  0.7201  2.6012  1.9731
 5485TIP3    H237871   1.868   1.825   4.779  0.4816 -1.7929  0.3351
 5486TIP3   OH237872   1.845   6.606   0.639  0.2590  0.5463 -0.0065
 5486TIP3    H137873   1.937   6.618   0.662  0.7511  0.7377 -1.8599
 5486TIP3    H237874   1.796   6.636   0.716  1.7304  1.0045  0.7882
 5487TIP3   OH237875   2.717   6.467   1.713 -0.4057 -0.1991  0.0919
 5487TIP3    H137876   2.769   6.441   1.637 -0.6243 -1.7360  0.4399
 5487TIP3    H237877   2.782   6.481   1.782 -0.2927  0.0186 -0.0576
 5488TIP3   OH237878   4.604   1.869   5.667 -0.6045  0.8241 -0.1691
 5488TIP3    H137879   4.536   1.845   5.605 -0.0393  0.6726 -0.7326
 5488TIP3    H237880   4.683   1.878   5.615  0.8302 -3.1205  0.9756
 5489TIP3   OH237881   2.784   4.556   4.112  0.0850 -0.6560  0.1591
 5489TIP3    H137882   2.879   4.545   4.121  0.2139 -1.1713 -1.4034
 5489TIP3    H237883   2.774   4.600   4.027 -1.0950 -1.2933 -0.0508
 5490TIP3   OH237884   3.861   3.027  12.865 -0.0988  0.0776  0.0617
 5490TIP3    H137885   3.864   3.100  12.926 -0.0749  1.1836 -1.2258
 5490TIP3    H237886   3.767   3.005  12.859 -0.2750  1.0134 -0.7042
 5491TIP3   OH237887   3.013   0.320  13.126 -0.1844  0.7388  0.3622
 5491TIP3    H137888   3.066   0.287  13.053 -0.7642 -0.4686  0.4512
 5491TIP3    H237889   3.012   0.415  13.115 -0.3240  0.5808 -1.2594
 5492TIP3   OH237890   2.645   5.464  11.747  1.0781 -0.2811 -0.0838
 5492TIP3    H137891   2.671   5.509  11.827  0.3717 -0.4925  0.2676
 5492TIP3    H237892   2.649   5.371  11.769 -1.9405 -0.3252  0.6507
 5493TIP3   OH237893   6.106   2.380  15.898  0.8382  0.1519  0.5202
 5493TIP3    H137894   6.100   2.293  15.937  0.1973  0.5303  1.2740
 5493TIP3    H237895   6.066   2.438  15.962  1.4797  1.0433  0.1311
 5494TIP3   OH237896   2.815   0.932   5.352  0.6132  0.3028  0.1753
 5494TIP3    H137897   2.900   0.887   5.352  0.5849  0.2203 -0.9157
 5494TIP3    H237898   2.782   0.920   5.263 -0.6139  0.2187  0.6264
 5495TIP3   OH237899   4.629   2.771   4.986 -0.0110 -0.0034 -0.5190
 5495TIP3    H137900   4.722   2.762   5.008 -0.1783 -0.4987  0.0029
 5495TIP3    H237901   4.584   2.778   5.070 -0.6817 -2.1147 -0.6464
 5496TIP3   OH237902   3.527   5.155  15.210  0.6598 -0.3420  0.1765
 5496TIP3    H137903   3.611   5.192  15.238  0.2743 -0.8842  2.2120
 5496TIP3    H237904   3.550   5.073  15.167  1.2079 -0.1228  0.0388
 5497TIP3   OH237905   4.726   4.744  15.132  0.0622 -0.3481  0.1717
 5497TIP3    H137906   4.730   4.801  15.209 -0.1324  0.6921 -0.5751
 5497TIP3    H237907   4.632   4.730  15.118  0.1178 -1.0787  0.5134
 5498TIP3   OH237908   3.304   5.357   4.156 -0.5297  0.4496  0.4545
 5498TIP3    H137909   3.229   5.344   4.214 -0.4324 -0.4230  0.3912
 5498TIP3    H237910   3.380   5.356   4.214 -0.4557 -0.1170  0.3484
 5499TIP3   OH237911   6.283   3.760   0.403 -0.6458  0.2819  0.2865
 5499TIP3    H137912   6.343   3.801   0.465 -1.2096  1.6843 -0.0571
 5499TIP3    H237913   6.339   3.716   0.340  0.1281  2.7229 -0.8389
 5500TIP3   OH237914   5.806   3.973   0.620  0.9998 -0.2754  0.1687
 5500TIP3    H137915   5.740   4.042   0.618  0.9022 -0.3475 -2.0558
 5500TIP3    H237916   5.880   4.008   0.571  1.3724 -1.3357 -0.0654
 5501TIP3   OH237917   3.379   4.935  16.667  0.2413  0.0210  0.0350
 5501TIP3    H137918   3.440   4.864  16.644 -0.8500 -0.8386 -0.2896
 5501TIP3    H237919   3.354   4.973  16.582  0.5473  0.5677  0.1861
 5502TIP3   OH237920   3.669   6.486  12.279  0.4086  0.2302 -0.0227
 5502TIP3    H137921   3.591   6.522  12.237 -0.9399 -0.7318  1.5283
 5502TIP3    H237922   3.660   6.391  12.268  0.6849  0.0387  1.2820
 5503TIP3   OH237923   0.129   5.335   6.591  0.9374  0.3226  0.5861
 5503TIP3    H137924   0.168   5.332   6.678  0.9753 -2.5860  0.5433
 5503TIP3    H237925   0.094   5.424   6.584  1.6171  0.8878  3.2457
 5504TIP3   OH237926   3.135   5.382   3.626  0.2464  0.1111  0.1526
 5504TIP3    H137927   3.171   5.302   3.589 -1.8517 -0.9098  0.1251
 5504TIP3    H237928   3.179   5.392   3.710  1.1519 -0.5887 -0.2216
 5505TIP3   OH237929   6.477   5.806   0.979 -0.0528 -0.3049 -0.5503
 5505TIP3    H137930   6.402   5.812   1.039 -1.1705 -2.1612 -1.6414
 5505TIP3    H237931   6.468   5.882   0.922 -0.2191  0.2985  0.2510
 5506TIP3   OH237932   5.603   0.520   5.173  0.0617  0.6081 -0.1595
 5506TIP3    H137933   5.542   0.549   5.241  0.4250  0.4442  0.2374
 5506TIP3    H237934   5.553   0.456   5.122 -0.3317  1.0027 -0.2779
 5507TIP3   OH237935   4.982   4.211   4.674  0.0113 -0.6130 -0.1767
 5507TIP3    H137936   4.907   4.202   4.617 -0.6928 -0.7647  0.7540
 5507TIP3    H237937   4.979   4.135   4.732 -1.3822  1.2531  2.4144
 5508TIP3   OH237938   5.845   2.518  15.630 -0.1901  0.3136  0.1319
 5508TIP3    H137939   5.818   2.430  15.658 -0.5324  0.7971  1.3751
 5508TIP3    H237940   5.822   2.575  15.703  1.8075  1.1601  0.1591
 5509TIP3   OH237941   6.294   4.327   4.191  0.6691  0.1527  0.0679
 5509TIP3    H137942   6.246   4.364   4.265 -0.6289  0.0845 -0.7111
 5509TIP3    H237943   6.374   4.291   4.230 -0.0155  0.0451  1.4398
 5510TIP3   OH237944   1.288   2.374   3.965 -0.2255  0.3445 -0.0026
 5510TIP3    H137945   1.203   2.332   3.953 -0.5789  1.3442 -1.3027
 5510TIP3    H237946   1.302   2.424   3.884  2.7228 -1.6788 -0.8942
 5511TIP3   OH237947   5.061   6.791   0.721 -0.0688 -0.1297  0.3120
 5511TIP3    H137948   5.128   6.860   0.725 -0.2520 -0.0133  1.6936
 5511TIP3    H237949   5.034   6.779   0.812 -3.6775  1.5361 -0.3610
 5512TIP3   OH237950   6.173   1.785  15.372 -0.2969  0.3954  0.0359
 5512TIP3    H137951   6.140   1.752  15.288 -0.6850  0.0217  0.3271
 5512TIP3    H237952   6.109   1.850  15.399  0.4765  1.4234 -0.5434
 5513TIP3   OH237953   2.874   1.768  12.224  0.7332  0.0623  0.3372
 5513TIP3    H137954   2.934   1.767  12.300  0.7820 -0.3487  0.2985
 5513TIP3    H237955   2.797   1.815  12.255  0.4267 -0.7757  0.9060
 5514TIP3   OH237956   0.045   0.232   3.766  0.4989  0.3711  0.5289
 5514TIP3    H137957   0.127   0.280   3.750 -0.2213  1.0874 -1.1997
 5514TIP3    H237958  -0.022   0.300   3.772 -0.3639 -0.3375 -0.7521
 5515TIP3   OH237959   5.854   5.905   3.649 -0.3832 -0.5137 -0.0245
 5515TIP3    H137960   5.910   5.940   3.718 -2.0896  0.0714  1.1138
 5515TIP3    H237961   5.802   5.979   3.619 -1.0647 -1.1874 -0.5524
 5516TIP3   OH237962   5.309   1.145  16.148 -0.3471 -0.0026 -1.2392
 5516TIP3    H137963   5.334   1.188  16.230  0.2504 -0.2032 -1.3149
 5516TIP3    H237964   5.284   1.056  16.174 -0.2617 -0.0331 -1.2623
 5517TIP3   OH237965   3.442   4.838   3.921 -0.1079  0.4847 -0.2041
 5517TIP3    H137966   3.407   4.927   3.923  0.3249  0.7198 -1.7239
 5517TIP3    H237967   3.511   4.841   3.854  0.3489 -0.8357  0.1794
 5518TIP3   OH237968   0.782   3.827  13.984  0.3418  0.0064  1.0371
 5518TIP3    H137969   0.854   3.784  14.030 -1.1097 -1.9230  1.6439
 5518TIP3    H237970   0.778   3.914  14.022  2.1827  0.0957  1.1483
 5519TIP3   OH237971   5.401   6.505  12.220  0.1201  0.2448  0.5914
 5519TIP3    H137972   5.454   6.474  12.146 -0.1004 -2.2504  1.4060
 5519TIP3    H237973   5.457   6.568  12.265  1.1966 -0.0511 -0.3022
 5520TIP3   OH237974   6.538   0.552  14.229  0.7800  0.0103  0.1344
 5520TIP3    H137975   6.561   0.476  14.176 -0.7037 -0.9193  0.7602
 5520TIP3    H237976   6.448   0.536  14.255  0.1762  2.3622 -0.3180
 5521TIP3   OH237977   1.320   4.999  14.671  0.2532  0.0476 -0.3490
 5521TIP3    H137978   1.374   5.078  14.668 -0.6864  0.7214 -0.1950
 5521TIP3    H237979   1.231   5.032  14.685 -0.1977 -1.0252 -0.5879
 5522TIP3   OH237980   1.515   3.508   4.514  0.6154  0.4482  0.8001
 5522TIP3    H137981   1.555   3.508   4.601  1.8385 -0.2392  0.2738
 5522TIP3    H237982   1.545   3.426   4.474 -0.4720  0.4328 -0.0289
 5523TIP3   OH237983   3.973   3.450  13.181 -0.2943 -1.3180  0.2610
 5523TIP3    H137984   4.042   3.516  13.190 -0.4729 -1.3395  2.1296
 5523TIP3    H237985   3.996   3.402  13.101  0.3820  0.3431 -0.5988
 5524TIP3   OH237986   4.204   6.471   0.568 -0.6529 -0.1268  0.2918
 5524TIP3    H137987   4.210   6.566   0.569 -0.3207 -0.1495  0.5617
 5524TIP3    H237988   4.111   6.452   0.581 -0.9847  0.1873 -1.4044
 5525TIP3   OH237989   0.612   1.652  15.043  0.0433 -0.7904  0.2378
 5525TIP3    H137990   0.692   1.700  15.065  0.7787 -1.2590 -1.3003
 5525TIP3    H237991   0.642   1.564  15.020 -1.1205 -1.5343  1.3962
 5526TIP3   OH237992   2.088   3.637  13.505 -0.4350  0.5364  0.1009
 5526TIP3    H137993   2.069   3.666  13.594  0.7889  1.0931  0.2110
 5526TIP3    H237994   2.166   3.582  13.514 -1.1146 -0.5500 -0.4661
 5527TIP3   OH237995   0.846   6.781  16.856  0.1234  0.1613 -0.4133
 5527TIP3    H137996   0.844   6.719  16.929  2.1291 -1.3939 -1.5758
 5527TIP3    H237997   0.855   6.867  16.897  1.2003 -0.6729  1.2022
 5528TIP3   OH237998   2.516   0.359  11.465 -0.2878  0.1258  0.3688
 5528TIP3    H137999   2.522   0.269  11.497 -0.7644 -0.6792 -1.6757
 5528TIP3    H238000   2.587   0.405  11.510  1.9697 -2.0015 -0.8108
 5529TIP3   OH238001   1.406   5.869  10.406 -0.2423  0.5001  0.2460
 5529TIP3    H138002   1.392   5.775  10.415  0.5379 -0.0217 -2.9629
 5529TIP3    H238003   1.321   5.904  10.379  0.3288  0.0532 -2.3008
 5530TIP3   OH238004   4.689   1.776   2.627 -0.0790 -0.1001  0.0556
 5530TIP3    H138005   4.612   1.720   2.614 -0.1468 -0.3839  1.4934
 5530TIP3    H238006   4.755   1.740   2.568 -1.0435  0.1615 -1.2154
 5531TIP3   OH238007   5.831   4.846   1.908  0.4674 -0.2237  0.2380
 5531TIP3    H138008   5.754   4.899   1.890  0.5951 -0.3053 -0.5905
 5531TIP3    H238009   5.818   4.766   1.856  2.6526  1.1302 -2.7271
 5532TIP3   OH238010   5.487   3.611   4.420 -0.2205 -0.0445 -0.2018
 5532TIP3    H138011   5.507   3.701   4.396  0.7583  0.3036  1.7204
 5532TIP3    H238012   5.529   3.598   4.505 -0.6654 -2.1983 -0.2318
 5533TIP3   OH238013   6.454   1.333  14.897  0.6277  0.1367  0.3183
 5533TIP3    H138014   6.407   1.289  14.827 -2.7089 -0.0045  2.3907
 5533TIP3    H238015   6.469   1.422  14.864 -1.7063  0.3611 -0.3161
 5534TIP3   OH238016   1.477   1.022   4.852 -0.7172 -0.9001 -0.0236
 5534TIP3    H138017   1.517   1.100   4.889 -3.1459  0.4686 -0.0808
 5534TIP3    H238018   1.550   0.974   4.813  0.7947  1.6166 -0.5252
 5535TIP3   OH238019   4.926   2.461  15.410 -0.2217 -0.2200 -0.5450
 5535TIP3    H138020   4.946   2.375  15.371  1.5294 -0.6920  1.2084
 5535TIP3    H238021   4.960   2.524  15.347 -0.5600 -0.8178 -1.3573
 5536TIP3   OH238022   2.416   4.862   3.373  0.3858 -0.0367  0.4315
 5536TIP3    H138023   2.328   4.866   3.411  0.2855  1.9884  0.0912
 5536TIP3    H238024   2.402   4.834   3.283  0.0461  0.5648  0.2919
 5537TIP3   OH238025   5.944   4.979  15.916  0.0258  0.3662 -0.1526
 5537TIP3    H138026   5.925   4.946  15.828 -0.4322  0.2146 -0.0027
 5537TIP3    H238027   5.873   4.944  15.970  1.0863 -0.7835  0.5715
 5538TIP3   OH238028   2.846   0.970   1.760  0.3260  0.2709 -0.5901
 5538TIP3    H138029   2.825   1.058   1.790 -1.3538 -0.3660  0.2141
 5538TIP3    H238030   2.914   0.983   1.694  0.4577  2.1180 -0.1446
 5539TIP3   OH238031   4.147   5.595   3.683  0.1032 -0.4034  0.0644
 5539TIP3    H138032   4.192   5.556   3.758  0.4825  0.8062  0.4908
 5539TIP3    H238033   4.092   5.663   3.720  1.0906  0.9300 -0.8116
 5540TIP3   OH238034   3.984   0.352  15.022 -0.2371 -0.3531  0.3469
 5540TIP3    H138035   3.929   0.426  15.049  0.4474  0.6518 -0.9106
 5540TIP3    H238036   3.930   0.304  14.959  1.0361  2.0196 -2.8310
 5541TIP3   OH238037   2.743   1.159  10.842 -0.5276 -0.3118  0.0147
 5541TIP3    H138038   2.658   1.183  10.804 -1.0474 -1.1200  0.6112
 5541TIP3    H238039   2.728   1.071  10.877  0.4987 -0.3613  0.3388
 5542TIP3   OH238040   0.161   3.144  14.391 -0.2169  0.7225 -0.2066
 5542TIP3    H138041   0.106   3.212  14.352 -0.5793  1.0054  0.7778
 5542TIP3    H238042   0.129   3.135  14.480  0.3344 -0.2035 -0.0897
 5543TIP3   OH238043   6.324   6.717   6.091  0.3962  0.6199 -0.6085
 5543TIP3    H138044   6.379   6.667   6.031 -1.0072  1.0699 -2.3653
 5543TIP3    H238045   6.350   6.808   6.077  1.4614  0.5914  1.0023
 5544TIP3   OH238046   1.047   5.191  13.911  0.9011 -0.1886 -0.2493
 5544TIP3    H138047   0.957   5.177  13.882  1.3907 -0.3358 -1.7680
 5544TIP3    H238048   1.038   5.233  13.997 -0.5875 -2.3841  0.7499
 5545TIP3   OH238049   0.133   4.276  13.883 -0.3503  0.3693 -0.3741
 5545TIP3    H138050   0.056   4.247  13.834  0.5428 -0.4354 -1.3568
 5545TIP3    H238051   0.098   4.308  13.966 -1.5894 -1.9544  0.1024
 5546TIP3   OH238052   2.054   4.284   5.510 -0.0064  0.7608 -0.9170
 5546TIP3    H138053   2.148   4.292   5.527 -0.0934  0.8671 -0.4874
 5546TIP3    H238054   2.012   4.325   5.585 -0.4108 -0.0724 -0.6762
 5547TIP3   OH238055   1.338   2.364   6.389  0.2989  0.5070  0.3347
 5547TIP3    H138056   1.429   2.383   6.412  1.2339 -0.7296 -1.9963
 5547TIP3    H238057   1.308   2.306   6.459  1.4480  0.5880  0.9222
 5548TIP3   OH238058   3.425   5.391   5.065 -0.0361  0.0955  0.4977
 5548TIP3    H138059   3.514   5.357   5.054 -0.0392  0.8898 -3.1057
 5548TIP3    H238060   3.368   5.316   5.044 -0.0912  0.7180 -1.8071
 5549TIP3   OH238061   1.023   0.625   5.442  0.3450 -0.1457 -0.4908
 5549TIP3    H138062   0.987   0.643   5.529 -0.2331  0.5918 -0.8727
 5549TIP3    H238063   1.102   0.573   5.459  0.5593  0.4821  0.5051
 5550TIP3   OH238064   0.217   5.254  16.947  0.6285  0.2929  0.6506
 5550TIP3    H138065   0.145   5.313  16.970  0.7138 -0.5793  3.5572
 5550TIP3    H238066   0.295   5.310  16.946  0.3342  0.7018  0.6050
 5551TIP3   OH238067   5.916   5.799   1.080 -0.4685  0.0831 -0.1191
 5551TIP3    H138068   5.911   5.720   1.134 -0.3720 -0.8957 -1.4815
 5551TIP3    H238069   6.002   5.793   1.037 -0.3617  1.0605 -0.0737
 5552TIP3   OH238070   1.485   2.740  11.094  0.3345  0.4156 -0.4124
 5552TIP3    H138071   1.487   2.835  11.088  0.3667  0.2952 -3.8171
 5552TIP3    H238072   1.393   2.717  11.086  0.0080  0.1152  2.7117
 5553TIP3   OH238073   5.366   5.550  12.034 -0.2290 -0.0899 -0.2430
 5553TIP3    H138074   5.353   5.466  11.990 -0.9185  0.2627 -0.7253
 5553TIP3    H238075   5.352   5.530  12.127  1.9770 -0.9940 -0.0421
 5554TIP3   OH238076   6.204   1.090   5.431 -0.0350  0.3070  0.1034
 5554TIP3    H138077   6.298   1.105   5.441 -0.1794  0.3095  1.7618
 5554TIP3    H238078   6.184   1.021   5.494 -0.9641 -0.4613 -1.0078
 5555TIP3   OH238079   1.473   3.962   6.304 -0.5926 -0.7218  0.5555
 5555TIP3    H138080   1.480   3.869   6.325 -0.8950 -0.5541  1.4342
 5555TIP3    H238081   1.416   3.965   6.226  0.3532 -1.3346 -0.1759
 5556TIP3   OH238082   5.653   4.101   5.440 -0.7243 -0.2091 -0.0086
 5556TIP3    H138083   5.747   4.103   5.459 -0.6404  1.1771 -0.4040
 5556TIP3    H238084   5.619   4.031   5.496  0.3376  0.1712  1.1834
 5557TIP3   OH238085   2.888   4.751  12.715 -0.0083 -0.1063 -0.7382
 5557TIP3    H138086   2.950   4.821  12.695 -0.8613  1.2568  1.1278
 5557TIP3    H238087   2.938   4.689  12.768 -0.3678  1.3770  1.4280
 5558TIP3   OH238088   1.176   2.747  10.794  0.3823 -0.0424 -0.3740
 5558TIP3    H138089   1.091   2.790  10.791  0.1387 -0.5487 -1.0617
 5558TIP3    H238090   1.184   2.716  10.884 -0.2596 -0.1835 -0.3585
 5559TIP3   OH238091   6.372   3.742   1.441  0.3447 -0.6236 -0.6681
 5559TIP3    H138092   6.294   3.764   1.492  0.9852  1.3828 -0.4388
 5559TIP3    H238093   6.402   3.659   1.477 -0.7868 -0.6193  0.3326
 5560TIP3   OH238094   3.332   4.664   2.455 -0.2505 -0.0611  0.5140
 5560TIP3    H138095   3.326   4.737   2.393  1.1490 -0.6272 -0.3355
 5560TIP3    H238096   3.416   4.678   2.499 -1.2145  0.3148  2.3032
 5561TIP3   OH238097   4.973   1.672   4.150 -0.1085  0.1421  0.6513
 5561TIP3    H138098   4.959   1.590   4.199 -0.5781  0.1691  0.5727
 5561TIP3    H238099   4.995   1.736   4.217  0.0601 -0.0027  0.7369
 5562TIP3   OH238100   6.696   0.480  10.166 -0.3240  0.3276  0.2714
 5562TIP3    H138101   6.750   0.536  10.110 -1.1803  0.5192 -0.3986
 5562TIP3    H238102   6.748   0.401  10.180 -0.5410 -0.2584 -1.8325
 5563TIP3   OH238103   3.653   1.269  12.181  0.2753 -0.0921 -0.7879
 5563TIP3    H138104   3.687   1.202  12.121  0.7101  0.7323 -1.4884
 5563TIP3    H238105   3.731   1.300  12.228  0.0630 -0.1409 -0.4021
 5564TIP3   OH238106   6.614   5.422   4.782  0.1532  0.1856  0.2289
 5564TIP3    H138107   6.604   5.511   4.816  0.1738  0.2586  0.0444
 5564TIP3    H238108   6.706   5.400   4.802  0.5680  0.7429 -0.9951
 5565TIP3   OH238109   2.653   0.624  11.305 -0.3639  0.7059 -0.0187
 5565TIP3    H138110   2.580   0.645  11.246 -1.2378  0.1167  0.8157
 5565TIP3    H238111   2.686   0.540  11.273 -0.3974  0.7169 -0.0814
 5566TIP3   OH238112   6.120   6.124  14.717 -0.4100  0.1155  0.6439
 5566TIP3    H138113   6.176   6.079  14.780  0.2932 -0.0530 -0.0712
 5566TIP3    H238114   6.174   6.130  14.638 -1.6979 -0.7723 -0.3354
 5567TIP3   OH238115   3.463   1.652  14.209  0.2305  0.7915  0.2363
 5567TIP3    H138116   3.387   1.603  14.180  0.6054  1.0230 -1.1883
 5567TIP3    H238117   3.482   1.713  14.138  0.2155  2.5276  1.6526
 5568TIP3   OH238118   5.596   6.748  12.233 -0.4769 -0.2003  0.1702
 5568TIP3    H138119   5.576   6.841  12.223 -0.4048 -0.1965  0.0518
 5568TIP3    H238120   5.627   6.722  12.146 -2.9097 -0.9320 -0.5745
 5569TIP3   OH238121   2.421   6.789   3.247  0.0127  0.9922  0.0509
 5569TIP3    H138122   2.337   6.748   3.269  0.9690 -1.1918 -0.1154
 5569TIP3    H238123   2.417   6.801   3.152  0.4446 -0.5836 -0.2015
 5570TIP3   OH238124   3.729   2.618   0.098  0.4102  0.1277 -0.2782
 5570TIP3    H138125   3.734   2.650   0.008  0.2065  1.6189  0.2008
 5570TIP3    H238126   3.675   2.683   0.143 -2.5177 -2.4285  0.1656
 5571TIP3   OH238127   3.680   0.640  11.432  0.5971 -0.0444 -0.4933
 5571TIP3    H138128   3.740   0.567  11.415  0.1832 -0.4717 -0.1393
 5571TIP3    H238129   3.726   0.717  11.399  0.7352 -0.5563 -1.5340
 5572TIP3   OH238130   1.537   0.763  15.985 -0.3511 -0.0814 -0.3007
 5572TIP3    H138131   1.539   0.712  15.904  2.2380  0.0560 -0.4085
 5572TIP3    H238132   1.465   0.825  15.972 -1.6086 -1.6761 -1.4139
 5573TIP3   OH238133   6.116   1.952   5.909 -0.0127  0.3535  0.1191
 5573TIP3    H138134   6.144   1.860   5.913 -3.0523 -0.6492  3.6187
 5573TIP3    H238135   6.184   2.000   5.957  0.6140 -0.4060  0.0031
 5574TIP3   OH238136   2.227   5.224  14.351  0.5760  0.4340 -0.5487
 5574TIP3    H138137   2.246   5.221  14.257  3.7454  0.7146 -0.0244
 5574TIP3    H238138   2.208   5.133  14.374  0.9201  0.1629 -1.2874
 5575TIP3   OH238139   4.309   0.278  12.012 -0.0069 -0.1870 -0.1190
 5575TIP3    H138140   4.272   0.204  12.061  0.7557  1.2856  2.9161
 5575TIP3    H238141   4.240   0.344  12.011  0.0899 -0.0878 -0.8147
 5576TIP3   OH238142   2.346   2.193   3.311 -0.1841  0.6863  0.0731
 5576TIP3    H138143   2.368   2.104   3.339 -2.9607 -0.6533 -1.5746
 5576TIP3    H238144   2.273   2.219   3.367  0.2172  1.7314  0.1375
 5577TIP3   OH238145   1.728   4.345  13.700  0.0341  0.2252 -0.7294
 5577TIP3    H138146   1.671   4.378  13.630 -1.5833  0.0021  0.4315
 5577TIP3    H238147   1.678   4.360  13.780  1.7801  0.3367  0.3834
 5578TIP3   OH238148   6.787   6.222   5.065 -0.1661 -0.0447  0.2087
 5578TIP3    H138149   6.766   6.316   5.070  1.3141  0.3891 -0.9178
 5578TIP3    H238150   6.702   6.179   5.054 -0.7825  1.2745 -0.4601
 5579TIP3   OH238151   6.507   0.748   1.220  0.4696  0.0105 -0.0636
 5579TIP3    H138152   6.451   0.822   1.244 -1.4258  0.0321 -3.7039
 5579TIP3    H238153   6.451   0.671   1.232 -0.0399 -0.0896 -2.5153
 5580TIP3   OH238154   5.215   1.927  15.315  0.1474  0.0880 -0.2550
 5580TIP3    H138155   5.188   2.003  15.264 -0.7468  1.0118  1.5199
 5580TIP3    H238156   5.311   1.933  15.319  0.1543  0.5501 -0.9669
 5581TIP3   OH238157   2.577   6.251  11.592  0.1856  0.0760 -0.3925
 5581TIP3    H138158   2.596   6.182  11.656 -1.5047  0.1157  0.1967
 5581TIP3    H238159   2.553   6.203  11.512 -2.3004 -0.1086  0.3980
 5582TIP3   OH238160   5.698   2.749   4.368  0.1946  0.3206  0.0677
 5582TIP3    H138161   5.731   2.809   4.435  0.5752  0.4687 -0.2483
 5582TIP3    H238162   5.773   2.692   4.349  0.8873  1.7588 -1.9226
 5583TIP3   OH238163   3.011   5.315  12.918  0.2168 -0.1806 -0.2457
 5583TIP3    H138164   2.976   5.226  12.920  0.1240 -0.1311  0.8947
 5583TIP3    H238165   2.933   5.371  12.925  0.2801 -0.0017 -0.8961
 5584TIP3   OH238166   2.058   0.726  11.685 -0.2256 -0.1755  0.2468
 5584TIP3    H138167   2.045   0.635  11.712  0.9461 -0.8268 -1.2504
 5584TIP3    H238168   1.970   0.762  11.677 -0.8250 -1.8557 -1.2870
 5585TIP3   OH238169   1.061   2.104  16.465  0.5094 -0.3740 -0.2343
 5585TIP3    H138170   1.111   2.042  16.412  0.5673 -1.3260  0.9168
 5585TIP3    H238171   1.098   2.097  16.553  0.2977  1.0619  0.0016
 5586TIP3   OH238172   3.482   6.421  11.626 -0.3146 -0.2650 -0.1790
 5586TIP3    H138173   3.489   6.436  11.532 -2.1697  2.0693 -0.0220
 5586TIP3    H238174   3.389   6.404  11.642 -0.0912 -0.3086  1.2582
 5587TIP3   OH238175   4.617   4.350   0.249 -0.1768  0.2228 -0.2201
 5587TIP3    H138176   4.677   4.308   0.186  0.3320  0.2878  0.2105
 5587TIP3    H238177   4.632   4.444   0.237  0.1573  0.2270  0.2199
 5588TIP3   OH238178   0.197   4.605  16.399 -0.3220  0.5315 -0.1814
 5588TIP3    H138179   0.190   4.663  16.323  1.6867  0.4568 -0.4670
 5588TIP3    H238180   0.159   4.522  16.370  1.0395  0.2969 -1.3499
 5589TIP3   OH238181   0.989   4.669   0.508  0.5930 -0.2041 -0.4171
 5589TIP3    H138182   0.934   4.605   0.462  0.8446 -0.5789 -0.2090
 5589TIP3    H238183   1.056   4.615   0.551  0.4555  0.1506  0.2561
 5590TIP3   OH238184   0.478   0.057  11.542  0.4994  0.0691  0.2552
 5590TIP3    H138185   0.391   0.050  11.502  0.9261  1.2919 -0.9909
 5590TIP3    H238186   0.472   0.006  11.622 -0.5140 -2.2145 -1.1904
 5591TIP3   OH238187   4.314   0.817   5.598 -0.2632 -0.5179 -0.2770
 5591TIP3    H138188   4.380   0.807   5.529 -0.6027 -1.3984 -0.4809
 5591TIP3    H238189   4.230   0.813   5.552 -0.4840 -0.5967  0.1280
 5592TIP3   OH238190   3.915   6.800   2.627  0.3099 -0.4024 -0.9827
 5592TIP3    H138191   3.994   6.765   2.585 -0.1264 -0.9321 -1.3812
 5592TIP3    H238192   3.852   6.808   2.556 -0.4622 -1.3823 -0.4234
 5593TIP3   OH238193   1.075   6.560  14.344 -0.0820  0.8320  0.7809
 5593TIP3    H138194   1.124   6.513  14.412 -1.4877 -0.9857  0.6062
 5593TIP3    H238195   0.992   6.584  14.386 -0.2102  1.3452  0.2441
 5594TIP3   OH238196   1.827   6.231  14.259  0.4671 -0.0393 -0.1713
 5594TIP3    H138197   1.782   6.314  14.240 -1.7102 -1.2300 -0.5605
 5594TIP3    H238198   1.887   6.219  14.185  2.1688  2.0041  0.7770
 5595TIP3   OH238199   1.289   2.139  15.005 -0.1477  0.0380 -0.2614
 5595TIP3    H138200   1.212   2.153  14.949  0.7401 -0.5596 -1.6940
 5595TIP3    H238201   1.261   2.072  15.067 -0.9571  0.2214 -0.4192
 5596TIP3   OH238202   1.833   0.979  14.004 -0.4742 -0.2408 -0.0043
 5596TIP3    H138203   1.747   0.977  13.961 -0.1246  0.3734 -0.7422
 5596TIP3    H238204   1.813   0.992  14.096 -1.1308  2.2546 -0.4226
 5597TIP3   OH238205   0.062   2.305   6.538  0.3284 -0.7038 -0.3276
 5597TIP3    H138206   0.042   2.247   6.611 -0.0047 -0.5385 -0.2871
 5597TIP3    H238207   0.023   2.389   6.562 -1.6359 -1.1761 -1.6079
 5598TIP3   OH238208   1.134   0.535  12.426 -0.2963 -0.5368 -0.3801
 5598TIP3    H138209   1.162   0.488  12.505 -1.9886  1.3428  1.4640
 5598TIP3    H238210   1.206   0.594  12.406 -0.1432 -0.5202  0.2017
 5599TIP3   OH238211   2.396   1.721  16.434 -0.1833 -0.1986 -0.1201
 5599TIP3    H138212   2.351   1.805  16.441 -1.2782 -0.7939  0.3449
 5599TIP3    H238213   2.439   1.723  16.349 -1.0363  0.4397 -0.5498
 5600TIP3   OH238214   0.915   1.982   2.017  0.0101 -0.1328 -0.1961
 5600TIP3    H138215   0.872   1.997   2.101  0.9607 -0.7761  0.4142
 5600TIP3    H238216   0.948   2.068   1.991  0.0940 -0.0143  0.2950
 5601TIP3   OH238217   6.406   2.805  15.089  0.1723  0.9023 -0.1841
 5601TIP3    H138218   6.322   2.835  15.124  1.0230  1.2504  1.6431
 5601TIP3    H238219   6.428   2.868  15.021  0.0472  2.1389  0.9011
 5602TIP3   OH238220   2.557   0.773   0.738  0.3656  0.5512 -0.9729
 5602TIP3    H138221   2.541   0.775   0.644  0.0434 -0.7885 -0.9643
 5602TIP3    H238222   2.512   0.851   0.772  0.9278  1.3378 -1.9659
 5603TIP3   OH238223   3.306   0.528  14.476 -0.0805  0.1757  0.0041
 5603TIP3    H138224   3.385   0.569  14.440 -0.9635  1.5668 -0.4188
 5603TIP3    H238225   3.314   0.539  14.570  0.1413  0.4888 -0.0505
 5604TIP3   OH238226   6.686   2.936   3.324 -0.6520 -0.4516 -0.5292
 5604TIP3    H138227   6.771   2.943   3.281  0.2468 -1.5664  0.9710
 5604TIP3    H238228   6.637   3.012   3.293  1.0289  0.4406 -1.1047
 5605TIP3   OH238229   3.800   4.197   5.015 -0.2474  0.4242  0.0745
 5605TIP3    H138230   3.720   4.212   5.066 -1.0001  0.2610 -1.0339
 5605TIP3    H238231   3.770   4.189   4.925  1.3019  3.2815 -0.8169
 5606TIP3   OH238232   2.398   1.961   0.717  0.2047  0.1173 -0.3896
 5606TIP3    H138233   2.374   2.015   0.793  0.8675 -1.2590  0.8539
 5606TIP3    H238234   2.445   1.887   0.755 -0.3508 -1.1506 -2.0744
 5607TIP3   OH238235   1.267   0.936  15.973  0.6338 -0.2452  0.0274
 5607TIP3    H138236   1.257   1.013  16.029  1.2082  0.2045 -0.4712
 5607TIP3    H238237   1.320   0.967  15.899 -0.0718 -0.8406 -0.7418
 5608TIP3   OH238238   1.643   0.427  15.771  0.3183 -0.2119  0.4454
 5608TIP3    H138239   1.564   0.378  15.794  0.0725 -0.1153 -0.1762
 5608TIP3    H238240   1.671   0.468  15.853 -2.0941  2.4092  0.0921
 5609TIP3   OH238241   2.235   2.736   3.197 -0.3031 -0.1693 -0.5272
 5609TIP3    H138242   2.311   2.724   3.140 -0.5717  0.3223 -1.0035
 5609TIP3    H238243   2.194   2.817   3.165 -0.9741 -0.3848 -0.2207
 5610TIP3   OH238244   2.354   5.423   5.498 -0.0409  0.9163  0.4279
 5610TIP3    H138245   2.430   5.370   5.475  0.0546  0.6062  1.4294
 5610TIP3    H238246   2.311   5.441   5.414 -1.3291 -2.6133  0.1643
 5611TIP3   OH238247   2.993   4.969   3.789 -0.2229 -0.7092  0.2377
 5611TIP3    H138248   3.064   4.973   3.853 -0.4278 -2.2641  0.6166
 5611TIP3    H238249   2.937   5.044   3.809  0.0714 -0.8031  1.4521
 5612TIP3   OH238250   5.932   5.778   4.974 -0.7095  0.3385  0.0407
 5612TIP3    H138251   5.995   5.843   5.003  0.1951  0.1759 -1.4641
 5612TIP3    H238252   5.859   5.830   4.938 -0.2360  0.5479 -0.6466
 5613TIP3   OH238253   5.070   6.230  14.248  0.6083  0.4771 -0.7685
 5613TIP3    H138254   5.007   6.162  14.225  0.1238  0.9757 -0.9310
 5613TIP3    H238255   5.023   6.312  14.236  0.2865  0.8029  2.0187
 5614TIP3   OH238256   1.487   5.541   0.127 -0.3560 -0.2851  0.6125
 5614TIP3    H138257   1.446   5.501   0.050 -1.9403 -1.6233  2.0611
 5614TIP3    H238258   1.543   5.472   0.163 -1.3629 -0.4679  1.8845
 5615TIP3   OH238259   5.114   2.328  16.569  0.3722 -0.2970  0.3852
 5615TIP3    H138260   5.023   2.314  16.543  0.1808 -1.8470  1.7144
 5615TIP3    H238261   5.162   2.260  16.522  0.8759  0.5075 -0.3032
 5616TIP3   OH238262   0.337   6.010  13.808  0.2855 -0.5663  0.8083
 5616TIP3    H138263   0.268   5.947  13.829  0.2601 -0.3958  1.2619
 5616TIP3    H238264   0.316   6.040  13.720 -0.3993 -0.2965  1.0517
 5617TIP3   OH238265   1.732   4.818   1.242 -0.1079 -0.4267 -0.0370
 5617TIP3    H138266   1.766   4.873   1.312 -0.2551 -1.7788  1.1407
 5617TIP3    H238267   1.736   4.873   1.164  3.0947  0.1123  0.3597
 5618TIP3   OH238268   4.351   2.039  11.766 -0.1385  0.4731 -0.3351
 5618TIP3    H138269   4.378   1.947  11.759 -0.5740  0.3975 -1.1565
 5618TIP3    H238270   4.432   2.086  11.786  0.2201 -0.0095 -0.6201
 5619TIP3   OH238271   4.390   4.569   2.493  0.3899 -0.4794  0.1424
 5619TIP3    H138272   4.477   4.542   2.522  0.2384 -0.8619  0.2561
 5619TIP3    H238273   4.403   4.598   2.403  0.6039 -0.7309  0.0885
 5620TIP3   OH238274   3.131   0.056  16.597 -0.0583 -0.5816  0.0530
 5620TIP3    H138275   3.054   0.030  16.546 -0.1311  1.2715 -0.8686
 5620TIP3    H238276   3.104   0.046  16.688 -1.2182 -0.4153 -0.2575
 5621TIP3   OH238277   1.122   5.667  11.533  0.1730 -0.1917 -0.5586
 5621TIP3    H138278   1.147   5.759  11.544  0.4407 -0.4805  1.7500
 5621TIP3    H238279   1.204   5.621  11.518  0.1923 -0.2174 -0.3749
 5622TIP3   OH238280   4.837   6.104   3.648 -0.7287 -0.3332  0.5463
 5622TIP3    H138281   4.919   6.151   3.660 -1.1047  0.0513  1.7576
 5622TIP3    H238282   4.831   6.089   3.554  0.5376 -0.0338  0.4053
 5623TIP3   OH238283   4.206   1.814  15.221  0.2359 -0.6904  0.2956
 5623TIP3    H138284   4.224   1.902  15.186  0.2581 -1.4035 -1.6307
 5623TIP3    H238285   4.204   1.826  15.316 -0.9604  1.6321  0.0738
 5624TIP3   OH238286   5.213   1.598  16.680  0.1471 -0.0601 -0.0939
 5624TIP3    H138287   5.138   1.620  16.624 -1.4556 -1.9182  1.1657
 5624TIP3    H238288   5.290   1.620  16.628 -1.2737  0.5182 -2.0532
 5625TIP3   OH238289   2.508   1.559  15.107 -0.1823  0.2420  0.7431
 5625TIP3    H138290   2.565   1.496  15.151  0.7323 -1.3303 -2.4431
 5625TIP3    H238291   2.489   1.625  15.174  1.1807 -1.8646  3.3823
 5626TIP3   OH238292   1.332   5.538   3.423  0.4704  0.5392 -0.2330
 5626TIP3    H138293   1.384   5.503   3.495  0.8828  0.4217 -0.5839
 5626TIP3    H238294   1.258   5.478   3.415  1.7546 -0.9617 -1.5794
 5627TIP3   OH238295   4.989   0.290   0.901 -0.1205 -0.0927  0.1263
 5627TIP3    H138296   4.962   0.205   0.867  0.5116  0.2701 -1.3954
 5627TIP3    H238297   5.051   0.270   0.971  0.0176 -0.8825 -0.2153
 5628TIP3   OH238298   1.977   3.139   4.482  0.3825  0.3730 -0.4442
 5628TIP3    H138299   1.950   3.088   4.405  0.6714 -1.3127  0.5106
 5628TIP3    H238300   1.924   3.219   4.478 -1.0649 -0.5836 -1.3122
 5629TIP3   OH238301   6.742   2.474   1.711  0.4141  0.0097 -0.0638
 5629TIP3    H138302   6.775   2.551   1.756  1.4851 -2.0782  3.0193
 5629TIP3    H238303   6.821   2.425   1.685 -0.2388 -0.8658 -0.4646
 5630TIP3   OH238304   1.829   2.911   5.565  0.6044  0.1380 -0.1452
 5630TIP3    H138305   1.910   2.962   5.557  1.0551 -0.8214 -2.4229
 5630TIP3    H238306   1.846   2.852   5.639  2.6816 -1.1527 -1.5355
 5631TIP3   OH238307   0.749   5.045  13.373  0.2509 -0.0917  0.2069
 5631TIP3    H138308   0.703   5.107  13.430  0.1549 -0.8480  0.9605
 5631TIP3    H238309   0.817   5.007  13.428  2.0377  1.2331 -0.9731
 5632TIP3   OH238310   4.034   3.968  14.420 -0.1056  0.3690  0.1975
 5632TIP3    H138311   3.973   4.023  14.370  0.0268 -0.9176 -1.4917
 5632TIP3    H238312   3.978   3.911  14.473 -0.4735 -0.9561 -1.5111
 5633TIP3   OH238313   3.620   5.207   2.030  0.5975 -0.0411  0.2333
 5633TIP3    H138314   3.647   5.249   1.949  2.8940  1.2685  1.5813
 5633TIP3    H238315   3.553   5.266   2.067 -0.4245 -0.6234 -0.6371
 5634TIP3   OH238316   2.033   6.495   3.280  0.5366  0.1679 -0.2526
 5634TIP3    H138317   2.063   6.406   3.300  0.7454  0.3002  0.0314
 5634TIP3    H238318   1.944   6.499   3.317  1.2487  0.7001  1.5049
 5635TIP3   OH238319   2.289   3.004  15.019 -0.4838 -0.1318 -0.1872
 5635TIP3    H138320   2.378   3.023  14.990 -0.0528 -0.4956  0.8561
 5635TIP3    H238321   2.297   2.990  15.113 -1.5208 -0.9611 -0.2089
 5636TIP3   OH238322   6.724   2.740  16.049  0.1681  0.1456  0.2076
 5636TIP3    H138323   6.710   2.732  16.143  1.2585  0.8427  0.4445
 5636TIP3    H238324   6.679   2.665  16.011 -1.1321  0.3970  1.1911
 5637TIP3   OH238325   1.349   1.476  14.456 -0.9341 -0.0545 -0.0850
 5637TIP3    H138326   1.350   1.491  14.361 -3.0875 -0.3056 -0.1965
 5637TIP3    H238327   1.409   1.541  14.491 -0.6239  0.5043 -1.5732
 5638TIP3   OH238328   5.855   1.916  14.464 -0.1919  0.0958  0.1106
 5638TIP3    H138329   5.950   1.921  14.476 -0.0190  0.2888 -1.1652
 5638TIP3    H238330   5.826   1.851  14.528  0.9446 -0.6930 -0.1452
 5639TIP3   OH238331   2.233   3.945  15.521 -0.7426 -0.4475  0.0267
 5639TIP3    H138332   2.276   4.011  15.575 -1.2111 -0.1211  0.0151
 5639TIP3    H238333   2.262   3.964  15.432 -1.6889  0.4268 -0.1197
 5640TIP3   OH238334   3.734   4.224  11.640 -0.4463  0.4308 -0.3426
 5640TIP3    H138335   3.713   4.131  11.632 -2.0273  0.6236  1.1059
 5640TIP3    H238336   3.683   4.266  11.571 -1.4116  0.4227  0.3482
 5641TIP3   OH238337   2.298   6.009  17.084 -0.1410  0.5984 -0.4688
 5641TIP3    H138338   2.266   6.043  17.167  0.7356 -1.6375  0.8504
 5641TIP3    H238339   2.391   6.032  17.082  0.1658 -0.5429 -0.1465
 5642TIP3   OH238340   0.414   1.511   0.151  0.1656 -0.4526  0.2725
 5642TIP3    H138341   0.406   1.459   0.071 -1.5778 -2.1795  1.4592
 5642TIP3    H238342   0.342   1.573   0.148 -1.2547 -1.9418  1.3788
 5643TIP3   OH238343   4.810   2.375   2.486  0.5291 -0.5973  0.1078
 5643TIP3    H138344   4.826   2.331   2.403 -1.0199 -0.1586 -0.4599
 5643TIP3    H238345   4.822   2.468   2.466 -1.9589 -0.2833 -0.2346
 5644TIP3   OH238346   5.577   3.863  11.652  0.1990 -0.3371  0.3806
 5644TIP3    H138347   5.572   3.833  11.742 -3.0894  1.1024  0.8296
 5644TIP3    H238348   5.521   3.803  11.603 -0.1712  0.4345 -0.1681
 5645TIP3   OH238349   4.442   5.669   4.072 -0.2012 -0.3308 -0.5458
 5645TIP3    H138350   4.411   5.608   4.140  1.6027 -0.5266  0.1628
 5645TIP3    H238351   4.412   5.755   4.101  1.8378 -0.1859  1.4208
 5646TIP3   OH238352   5.003   4.122  13.215 -0.3271  0.3420  0.0716
 5646TIP3    H138353   4.937   4.079  13.160 -0.0931  2.5800 -2.1545
 5646TIP3    H238354   5.082   4.070  13.202 -0.0776  1.2101 -2.4433
 5647TIP3   OH238355   2.335   0.253   1.555  0.2009  0.9453  0.4056
 5647TIP3    H138356   2.319   0.162   1.527  2.0416  0.3102  1.2524
 5647TIP3    H238357   2.429   0.256   1.571  0.1334  2.9815  0.5717
 5648TIP3   OH238358   2.497   1.966   3.417 -0.0129  0.1154 -0.1251
 5648TIP3    H138359   2.572   1.907   3.421  1.4593  1.9412  2.5599
 5648TIP3    H238360   2.532   2.046   3.379  0.1603  1.7866  3.2399
 5649TIP3   OH238361   0.670   3.677  14.546  0.1776  0.2083 -0.3501
 5649TIP3    H138362   0.696   3.604  14.602 -0.2260  2.9275  3.8177
 5649TIP3    H238363   0.582   3.701  14.578 -0.7079  1.1159 -3.1907
 5650TIP3   OH238364   6.146   1.835  11.872  0.2069 -0.5773  0.0121
 5650TIP3    H138365   6.140   1.744  11.902  0.6502 -0.8198 -0.6109
 5650TIP3    H238366   6.210   1.833  11.800 -0.2918  0.1099 -0.4708
 5651TIP3   OH238367   5.019   2.697   2.831 -0.4127  0.2278 -0.6285
 5651TIP3    H138368   5.043   2.689   2.738  1.1340 -1.4678 -0.1546
 5651TIP3    H238369   5.038   2.788   2.852  0.7022  0.2632 -1.6285
 5652TIP3   OH238370   1.734   2.185  13.364 -0.2726 -0.2478  0.0129
 5652TIP3    H138371   1.769   2.266  13.326 -0.2594 -0.5619 -0.6634
 5652TIP3    H238372   1.810   2.143  13.404 -0.3258  0.1897  0.5854
 5653TIP3   OH238373   3.612   4.949   2.999  0.0809  0.4747 -0.1337
 5653TIP3    H138374   3.589   5.001   3.076  0.0617  2.0916 -1.2046
 5653TIP3    H238375   3.679   5.000   2.955  0.1138 -0.4504 -1.1856
 5654TIP3   OH238376   0.639   0.736  15.983 -0.1420  0.5533 -0.1533
 5654TIP3    H138377   0.734   0.732  15.977 -0.2030 -1.0814 -0.3157
 5654TIP3    H238378   0.621   0.772  16.070  0.5990  3.0429 -0.9389
 5655TIP3   OH238379   6.304   1.518   6.209  0.5622  0.1078 -0.1080
 5655TIP3    H138380   6.222   1.470   6.216  0.6611 -0.1027 -0.3518
 5655TIP3    H238381   6.369   1.451   6.185  0.4140  0.5966 -2.0825
 5656TIP3   OH238382   5.485   4.642   3.215 -0.3940 -0.1994  0.1800
 5656TIP3    H138383   5.419   4.695   3.261 -0.3383 -0.1927  0.2524
 5656TIP3    H238384   5.457   4.552   3.229 -1.7146 -0.1573 -1.7348
 5657TIP3   OH238385   0.994   6.017  16.521 -0.4679  0.1436  0.1370
 5657TIP3    H138386   1.081   6.048  16.544  0.4957 -2.0760 -0.2902
 5657TIP3    H238387   0.990   5.928  16.556 -3.4407  0.8893  2.2106
 5658TIP3   OH238388   6.117   5.981  11.872  0.0765  0.0073  0.2833
 5658TIP3    H138389   6.202   5.980  11.916  0.4743 -0.4883 -0.4732
 5658TIP3    H238390   6.095   5.889  11.859  0.5163  0.1291 -1.5648
 5659TIP3   OH238391   6.332   5.963   4.025  0.0503 -0.4272 -0.0767
 5659TIP3    H138392   6.325   5.888   4.084 -0.0055  0.2615  0.8107
 5659TIP3    H238393   6.331   5.925   3.937 -0.2522 -1.4408  0.3561
 5660TIP3   OH238394   6.686   1.725  10.997  0.0899  0.0159 -0.5190
 5660TIP3    H138395   6.625   1.684  10.936 -1.1234  3.0330 -1.5295
 5660TIP3    H238396   6.759   1.755  10.943 -0.4733  1.7472 -0.3753
 5661TIP3   OH238397   4.357   4.287  14.019  0.0452  0.6121  0.5407
 5661TIP3    H138398   4.321   4.245  13.941 -0.3927 -0.7346  1.4195
 5661TIP3    H238399   4.376   4.377  13.992 -0.5088  0.3044 -0.9765
 5662TIP3   OH238400   6.264   5.962   2.496  0.2115  0.1105  0.3398
 5662TIP3    H138401   6.217   5.927   2.571  0.3935 -2.2405 -0.5326
 5662TIP3    H238402   6.198   5.970   2.427  0.2858  1.0048  0.3634
 5663TIP3   OH238403   4.110   1.048   2.810 -0.1354  0.8370  0.1455
 5663TIP3    H138404   4.058   1.125   2.787  1.0418  1.6161  0.0059
 5663TIP3    H238405   4.200   1.073   2.791  0.1866 -0.9544 -0.8810
 5664TIP3   OH238406   1.863   2.094  12.869 -0.4617 -0.3661  0.3741
 5664TIP3    H138407   1.952   2.130  12.867 -0.5460 -0.1561  0.4902
 5664TIP3    H238408   1.864   2.027  12.801 -0.1379 -0.5382  0.5395
 5665TIP3   OH238409   1.437   3.546   0.964 -0.2813 -0.0096  0.3365
 5665TIP3    H138410   1.394   3.629   0.986 -0.0490  0.1005  0.3853
 5665TIP3    H238411   1.393   3.516   0.885 -0.9369 -0.2698  0.7971
 5666TIP3   OH238412   6.244   4.091   0.766 -0.5466 -0.3773  0.5726
 5666TIP3    H138413   6.172   4.028   0.772  0.2098 -1.4092 -0.7718
 5666TIP3    H238414   6.322   4.043   0.793  0.4117 -0.7576 -2.4701
 5667TIP3   OH238415   1.727   3.641   1.045  0.5608  0.5252  0.1926
 5667TIP3    H138416   1.735   3.678   1.133 -0.3450  1.8957 -0.2715
 5667TIP3    H238417   1.634   3.642   1.026  0.7906  0.9070 -1.0443
 5668TIP3   OH238418   1.405   4.545   4.163 -0.3706  0.4178  0.0412
 5668TIP3    H138419   1.492   4.577   4.138 -0.7412  0.7610 -0.8357
 5668TIP3    H238420   1.422   4.457   4.198  0.2586  0.1822 -0.8141
 5669TIP3   OH238421   2.912   0.832   0.164 -0.3737  0.0329  0.3924
 5669TIP3    H138422   2.938   0.818   0.255 -0.1030 -2.3285  0.0002
 5669TIP3    H238423   2.944   0.920   0.143 -0.2323  0.5312  2.4842
 5670TIP3   OH238424   0.493   6.265  10.777  0.6237  0.1425 -0.4667
 5670TIP3    H138425   0.409   6.310  10.778 -0.5466 -1.7574 -2.7934
 5670TIP3    H238426   0.554   6.328  10.739 -0.5223  0.4719 -1.8245
 5671TIP3   OH238427   6.219   3.737  16.765  0.1579 -0.3423 -0.1733
 5671TIP3    H138428   6.221   3.771  16.854  0.1924  0.6828 -0.5541
 5671TIP3    H238429   6.131   3.755  16.734  0.3269 -0.1604 -0.5534
 5672TIP3   OH238430   2.197   5.247   2.174  0.8518  0.5099  0.1093
 5672TIP3    H138431   2.124   5.209   2.125  1.6084  0.1816 -0.7867
 5672TIP3    H238432   2.174   5.233   2.266  0.2868 -0.5680 -0.1773
 5673TIP3   OH238433   6.761   0.602  13.590  0.0288 -0.3703 -0.1945
 5673TIP3    H138434   6.806   0.522  13.617 -0.9169 -1.2878 -1.2504
 5673TIP3    H238435   6.694   0.615  13.658 -0.8630 -1.4108 -0.8245
 5674TIP3   OH238436   1.994   3.986  10.717  0.2305  0.1066  0.1856
 5674TIP3    H138437   1.962   3.896  10.715  1.7674 -0.4614  0.1220
 5674TIP3    H238438   1.925   4.035  10.761 -1.4475 -0.7356 -1.3922
 5675TIP3   OH238439   5.527   5.397  11.606 -0.6117  0.5266  0.1679
 5675TIP3    H138440   5.553   5.488  11.594  1.8270 -0.1113  0.0293
 5675TIP3    H238441   5.569   5.351  11.533 -2.8229 -0.5612 -0.4849
 5676TIP3   OH238442   2.268   2.684  12.042 -0.3693 -0.2636  0.1875
 5676TIP3    H138443   2.186   2.656  12.000 -0.7095 -0.7715  1.1565
 5676TIP3    H238444   2.243   2.760  12.094  0.0336  0.3103 -0.4415
 5677TIP3   OH238445   3.731   5.297   3.536  0.7355 -0.4668 -0.1028
 5677TIP3    H138446   3.823   5.318   3.552  1.0393 -2.3459  0.8501
 5677TIP3    H238447   3.728   5.271   3.444  1.1246 -0.2938 -0.1671
 5678TIP3   OH238448   1.174   4.055  12.283 -0.4132  0.2093 -0.1495
 5678TIP3    H138449   1.269   4.057  12.287 -0.2612 -2.5680 -0.7298
 5678TIP3    H238450   1.153   4.052  12.189 -1.2394  2.7503 -0.1405
 5679TIP3   OH238451   1.231   5.268   0.239 -0.5708 -0.0895 -0.0446
 5679TIP3    H138452   1.158   5.263   0.177 -1.0839  2.0949  0.2989
 5679TIP3    H238453   1.305   5.297   0.187 -0.4670 -0.3013 -0.0153
 5680TIP3   OH238454   5.268   1.564  15.726 -0.2361 -0.2011 -0.5108
 5680TIP3    H138455   5.184   1.518  15.727 -1.4672  1.8981  0.1426
 5680TIP3    H238456   5.334   1.495  15.729 -1.9490 -1.9044 -0.3625
 5681TIP3   OH238457   1.925   2.698  13.647  0.3701  0.1619  0.0109
 5681TIP3    H138458   1.945   2.790  13.661  1.1321  0.1517 -0.9134
 5681TIP3    H238459   1.981   2.672  13.573 -0.8204 -0.6807 -0.6258
 5682TIP3   OH238460   6.529   2.500   1.479 -0.6235  0.1753 -0.5489
 5682TIP3    H138461   6.568   2.443   1.546 -0.4756  0.5164 -0.3426
 5682TIP3    H238462   6.438   2.509   1.506 -0.3594  1.0091  0.0886
 5683TIP3   OH238463   6.109   6.308  15.952  0.4301  0.0186  0.0917
 5683TIP3    H138464   6.111   6.335  16.044 -0.1326 -0.3698  0.2224
 5683TIP3    H238465   6.201   6.304  15.926  0.6215 -0.5267  0.8294
 5684TIP3   OH238466   6.503   1.215  16.560  0.1674  0.2290 -0.2000
 5684TIP3    H138467   6.554   1.217  16.641  2.1769  0.6050 -1.3964
 5684TIP3    H238468   6.436   1.283  16.571  0.5039  0.3789  1.0655
 5685TIP3   OH238469   6.720   2.263  12.293 -0.1607 -0.6895 -0.3657
 5685TIP3    H138470   6.757   2.307  12.216 -0.3675  1.5909  0.7645
 5685TIP3    H238471   6.796   2.229  12.339  0.4133  1.6190  0.5379
 5686TIP3   OH238472   6.786   5.057   1.263 -0.1799  0.4073  0.1505
 5686TIP3    H138473   6.852   5.111   1.219 -1.5401  0.5757 -1.8327
 5686TIP3    H238474   6.791   4.973   1.218 -0.2930 -0.0696  1.0224
 5687TIP3   OH238475   5.755   4.275   2.877 -0.3273 -0.0205  0.3686
 5687TIP3    H138476   5.798   4.331   2.812 -0.0047 -0.7662 -0.0855
 5687TIP3    H238477   5.826   4.248   2.936 -0.5825  0.4899  0.9214
 5688TIP3   OH238478   0.389   2.843  13.808 -0.4472 -0.1910 -0.1780
 5688TIP3    H138479   0.307   2.801  13.782 -0.3000 -0.4707 -0.1983
 5688TIP3    H238480   0.362   2.921  13.856 -0.7280  0.3182 -1.1303
 5689TIP3   OH238481   3.583   4.756  15.494 -0.3499 -0.1667 -0.0845
 5689TIP3    H138482   3.549   4.774  15.582 -1.5875  1.2326 -0.8049
 5689TIP3    H238483   3.505   4.759  15.438  0.4115 -1.1027 -1.2398
 5690TIP3   OH238484   5.817   3.808   0.170  0.1948 -0.3389 -0.1169
 5690TIP3    H138485   5.887   3.869   0.145 -0.2366 -0.3843 -1.5094
 5690TIP3    H238486   5.776   3.783   0.087 -1.1056 -0.7648  0.6292
 5691TIP3   OH238487   5.024   5.280   0.234 -0.5514  0.3963 -0.0148
 5691TIP3    H138488   5.091   5.309   0.296 -0.7845 -0.3146  0.5829
 5691TIP3    H238489   4.994   5.197   0.269 -1.9378  0.8259 -0.1483
 5692TIP3   OH238490   5.447   5.291  16.719  0.0273  0.4046 -0.0648
 5692TIP3    H138491   5.524   5.320  16.669  0.2989 -0.0241  0.0977
 5692TIP3    H238492   5.471   5.305  16.810 -0.2766  0.7221 -0.0349
 5693TIP3   OH238493   1.607   5.627  16.084 -0.2407 -0.6549  0.5815
 5693TIP3    H138494   1.692   5.665  16.106 -0.2968  0.6148 -1.1915
 5693TIP3    H238495   1.554   5.641  16.162  0.7544 -0.1622  1.1894
 5694TIP3   OH238496   0.649   0.564  14.859  0.1676 -0.2153  0.2639
 5694TIP3    H138497   0.576   0.545  14.802 -1.3620  0.3436  1.9451
 5694TIP3    H238498   0.631   0.651  14.895  1.8813  0.1271  0.3810
 5695TIP3   OH238499   6.364   6.722   4.224 -0.2293 -0.5426 -0.6381
 5695TIP3    H138500   6.396   6.731   4.135 -0.6981 -0.2803 -0.7793
 5695TIP3    H238501   6.364   6.811   4.259  0.1700 -0.6711 -0.2990
 5696TIP3   OH238502   3.632   6.046  14.326 -1.1506  0.0624  0.0331
 5696TIP3    H138503   3.708   5.987  14.319 -0.4265  1.0712 -0.9603
 5696TIP3    H238504   3.559   5.995  14.292 -0.5110 -0.2466 -0.9283
 5697TIP3   OH238505   3.073   3.833  16.114 -0.2786  0.0604 -0.5227
 5697TIP3    H138506   3.134   3.885  16.167  0.2367  0.3450 -1.3579
 5697TIP3    H238507   3.079   3.872  16.026  1.0117 -2.0884 -1.4847
 5698TIP3   OH238508   4.568   6.718   3.805 -0.1314  0.6049  0.1015
 5698TIP3    H138509   4.593   6.696   3.895 -1.6500 -0.6952  0.2486
 5698TIP3    H238510   4.500   6.785   3.816  0.6103  1.4178 -0.1520
 5699TIP3   OH238511   2.799   0.119  11.445  0.0621  0.0936 -0.0572
 5699TIP3    H138512   2.773   0.102  11.354  1.0196 -0.1944 -0.2901
 5699TIP3    H238513   2.717   0.139  11.490 -0.7360 -1.9650 -0.4838
 5700TIP3   OH238514   3.466   5.202   6.186  0.3033 -0.0628 -0.1780
 5700TIP3    H138515   3.540   5.214   6.245 -0.7715 -1.5457  1.5853
 5700TIP3    H238516   3.482   5.118   6.144 -1.4456 -1.6838  2.0940
 5701TIP3   OH238517   5.154   4.632  15.051  0.7046  0.2201 -0.8812
 5701TIP3    H138518   5.148   4.727  15.048 -1.9790  0.2177  0.8461
 5701TIP3    H238519   5.099   4.602  14.978  0.5106 -0.0060 -0.6420
 5702TIP3   OH238520   4.075   4.001  12.549  0.4938 -0.3284 -0.0128
 5702TIP3    H138521   3.997   3.976  12.500  0.0588 -0.6635  0.8356
 5702TIP3    H238522   4.101   4.085  12.510  0.1470 -0.5693 -0.7895
 5703TIP3   OH238523   0.901   2.945  12.667 -0.2024 -0.2043  0.4646
 5703TIP3    H138524   0.919   3.034  12.638 -2.7829  0.2140 -0.0894
 5703TIP3    H238525   0.904   2.949  12.763 -0.8010  0.6280  0.4588
 5704TIP3   OH238526   4.199   4.940   6.005 -0.0904 -0.4492 -0.0408
 5704TIP3    H138527   4.123   4.941   5.946 -0.4204  0.1870  0.3754
 5704TIP3    H238528   4.192   4.858   6.053  0.0139 -0.8318 -0.6681
 5705TIP3   OH238529   2.876   2.482   5.307  0.1005 -0.2256  0.1105
 5705TIP3    H138530   2.855   2.522   5.391  0.6256 -1.4699  0.8755
 5705TIP3    H238531   2.792   2.451   5.273 -0.3085  1.4761 -0.5012
 5706TIP3   OH238532   2.975   5.826  12.931 -0.1504  0.1236 -0.5603
 5706TIP3    H138533   3.002   5.911  12.966 -2.9943  0.4402  1.1664
 5706TIP3    H238534   2.977   5.837  12.836  0.0691  1.9293 -0.3781
 5707TIP3   OH238535   2.094   5.265  11.115  0.2039  0.6592  0.3002
 5707TIP3    H138536   2.054   5.180  11.096 -0.7742  1.2768 -0.4746
 5707TIP3    H238537   2.127   5.296  11.031 -0.1895  1.4284  0.4239
 5708TIP3   OH238538   6.168   0.668   4.633  0.3252  0.5714 -0.3658
 5708TIP3    H138539   6.191   0.649   4.541  1.7476  3.4355 -0.6889
 5708TIP3    H238540   6.073   0.679   4.631 -0.0363 -1.8577 -0.9197
 5709TIP3   OH238541   0.278   1.453   6.049  0.6800  0.8521 -0.3739
 5709TIP3    H138542   0.325   1.484   5.972  0.2406  0.4048 -0.8319
 5709TIP3    H238543   0.304   1.513   6.119  2.8290 -0.0471 -0.3151
 5710TIP3   OH238544   1.120   5.967   5.516  0.3215  0.5291  0.0995
 5710TIP3    H138545   1.187   6.035   5.528  1.0137  0.1661 -1.5095
 5710TIP3    H238546   1.081   5.986   5.431  1.0450 -1.4775 -0.7387
 5711TIP3   OH238547   1.294   3.426   3.519  0.2653  0.4595  0.2019
 5711TIP3    H138548   1.350   3.503   3.514  0.7743  0.0537 -0.4821
 5711TIP3    H238549   1.273   3.405   3.428 -1.4479  0.9198  0.4619
 5712TIP3   OH238550   0.017   3.451  13.507  0.0609 -0.0673  0.2369
 5712TIP3    H138551   0.105   3.422  13.527 -0.5453 -1.5646  0.8786
 5712TIP3    H238552  -0.040   3.388  13.551 -1.3289  0.2980 -0.9546
 5713TIP3   OH238553   1.929   0.026  13.405 -0.5244 -0.2854  0.5262
 5713TIP3    H138554   1.953   0.112  13.371  0.3152 -0.4204  0.7580
 5713TIP3    H238555   1.896  -0.021  13.328 -0.5905  0.1053  0.3148
 5714TIP3   OH238556   0.164   1.156  16.746 -0.1999 -0.0968  0.0556
 5714TIP3    H138557   0.070   1.174  16.750 -0.5788 -2.0227  0.7881
 5714TIP3    H238558   0.176   1.076  16.798  2.1293  1.1206  1.5600
 5715TIP3   OH238559   2.852   6.256   0.426 -0.0675 -0.1512 -0.0544
 5715TIP3    H138560   2.890   6.226   0.509 -1.1289  0.6299  0.7532
 5715TIP3    H238561   2.816   6.343   0.447 -1.9218 -0.6826 -0.8457
 5716TIP3   OH238562   2.768   4.357  13.291  0.1599 -0.5944  0.1376
 5716TIP3    H138563   2.720   4.292  13.342 -0.9157 -0.5243 -0.7388
 5716TIP3    H238564   2.843   4.309  13.256  0.1030 -1.0150  0.5799
 5717TIP3   OH238565   1.514   2.323  12.398  0.0581 -0.7498 -0.1451
 5717TIP3    H138566   1.521   2.234  12.433  0.5229 -1.0620 -1.0014
 5717TIP3    H238567   1.601   2.341  12.361 -0.1730 -0.1188 -0.3942
 5718TIP3   OH238568   6.725   5.954  11.037 -0.2424 -0.2137 -0.2065
 5718TIP3    H138569   6.648   5.953  10.979 -0.9420  0.9617  0.6635
 5718TIP3    H238570   6.738   6.046  11.059  0.0377 -0.6144  1.4529
 5719TIP3   OH238571   6.308   4.805   3.562 -0.2361 -0.1599 -0.4113
 5719TIP3    H138572   6.319   4.878   3.624 -0.7974 -1.2174  0.9829
 5719TIP3    H238573   6.220   4.816   3.527 -1.6693 -1.9471  2.3104
 5720TIP3   OH238574   4.619   6.506   2.818  0.3849  0.3446 -0.0911
 5720TIP3    H138575   4.688   6.440   2.815 -0.0357 -0.0614 -1.1439
 5720TIP3    H238576   4.579   6.504   2.731 -1.0960  0.4267  0.5581
 5721TIP3   OH238577   5.207   0.945   0.366 -0.6049  0.1811  0.3849
 5721TIP3    H138578   5.292   0.955   0.409 -0.5877  2.3184 -0.0410
 5721TIP3    H238579   5.171   0.863   0.402  1.8084 -1.0362  0.2117
 5722TIP3   OH238580   1.219   6.615   0.443 -0.5195 -0.0496 -0.4331
 5722TIP3    H138581   1.218   6.598   0.537  1.3188 -1.2353 -0.5866
 5722TIP3    H238582   1.312   6.620   0.420 -0.9206  2.1114 -1.8980
 5723TIP3   OH238583   1.847   4.936  14.837 -0.0513 -0.0467  0.3774
 5723TIP3    H138584   1.841   4.948  14.931  1.8112  1.1550  0.3887
 5723TIP3    H238585   1.811   5.017  14.800 -1.2499 -0.7166 -0.0040
 5724TIP3   OH238586   3.629   1.281   1.878  0.0366  0.9269  0.0551
 5724TIP3    H138587   3.570   1.229   1.932 -2.2034 -0.0856 -3.0953
 5724TIP3    H238588   3.652   1.356   1.933 -1.8450 -0.1208  2.4457
 5725TIP3   OH238589   4.982   6.513   1.966 -0.4488 -0.0171  0.0805
 5725TIP3    H138590   5.004   6.443   2.027  0.3976  0.6421  0.5552
 5725TIP3    H238591   5.038   6.586   1.992  0.3899  0.0916 -1.8730
 5726TIP3   OH238592   5.847   1.451  14.618  0.3739  0.9272  0.6044
 5726TIP3    H138593   5.811   1.448  14.530 -1.0750  1.9322  1.1171
 5726TIP3    H238594   5.881   1.363  14.634  0.2959  0.6278 -0.7954
 5727TIP3   OH238595   1.175   4.930  13.916  0.6719 -0.1986 -0.3087
 5727TIP3    H138596   1.159   5.022  13.898  1.2108 -0.3246 -1.5433
 5727TIP3    H238597   1.224   4.930  13.998  0.6843  0.6060 -0.3056
 5728TIP3   OH238598   5.293   0.662  15.328 -0.5698  0.0421 -0.3848
 5728TIP3    H138599   5.255   0.702  15.250 -0.0191  0.0915 -0.6319
 5728TIP3    H238600   5.280   0.568  15.317 -0.9949  0.0830 -0.2641
 5729TIP3   OH238601   4.687   1.911   4.459 -0.2570  0.4039  0.4084
 5729TIP3    H138602   4.650   1.999   4.452  1.3977  1.1451  0.4810
 5729TIP3    H238603   4.704   1.885   4.368  1.3860  1.1435  0.4754
 5730TIP3   OH238604   5.834   2.294  13.052  0.6457 -0.1318  0.4277
 5730TIP3    H138605   5.779   2.234  13.001  1.1672  0.3345 -0.7277
 5730TIP3    H238606   5.803   2.285  13.142 -0.0116 -1.3165  0.1023
 5731TIP3   OH238607   3.918   1.785   5.344  0.5179 -0.1577 -0.3128
 5731TIP3    H138608   3.829   1.750   5.348  0.7358 -0.7763 -0.7181
 5731TIP3    H238609   3.974   1.707   5.351  1.0221  0.1586 -0.8115
 5732TIP3   OH238610   1.182   4.823  13.657  0.5274  0.0229  0.3111
 5732TIP3    H138611   1.129   4.888  13.611 -1.0203 -1.1588  0.3556
 5732TIP3    H238612   1.171   4.845  13.750  0.6966  0.2052  0.2883
 5733TIP3   OH238613   0.993   1.058  12.242 -0.0395 -0.0956  0.4361
 5733TIP3    H138614   0.908   1.033  12.206  0.6195 -1.2194 -0.4129
 5733TIP3    H238615   1.010   1.145  12.205 -0.5119 -0.1569  0.0661
 5734TIP3   OH238616   0.287   0.347   4.315  0.4533 -0.2187 -0.0810
 5734TIP3    H138617   0.340   0.425   4.328  2.7169 -1.3817 -1.5500
 5734TIP3    H238618   0.318   0.311   4.231 -1.9284 -1.6050 -0.4629
 5735TIP3   OH238619   4.677   5.288   1.880  0.1398 -0.1081 -0.0231
 5735TIP3    H138620   4.768   5.266   1.895  0.4386  1.5496  0.8113
 5735TIP3    H238621   4.627   5.225   1.932  0.7113 -1.8072 -1.4391
 5736TIP3   OH238622   1.916   2.834   5.134  0.2757  0.4285  0.0747
 5736TIP3    H138623   1.832   2.799   5.162  0.2009  0.2963 -0.3075
 5736TIP3    H238624   1.964   2.758   5.102  0.1571  0.6459 -0.6464
 5737TIP3   OH238625   2.310   6.077   2.197 -0.2224 -0.0314  0.0844
 5737TIP3    H138626   2.231   6.025   2.213 -0.8416  1.0262  0.5378
 5737TIP3    H238627   2.358   6.026   2.131 -1.6561 -0.3164 -0.7965
 5738TIP3   OH238628   0.915   3.579  16.739 -0.2016 -0.0941 -0.0140
 5738TIP3    H138629   0.921   3.499  16.790  2.3670 -0.6080 -0.9652
 5738TIP3    H238630   0.824   3.606  16.746 -0.6586 -1.9657  2.0118
 5739TIP3   OH238631   5.082   3.961  15.904  0.0358  0.2378 -0.2050
 5739TIP3    H138632   5.116   3.877  15.935  0.0718  0.3745  0.1341
 5739TIP3    H238633   5.109   3.967  15.813  0.1866 -0.0384 -0.1775
 5740TIP3   OH238634   0.521   4.514   0.609 -0.0618  0.1168 -0.3174
 5740TIP3    H138635   0.611   4.483   0.610 -0.2314 -0.3738 -0.0001
 5740TIP3    H238636   0.474   4.456   0.668 -0.2767  1.3384  0.7748
 5741TIP3   OH238637   1.457   2.706  12.420 -0.7184  0.3542  0.2259
 5741TIP3    H138638   1.524   2.698  12.352  0.1397 -0.7613  1.1674
 5741TIP3    H238639   1.454   2.799  12.440 -0.1586  0.5434 -0.5361
 5742TIP3   OH238640   5.537   0.141   0.202  0.0489 -0.3646 -0.0938
 5742TIP3    H138641   5.610   0.083   0.180 -0.1861 -0.3596 -0.9175
 5742TIP3    H238642   5.476   0.131   0.129  0.6929  2.0894 -1.0690
 5743TIP3   OH238643   2.642   0.763   2.905 -0.4570  0.0900 -0.0985
 5743TIP3    H138644   2.736   0.777   2.900 -0.3130 -0.7592  0.0614
 5743TIP3    H238645   2.627   0.732   2.995 -1.2139  2.4042  0.6644
 5744TIP3   OH238646   0.169   2.271  14.959  0.1576  0.6939  0.4322
 5744TIP3    H138647   0.132   2.354  14.989 -0.3466  0.1623  1.3038
 5744TIP3    H238648   0.103   2.206  14.981  1.3369 -0.1999  1.4608
 5745TIP3   OH238649   1.953   5.376   5.462 -0.2069 -0.0801  0.2752
 5745TIP3    H138650   1.875   5.379   5.406  0.2141  1.5264 -0.2940
 5745TIP3    H238651   1.955   5.287   5.496 -1.9249 -0.3445 -0.2173
 5746TIP3   OH238652   4.587   0.872   4.548  0.1134 -0.4800  0.3204
 5746TIP3    H138653   4.660   0.890   4.607  1.2653 -0.6010 -1.0129
 5746TIP3    H238654   4.617   0.904   4.463 -0.9644 -1.5049 -0.4707
 5747TIP3   OH238655   1.816   1.610  11.591  0.4045 -0.4067  0.0389
 5747TIP3    H138656   1.861   1.625  11.508 -0.7585 -1.0187 -0.7160
 5747TIP3    H238657   1.795   1.517  11.591  1.2578 -0.6326  1.4800
 5748TIP3   OH238658   1.853   2.967  14.074 -0.2846  0.2012 -0.4568
 5748TIP3    H138659   1.905   3.004  14.145 -2.1195  0.4534  0.8199
 5748TIP3    H238660   1.861   2.872  14.085 -0.3796  0.2401 -0.0574
 5749TIP3   OH238661   3.514   3.793  11.792 -0.0342 -0.4107 -0.0494
 5749TIP3    H138662   3.539   3.748  11.873  1.1440 -1.1000 -0.7608
 5749TIP3    H238663   3.590   3.848  11.772 -0.2510 -0.3748 -0.7829
 5750TIP3   OH238664   1.327   2.960  15.594  0.1141  0.5738  0.6470
 5750TIP3    H138665   1.385   2.920  15.530  1.0598  1.5034  0.9009
 5750TIP3    H238666   1.323   3.052  15.569 -0.6894  0.6539  1.0515
 5751TIP3   OH238667   5.181   4.852   5.679 -0.1062 -0.3389 -0.2567
 5751TIP3    H138668   5.186   4.818   5.589 -2.3174  3.7724 -2.2079
 5751TIP3    H238669   5.256   4.912   5.685  2.6300 -3.6023  2.4399
 5752TIP3   OH238670   6.764   1.613  14.480  0.0538  0.3456  0.3492
 5752TIP3    H138671   6.752   1.557  14.403 -0.2522  3.3186 -1.9500
 5752TIP3    H238672   6.857   1.608  14.499  0.6109  1.3602 -1.8094
 5753TIP3   OH238673   0.913   5.283   2.078 -0.1630  0.6903 -0.2309
 5753TIP3    H138674   0.926   5.375   2.056  0.5837  0.3502 -1.2986
 5753TIP3    H238675   0.924   5.236   1.995  0.5733 -0.4648  0.4898
 5754TIP3   OH238676   6.263   4.700   6.281 -0.2545 -0.0783  0.1183
 5754TIP3    H138677   6.193   4.689   6.216 -0.8807  0.0601  0.7631
 5754TIP3    H238678   6.225   4.668   6.363  0.2711  0.4522  0.5709
 5755TIP3   OH238679   0.985   6.124  13.231 -0.3679  0.2531  0.2634
 5755TIP3    H138680   0.983   6.028  13.228  0.2362  0.2533 -0.3748
 5755TIP3    H238681   1.075   6.147  13.209  0.0134  0.9156  2.3107
 5756TIP3   OH238682   5.332   3.782   5.851  0.4042  0.6202 -0.3386
 5756TIP3    H138683   5.325   3.877   5.858 -0.2567  0.9206 -3.6438
 5756TIP3    H238684   5.422   3.762   5.876 -0.0408  1.7500  2.5809
 5757TIP3   OH238685   3.674   5.911  11.868  0.5474  1.0381 -0.0068
 5757TIP3    H138686   3.683   5.816  11.879  1.0713  1.2856  2.0668
 5757TIP3    H238687   3.581   5.927  11.880  0.1219  0.6382 -2.2292
 5758TIP3   OH238688   4.930   5.844   5.860  0.2930 -0.8694 -0.0346
 5758TIP3    H138689   4.981   5.766   5.879  0.9350 -0.5691 -0.4817
 5758TIP3    H238690   4.889   5.868   5.943  2.8081  0.2649  0.9754
 5759TIP3   OH238691   2.150   3.004   3.713  0.3306  0.5393  0.3579
 5759TIP3    H138692   2.242   3.003   3.737  0.2484 -1.3474  0.7396
 5759TIP3    H238693   2.145   2.953   3.632 -0.7209 -2.4284  2.1199
 5760TIP3   OH238694   5.913   5.432   1.033 -0.0039  0.0643  0.1851
 5760TIP3    H138695   5.942   5.469   1.116  0.2645 -1.5856  0.8756
 5760TIP3    H238696   5.994   5.421   0.982 -0.1891  1.2610 -0.4048
 5761TIP3   OH238697   6.458   1.410  13.181 -0.3142  0.1193 -0.2285
 5761TIP3    H138698   6.386   1.346  13.183 -0.6437  0.4741 -0.5872
 5761TIP3    H238699   6.453   1.449  13.094 -0.4373  1.0026  0.1600
 5762TIP3   OH238700   6.732   5.964  15.567  0.4778 -0.0141  0.2085
 5762TIP3    H138701   6.754   6.048  15.608 -0.0684  0.9001 -1.2838
 5762TIP3    H238702   6.661   5.986  15.506 -0.9329 -1.8961  1.0751
 5763TIP3   OH238703   1.772   6.773  15.894 -0.0651  0.6223 -0.1535
 5763TIP3    H138704   1.829   6.839  15.934 -0.0679  0.5637 -0.0542
 5763TIP3    H238705   1.804   6.767  15.804  1.0754 -0.4863  0.2902
 5764TIP3   OH238706   2.049   3.232  11.756  0.0524  0.1360  0.0988
 5764TIP3    H138707   2.035   3.146  11.717  2.7797  0.3095 -1.4901
 5764TIP3    H238708   2.001   3.229  11.839 -1.8185 -2.0472 -0.9688
 5765TIP3   OH238709   2.092   3.133   1.783  0.4342  0.6929  0.5821
 5765TIP3    H138710   2.122   3.220   1.755 -1.3044  1.5968  1.3631
 5765TIP3    H238711   2.071   3.088   1.701  3.9355 -0.0930 -0.0274
 5766TIP3   OH238712   5.336   0.156   4.062  0.4331 -0.2344 -0.0901
 5766TIP3    H138713   5.427   0.174   4.040 -0.0059 -0.3863 -2.1722
 5766TIP3    H238714   5.335   0.065   4.091  1.1110  0.1266  1.1242
 5767TIP3   OH238715   0.275   2.444  12.765 -0.5714  0.2347  0.4210
 5767TIP3    H138716   0.310   2.465  12.852  0.3752 -1.2031  0.4306
 5767TIP3    H238717   0.326   2.368  12.737  0.4060  1.7089 -2.1770
 5768TIP3   OH238718   4.501   1.343   0.282 -0.4886  0.2797 -0.4392
 5768TIP3    H138719   4.472   1.359   0.193 -2.6129  1.0339  0.3285
 5768TIP3    H238720   4.590   1.379   0.286 -0.9755  1.6944 -1.8113
 5769TIP3   OH238721   6.222   3.335   3.480  0.1325  0.0920  0.1730
 5769TIP3    H138722   6.255   3.377   3.559 -0.8384 -0.8985  1.1398
 5769TIP3    H238723   6.251   3.244   3.488 -1.3755 -0.4030  0.2356
 5770TIP3   OH238724   0.419   4.273  11.384 -0.8246 -0.0278 -0.1974
 5770TIP3    H138725   0.445   4.357  11.346  0.0008 -0.8976 -1.6128
 5770TIP3    H238726   0.331   4.257  11.349 -0.4323 -0.3895 -1.0386
 5771TIP3   OH238727   3.802   0.953   3.355 -0.0813 -0.3967  0.0945
 5771TIP3    H138728   3.885   0.956   3.308 -1.3648  0.0720 -2.3652
 5771TIP3    H238729   3.808   1.022   3.420  0.5308  1.4558 -1.8205
 5772TIP3   OH238730   6.179   5.971   0.839  0.5182 -0.0065 -0.0137
 5772TIP3    H138731   6.144   5.883   0.851 -1.0634  0.2500 -2.2979
 5772TIP3    H238732   6.190   6.004   0.928 -0.3243 -1.9228  0.8643
 5773TIP3   OH238733   5.447   1.266  15.234 -0.2479 -0.4133 -0.1182
 5773TIP3    H138734   5.428   1.328  15.304 -1.5808 -2.0123  1.0193
 5773TIP3    H238735   5.483   1.190  15.279  0.9062 -0.6621 -1.4254
 5774TIP3   OH238736   3.225   1.165   1.320  0.4712 -0.0204  0.5374
 5774TIP3    H138737   3.273   1.203   1.246 -1.2817  1.5032  0.1118
 5774TIP3    H238738   3.232   1.070   1.307  1.2333  0.1983 -0.8786
 5775TIP3   OH238739   3.436   6.321  15.150  0.1554  0.0380 -0.2304
 5775TIP3    H138740   3.399   6.390  15.205  1.1681  0.9084 -0.6094
 5775TIP3    H238741   3.454   6.364  15.066  2.9148 -0.0615  0.2252
 5776TIP3   OH238742   6.070   2.105   2.149 -0.7214 -0.4497  0.2801
 5776TIP3    H138743   6.107   2.186   2.184 -0.2130 -0.4359 -0.2737
 5776TIP3    H238744   6.060   2.121   2.055 -2.6775 -0.2497  0.4734
 5777TIP3   OH238745   4.260   0.905   1.075 -0.4369 -0.0361 -0.1162
 5777TIP3    H138746   4.268   0.939   1.164  0.8673  0.6263 -0.4784
 5777TIP3    H238747   4.311   0.824   1.076  0.9519  0.7929 -0.6586
 5778TIP3   OH238748   3.807   5.741  15.979  0.1492  0.0561 -0.0684
 5778TIP3    H138749   3.757   5.795  15.918 -0.4527  1.2297  1.4028
 5778TIP3    H238750   3.889   5.790  15.991 -0.0917  0.2829  0.6995
 5779TIP3   OH238751   3.945   5.802  15.490 -0.3332  0.0202  0.3655
 5779TIP3    H138752   3.940   5.721  15.541  0.0353  0.2225  0.7298
 5779TIP3    H238753   3.854   5.827  15.476 -0.4459 -0.3266  0.4623
 5780TIP3   OH238754   0.151   2.938   3.773 -0.1034 -0.9338 -0.2556
 5780TIP3    H138755   0.112   3.017   3.810  0.6532 -0.3305 -0.7100
 5780TIP3    H238756   0.117   2.933   3.684 -0.8388 -1.6173  0.0537
 5781TIP3   OH238757   2.180   2.093   0.291 -0.1983  0.6789  0.1307
 5781TIP3    H138758   2.097   2.105   0.337 -0.2228  1.2532 -0.0516
 5781TIP3    H238759   2.175   2.005   0.255 -0.0990  0.1318  1.3833
 5782TIP3   OH238760   3.613   0.525   0.688  0.5548 -0.6619 -0.4234
 5782TIP3    H138761   3.545   0.528   0.755 -0.5343  0.9035 -1.5194
 5782TIP3    H238762   3.645   0.435   0.690  0.5395 -0.6646  2.1161
 5783TIP3   OH238763   3.477   5.826   2.671  0.2342  0.9858 -0.2715
 5783TIP3    H138764   3.457   5.855   2.760  1.1121  1.9898 -0.3947
 5783TIP3    H238765   3.544   5.758   2.682  0.3771  1.1438 -0.1709
 5784TIP3   OH238766   3.849   5.425  16.886 -0.3151  0.6548 -0.0682
 5784TIP3    H138767   3.935   5.451  16.854  0.3315 -0.4054  0.7193
 5784TIP3    H238768   3.822   5.496  16.944  0.9325  0.1466  1.2141
 5785TIP3   OH238769   6.670   2.517  16.745 -0.0787 -0.5083 -0.1105
 5785TIP3    H138770   6.605   2.526  16.675  0.8746  0.3780 -0.9419
 5785TIP3    H238771   6.631   2.457  16.808 -1.8342  0.2699 -0.3984
 5786TIP3   OH238772   5.631   3.703  10.780  0.2646  0.0139  0.2527
 5786TIP3    H138773   5.609   3.785  10.735 -0.6140 -1.9684 -3.3250
 5786TIP3    H238774   5.711   3.673  10.738 -1.3558 -2.6393 -1.2185
 5787TIP3   OH238775   0.583   6.129   3.610 -0.1997 -0.1177  0.5283
 5787TIP3    H138776   0.659   6.079   3.581  0.2213 -1.0338  2.9763
 5787TIP3    H238777   0.610   6.220   3.603 -0.2893 -0.2387 -2.2044
 5788TIP3   OH238778   6.425   1.981   0.953 -1.0930  0.7628 -0.0591
 5788TIP3    H138779   6.500   2.031   0.921 -3.0093  2.5623 -2.0723
 5788TIP3    H238780   6.461   1.926   1.023  2.0913  1.3635 -1.0718
 5789TIP3   OH238781   3.938   1.373   1.850 -0.1456 -0.0313  0.0807
 5789TIP3    H138782   3.866   1.430   1.824  0.9353  1.7263  0.7315
 5789TIP3    H238783   3.913   1.286   1.820 -2.5739  0.4964  0.3961
 5790TIP3   OH238784   0.831   1.504  13.003 -0.9371  0.0506  0.1534
 5790TIP3    H138785   0.906   1.483  13.059 -1.4024  0.6673  1.0487
 5790TIP3    H238786   0.869   1.545  12.926 -0.0544 -3.2481 -1.3247
 5791TIP3   OH238787   0.291   0.144   1.749 -0.3461 -0.4975  0.2844
 5791TIP3    H138788   0.370   0.194   1.770  0.3868 -1.9245  1.1417
 5791TIP3    H238789   0.233   0.207   1.706  1.6348  0.3720 -1.3163
 5792TIP3   OH238790   2.852   5.095   0.093  0.1878  0.2454  0.3878
 5792TIP3    H138791   2.906   5.033   0.045 -1.1876 -0.1713 -0.7079
 5792TIP3    H238792   2.912   5.166   0.117  1.2785 -0.3547 -0.4726
 5793TIP3   OH238793   2.334   4.070  11.051 -0.0329  0.5360  0.2559
 5793TIP3    H138794   2.345   4.151  11.003  1.1340 -0.1466 -0.6824
 5793TIP3    H238795   2.274   4.018  10.998  0.2554  0.2763  0.1814
 5794TIP3   OH238796   5.357   0.572  12.317  0.3870  0.5095  0.6163
 5794TIP3    H138797   5.346   0.666  12.334  0.8571  0.3527  1.8708
 5794TIP3    H238798   5.417   0.542  12.385  0.1445 -0.7299  0.3069
 5795TIP3   OH238799   3.482   6.171   0.049  0.2475  0.1538 -0.8245
 5795TIP3    H138800   3.482   6.076   0.056  1.2781  0.1328 -0.8979
 5795TIP3    H238801   3.473   6.188  -0.044 -0.1666  0.1348 -0.7894
 5796TIP3   OH238802   2.181   1.628  12.476  0.1119  0.3378 -0.2406
 5796TIP3    H138803   2.253   1.672  12.520  1.5808  0.3498 -2.4995
 5796TIP3    H238804   2.223   1.563  12.420 -1.8017 -1.3701  0.1843
 5797TIP3   OH238805   5.446   0.273  15.066 -0.0326  0.1723  0.4660
 5797TIP3    H138806   5.402   0.320  15.136 -0.8114  0.7281 -0.3672
 5797TIP3    H238807   5.524   0.235  15.107 -0.3157  0.7303  1.5489
 5798TIP3   OH238808   2.824   4.273  12.914  0.4348  0.5694  0.1124
 5798TIP3    H138809   2.840   4.367  12.905 -0.4740  0.5884 -1.6523
 5798TIP3    H238810   2.734   4.261  12.887  0.4553 -0.7950  0.5859
 5799TIP3   OH238811   5.983   2.131  13.610  0.3169 -0.3746  0.3889
 5799TIP3    H138812   5.928   2.052  13.604  0.1486 -0.3225  1.1929
 5799TIP3    H238813   5.965   2.178  13.528 -0.3575 -0.6751  0.3529
 5800TIP3   OH238814   1.842   4.805  10.908 -0.0783  0.3531  0.8760
 5800TIP3    H138815   1.756   4.845  10.908  1.0874  3.0971  0.4398
 5800TIP3    H238816   1.867   4.802  10.815  0.5621  0.2776  1.0402
 5801TIP3   OH238817   1.605   3.602  16.901  0.3971 -0.5644  0.4111
 5801TIP3    H138818   1.653   3.527  16.938  1.6483  0.4341  0.8677
 5801TIP3    H238819   1.661   3.634  16.831  0.2289  0.3990  0.7084
 5802TIP3   OH238820   2.925   0.468  11.334  0.3285 -0.2897  0.7213
 5802TIP3    H138821   2.844   0.419  11.322 -1.1005  1.8484  1.3231
 5802TIP3    H238822   2.931   0.484  11.428  1.1584  0.0976  0.6146
 5803TIP3   OH238823   2.787   0.191   2.088 -0.5204 -0.0049 -0.2434
 5803TIP3    H138824   2.798   0.265   2.028 -1.3327 -0.0548 -0.4719
 5803TIP3    H238825   2.767   0.231   2.172 -0.0411  0.0519 -0.1550
 5804TIP3   OH238826   1.678   5.407   2.533  0.2149 -0.3560  0.3545
 5804TIP3    H138827   1.772   5.424   2.538  0.5665 -2.0414  0.1861
 5804TIP3    H238828   1.646   5.428   2.620  0.5235  1.2907  0.1092
 5805TIP3   OH238829   2.286   2.205   3.595 -0.5947  0.1692 -1.2127
 5805TIP3    H138830   2.306   2.124   3.641 -1.4150 -0.1934 -1.4697
 5805TIP3    H238831   2.190   2.210   3.596 -0.6131  0.3862 -2.4746
 5806TIP3   OH238832   1.003   3.806   4.751 -0.0084  0.6371 -0.5609
 5806TIP3    H138833   1.065   3.736   4.772 -2.1508 -1.6333 -1.2318
 5806TIP3    H238834   0.963   3.829   4.835  0.3058  0.6650 -0.4176
 5807TIP3   OH238835   6.723   1.049  11.193 -0.3943 -0.7352  0.0965
 5807TIP3    H138836   6.725   1.033  11.098  0.4910  0.9712 -0.2059
 5807TIP3    H238837   6.769   0.973  11.231 -0.0571 -1.0511 -0.9094
 5808TIP3   OH238838   3.412   1.532  15.826  0.1220 -0.4314 -0.1013
 5808TIP3    H138839   3.393   1.626  15.825  1.4986 -0.1025  0.9636
 5808TIP3    H238840   3.396   1.505  15.916 -3.1297 -1.9373 -0.9767
 5809TIP3   OH238841   0.813   0.476   4.736  0.0450  0.2883 -0.2596
 5809TIP3    H138842   0.759   0.398   4.750  0.0222  0.5426  1.3013
 5809TIP3    H238843   0.903   0.443   4.737  0.1899  0.4534  2.6947
 5810TIP3   OH238844   0.135   1.259   2.597  0.6320  0.4824  0.3689
 5810TIP3    H138845   0.163   1.342   2.637  0.1297  1.0253 -0.3797
 5810TIP3    H238846   0.039   1.261   2.602  0.5840  0.3076 -0.3375
 5811TIP3   OH238847   0.434   4.801   1.642 -0.0126  0.5365  0.3837
 5811TIP3    H138848   0.387   4.829   1.564  1.4163  0.3580 -0.5830
 5811TIP3    H238849   0.416   4.707   1.648 -0.2016  0.5688  0.3446
 5812TIP3   OH238850   5.909   1.944   1.380  0.2319  0.0696  0.1161
 5812TIP3    H138851   5.908   1.967   1.287 -2.8447 -0.1207  0.0057
 5812TIP3    H238852   5.969   1.870   1.385  0.6655  0.2382 -1.6583
 5813TIP3   OH238853   0.353   5.352  13.526  0.2677 -0.0108  0.3720
 5813TIP3    H138854   0.301   5.300  13.464  0.5800 -1.4107  1.2505
 5813TIP3    H238855   0.443   5.342  13.496  0.2200  1.1620 -0.2406
 5814TIP3   OH238856   0.390   3.311   3.325  0.0656 -0.9387  0.0666
 5814TIP3    H138857   0.477   3.350   3.334  0.1825 -1.5294  2.3440
 5814TIP3    H238858   0.340   3.373   3.273  1.6069 -0.1835 -0.5713
 5815TIP3   OH238859   4.698   2.036  15.412 -0.1662  0.0494  0.2963
 5815TIP3    H138860   4.775   2.031  15.355 -0.1658  0.9497  0.2066
 5815TIP3    H238861   4.645   2.107  15.375 -1.5115 -1.1519 -0.2075
 5816TIP3   OH238862   5.623   5.301   5.040 -0.1480  0.2292  0.0741
 5816TIP3    H138863   5.674   5.329   4.964  0.0010 -1.0613 -0.3251
 5816TIP3    H238864   5.537   5.281   5.005 -0.7807  1.8154  0.6486
 5817TIP3   OH238865   2.814   5.681   1.833  0.1267  0.6517 -0.7865
 5817TIP3    H138866   2.761   5.602   1.820  0.9444  0.3700 -2.7948
 5817TIP3    H238867   2.797   5.707   1.923 -2.5403 -0.0430 -1.0114
 5818TIP3   OH238868   3.743   1.592  16.189 -0.2094 -0.4673 -0.3318
 5818TIP3    H138869   3.672   1.528  16.186  1.5907 -2.6106 -0.3937
 5818TIP3    H238870   3.814   1.550  16.141  0.8454  1.9577 -1.0312
 5819TIP3   OH238871   1.777   3.910  17.054  0.3872 -0.3125  0.1288
 5819TIP3    H138872   1.757   3.817  17.049  3.1233 -1.1386  1.7921
 5819TIP3    H238873   1.794   3.936  16.963 -0.0499 -1.5381 -0.3236
 5820TIP3   OH238874   5.058   3.205   1.518  0.0227  0.1801 -0.1254
 5820TIP3    H138875   5.007   3.238   1.444  0.1246  3.0582  0.9706
 5820TIP3    H238876   4.997   3.209   1.592  0.6350 -0.3566  0.4215
 5821TIP3   OH238877   4.768   1.602   2.835 -0.0381 -0.6851  0.0251
 5821TIP3    H138878   4.778   1.673   2.771  1.0103 -0.9555 -0.1316
 5821TIP3    H238879   4.674   1.597   2.851 -0.3339 -0.6588 -1.5447
 5822TIP3   OH238880   2.865   3.157   3.266  0.3402  0.1623 -0.3697
 5822TIP3    H138881   2.926   3.212   3.315 -1.7484  1.0110  1.4858
 5822TIP3    H238882   2.800   3.131   3.331 -2.9078  1.7614 -2.6921
 5823TIP3   OH238883   0.464   5.398   1.686 -0.3240 -0.1323  0.0767
 5823TIP3    H138884   0.558   5.398   1.705 -0.4530 -0.5317  0.7435
 5823TIP3    H238885   0.432   5.477   1.729 -0.4762 -0.5927  0.8219
 5824TIP3   OH238886   0.999   1.750   3.357 -0.3827 -0.3250  0.4833
 5824TIP3    H138887   1.094   1.743   3.344 -0.3862  1.5743 -1.0294
 5824TIP3    H238888   0.973   1.825   3.304 -2.5287  0.1304  2.0372
 5825TIP3   OH238889   6.210   6.226   0.682  0.2462 -0.0479  0.1972
 5825TIP3    H138890   6.180   6.309   0.645  0.5941 -0.7351 -1.7094
 5825TIP3    H238891   6.189   6.160   0.616  2.0531 -1.1549  0.6296
 5826TIP3   OH238892   4.864   3.809  11.900  0.0290  0.0627 -0.7022
 5826TIP3    H138893   4.940   3.752  11.912 -0.0911  0.1856  0.7579
 5826TIP3    H238894   4.788   3.752  11.915 -0.1579  0.1483 -1.2782
 5827TIP3   OH238895   4.100   2.914   5.430 -0.0384  0.4996  0.3444
 5827TIP3    H138896   4.117   3.006   5.409  0.7136  0.4565  0.7352
 5827TIP3    H238897   4.129   2.904   5.520 -1.4220  0.1994  0.7751
 5828TIP3   OH238898   5.635   1.642   5.116 -0.1956 -0.2016  0.2480
 5828TIP3    H138899   5.707   1.578   5.120 -0.9340 -1.0965 -0.3939
 5828TIP3    H238900   5.630   1.678   5.204  1.4998  0.4100  0.1420
 5829TIP3   OH238901   5.979   3.181  13.674 -0.4576 -0.3389  0.0407
 5829TIP3    H138902   5.915   3.250  13.690  0.1464  0.0911  0.6801
 5829TIP3    H238903   6.059   3.227  13.648  0.1661 -0.7304  1.1857
 5830TIP3   OH238904   3.118   4.688  16.892 -0.2099 -0.2244 -0.1674
 5830TIP3    H138905   3.074   4.632  16.956 -1.0253 -0.1649 -0.6583
 5830TIP3    H238906   3.064   4.682  16.813  0.8297 -0.3901 -0.9026
 5831TIP3   OH238907   1.814   2.465  13.294 -0.4570  0.4072  0.0488
 5831TIP3    H138908   1.827   2.536  13.357  0.7815 -0.6042  0.9880
 5831TIP3    H238909   1.780   2.508  13.216  2.5385  2.4754 -0.2935
 5832TIP3   OH238910   2.189   5.457  14.494 -0.0157 -0.2712  0.1036
 5832TIP3    H138911   2.183   5.381  14.435  0.1123 -0.2175  0.0209
 5832TIP3    H238912   2.272   5.445  14.540 -0.3885 -0.6224  0.7073
 5833TIP3   OH238913   0.965   0.091  13.320  0.0473 -0.4196  0.1263
 5833TIP3    H138914   0.994   0.182  13.331 -1.3278 -0.0003  0.5729
 5833TIP3    H238915   0.909   0.075  13.396 -1.4870 -0.9059 -1.0572
 5834TIP3   OH238916   0.938   0.401   4.432  0.1511 -0.1499  0.3513
 5834TIP3    H138917   0.870   0.465   4.455 -0.5869 -0.6716 -0.3053
 5834TIP3    H238918   0.890   0.319   4.423  0.7298 -0.3498 -1.0485
 5835TIP3   OH238919   6.509   0.780   5.299 -0.6290 -0.4905  0.1199
 5835TIP3    H138920   6.569   0.852   5.279  1.1008 -1.7347  0.6712
 5835TIP3    H238921   6.508   0.774   5.394 -1.2206 -0.8272  0.0992
 5836TIP3   OH238922   4.484   5.796  14.027 -0.0880 -0.2426  0.5796
 5836TIP3    H138923   4.506   5.709  14.061  0.7725 -0.5786 -0.7614
 5836TIP3    H238924   4.528   5.857  14.086 -0.2476 -0.7198  1.2080
 5837TIP3   OH238925   1.124   1.988  15.822  0.1801 -0.3937 -0.1862
 5837TIP3    H138926   1.042   1.976  15.773  1.1898 -0.9750 -1.8156
 5837TIP3    H238927   1.163   2.067  15.785  0.6445 -0.4535  0.1677
 5838TIP3   OH238928   3.758   5.935  15.717  0.4331  0.3891  0.1275
 5838TIP3    H138929   3.807   5.997  15.663 -2.2399  0.5469 -2.3494
 5838TIP3    H238930   3.709   5.991  15.778 -0.0645  0.5678 -0.4262
 5839TIP3   OH238931   2.262   4.999  13.002 -0.2167  0.2480  0.5470
 5839TIP3    H138932   2.356   4.981  13.001 -0.1845  0.0380  2.8524
 5839TIP3    H238933   2.228   4.956  12.923  1.5558  0.0944 -0.1744
 5840TIP3   OH238934   0.626   6.431  14.355  0.1838  0.4439  0.1087
 5840TIP3    H138935   0.545   6.479  14.373 -0.1094  0.3266 -0.8495
 5840TIP3    H238936   0.655   6.400  14.440  0.3651  2.2901  0.7751
 5841TIP3   OH238937   2.700   6.287   5.106  0.0767  0.0697  0.8293
 5841TIP3    H138938   2.614   6.318   5.079  0.3792  0.5475  0.4106
 5841TIP3    H238939   2.716   6.209   5.053  0.0479  0.1796  0.6586
 5842TIP3   OH238940   5.860   5.354   4.846 -0.1434  0.3451 -0.2677
 5842TIP3    H138941   5.914   5.432   4.846  0.3037  0.1085  2.2180
 5842TIP3    H238942   5.791   5.373   4.782  0.4363  2.3988 -0.3542
 5843TIP3   OH238943   1.486   5.427   3.978  0.0757 -0.7658 -0.0387
 5843TIP3    H138944   1.524   5.429   4.065 -1.4982  0.0730  0.6729
 5843TIP3    H238945   1.398   5.390   3.991 -1.1874  1.7575 -0.8038
 5844TIP3   OH238946   6.175   3.144  15.050 -0.8045 -0.3442 -0.0184
 5844TIP3    H138947   6.107   3.128  15.115 -1.5584  1.2089 -0.3788
 5844TIP3    H238948   6.130   3.140  14.966 -0.2961 -0.1297 -0.3104
 5845TIP3   OH238949   6.294   2.957   3.082 -0.0232  0.7496  0.1825
 5845TIP3    H138950   6.324   2.868   3.069 -0.0319  0.5379  1.5093
 5845TIP3    H238951   6.235   2.952   3.157  0.6551  2.0113  0.8332
 5846TIP3   OH238952   1.865   6.087   5.227  0.6619 -0.8798  0.0202
 5846TIP3    H138953   1.950   6.102   5.186 -0.0081 -0.3566 -1.2386
 5846TIP3    H238954   1.810   6.052   5.157 -0.2321 -0.9861  0.7500
 5847TIP3   OH238955   6.190   6.732   4.791 -0.2452  0.3299 -0.0216
 5847TIP3    H138956   6.223   6.670   4.857  1.0029  0.0626 -0.8494
 5847TIP3    H238957   6.269   6.758   4.743 -1.2091  0.0247 -1.8237
 5848TIP3   OH238958   1.736   6.199   5.583  0.5090 -0.0574  0.2472
 5848TIP3    H138959   1.750   6.162   5.671 -0.3671  0.6885  0.7220
 5848TIP3    H238960   1.651   6.243   5.589  1.1192  1.2788 -0.5546
 5849TIP3   OH238961   0.320   6.197   4.420 -0.4955 -0.3444  0.3131
 5849TIP3    H138962   0.281   6.209   4.333 -0.0946  0.3717  0.2245
 5849TIP3    H238963   0.311   6.103   4.437  0.6066 -0.7405 -1.0700
 5850TIP3   OH238964   6.691   0.173  13.962 -0.0081 -0.3421 -0.0769
 5850TIP3    H138965   6.651   0.166  13.875  2.1678 -1.1089 -1.0763
 5850TIP3    H238966   6.739   0.091  13.973  0.2355 -0.0038  1.6262
 5851TIP3   OH238967   4.674   0.627  12.776  0.0180  0.2638  0.4754
 5851TIP3    H138968   4.639   0.715  12.789 -0.3447 -0.0151  1.4415
 5851TIP3    H238969   4.723   0.608  12.855  1.5668  0.2461 -0.4406
 5852TIP3   OH238970   2.649   6.133  15.247 -0.1621  0.0980 -0.5131
 5852TIP3    H138971   2.608   6.133  15.334  0.4588 -1.0621 -0.1905
 5852TIP3    H238972   2.597   6.194  15.195 -1.7209 -0.6142  0.1489
 5853TIP3   OH238973   0.812   6.230  12.588 -0.3494 -0.5170  0.5714
 5853TIP3    H138974   0.834   6.322  12.601  0.7966 -0.7024  0.0594
 5853TIP3    H238975   0.882   6.196  12.532  0.6312 -2.3063  2.7428
 5854TIP3   OH238976   1.879   5.709   4.786  0.3728 -0.5889 -0.1227
 5854TIP3    H138977   1.813   5.643   4.806 -0.0324 -0.9097 -2.3209
 5854TIP3    H238978   1.930   5.672   4.714  0.6255  1.1483 -0.8879
 5855TIP3   OH238979   3.584   3.997  13.494  0.3583 -0.1704  0.0939
 5855TIP3    H138980   3.677   3.972  13.489  0.1441 -0.7618 -2.9097
 5855TIP3    H238981   3.545   3.958  13.416 -2.7242 -0.9274  1.8847
 5856TIP3   OH238982   6.772   3.034   4.844  0.3079  0.3232  0.2854
 5856TIP3    H138983   6.839   3.038   4.775 -0.3208 -0.0379 -0.3683
 5856TIP3    H238984   6.797   2.957   4.896  0.7019  0.5041  0.3686
 5857TIP3   OH238985   1.536   4.630  11.781 -0.3757 -0.4085 -0.2255
 5857TIP3    H138986   1.550   4.567  11.851 -2.0557 -0.3008  0.2657
 5857TIP3    H238987   1.499   4.577  11.709  0.5550 -0.3793 -0.7391
 5858TIP3   OH238988   0.986   1.046   1.058  0.1644  0.3376  0.4411
 5858TIP3    H138989   0.926   1.120   1.047 -0.0711 -0.2337 -3.6443
 5858TIP3    H238990   1.056   1.063   0.995 -0.0940 -2.9870 -0.9483
 5859TIP3   OH238991   5.707   6.461   1.280 -0.4749 -0.3556 -0.6576
 5859TIP3    H138992   5.801   6.468   1.263 -0.3472  0.2726  0.2085
 5859TIP3    H238993   5.696   6.376   1.322  0.0903  0.5166  1.3873
 5860TIP3   OH238994   1.168   2.923  12.351 -0.0580  0.7590 -0.3333
 5860TIP3    H138995   1.178   2.839  12.395  1.2752  1.4708  0.7852
 5860TIP3    H238996   1.090   2.912  12.297 -0.5534 -0.8220  0.6302
 5861TIP3   OH238997   4.523   2.732   0.725 -0.7027  0.4283 -0.0759
 5861TIP3    H138998   4.567   2.733   0.640 -0.2424 -1.0731  0.1064
 5861TIP3    H238999   4.486   2.820   0.735  0.9921  1.2820 -0.9124
 5862TIP3   OH239000   1.984   2.158   5.325  0.2521  0.1512  0.8100
 5862TIP3    H139001   1.904   2.206   5.301 -0.6211 -0.9242  1.4781
 5862TIP3    H239002   2.047   2.227   5.348 -0.6844  1.0120  0.8858
 5863TIP3   OH239003   0.364   0.299  13.715  0.4708  0.4413 -0.0238
 5863TIP3    H139004   0.454   0.297  13.680 -0.1863 -0.7632 -1.7817
 5863TIP3    H239005   0.347   0.209  13.742 -0.5417  0.4349 -0.6384
 5864TIP3   OH239006   4.227   2.921   1.302 -0.0403 -0.0308  0.4996
 5864TIP3    H139007   4.308   2.961   1.333  1.3013 -2.5986  0.5202
 5864TIP3    H239008   4.231   2.831   1.333 -1.7588 -0.8908 -1.5507
 5865TIP3   OH239009   1.816   3.957  12.742 -0.1234 -0.4558  0.9840
 5865TIP3    H139010   1.789   3.919  12.825 -0.1353 -0.7069  0.8664
 5865TIP3    H239011   1.884   3.899  12.710  1.3837  0.7666  1.8104
 5866TIP3   OH239012   5.287   1.105  13.142 -0.0458  0.1783  0.1641
 5866TIP3    H139013   5.209   1.130  13.192  0.1074 -2.0278  1.6156
 5866TIP3    H239014   5.255   1.041  13.079 -0.1968  2.7691 -2.5975
 5867TIP3   OH239015   5.124   0.035  14.712  0.0130  0.3389  0.3450
 5867TIP3    H139016   5.151   0.103  14.651  2.9933  0.3969  1.5345
 5867TIP3    H239017   5.047  -0.005  14.672  0.4951  1.8318 -2.2897
 5868TIP3   OH239018   5.442   4.249  15.643  0.2718  0.1461 -0.4963
 5868TIP3    H139019   5.496   4.318  15.604  0.2210 -0.0290 -0.8874
 5868TIP3    H239020   5.500   4.205  15.705  0.1000  0.9796  0.2710
 5869TIP3   OH239021   4.156   2.448  13.254 -0.4043  0.2034 -0.1614
 5869TIP3    H139022   4.131   2.356  13.260 -1.6488  0.6244  2.4697
 5869TIP3    H239023   4.223   2.460  13.321 -1.3492  1.4921  0.6054
 5870TIP3   OH239024   5.497   2.203   2.104 -0.2268  0.3312 -0.0020
 5870TIP3    H139025   5.485   2.267   2.174  0.0479 -1.4223  1.7056
 5870TIP3    H239026   5.431   2.136   2.121 -1.5087  0.7883 -2.6035
 5871TIP3   OH239027   5.016   6.432  16.393  0.5996  0.3636 -0.0725
 5871TIP3    H139028   4.965   6.463  16.468 -0.0989 -0.9788  0.0449
 5871TIP3    H239029   4.951   6.399  16.332  1.1807  1.3267 -1.2381
 5872TIP3   OH239030   6.145   4.069  12.411 -0.1508  0.6932  0.1144
 5872TIP3    H139031   6.151   4.070  12.507 -0.9856  1.6558  0.1746
 5872TIP3    H239032   6.055   4.041  12.393  0.5462 -1.3656 -0.4607
 5873TIP3   OH239033   1.649   2.588   6.351 -0.2234  0.4806  0.1942
 5873TIP3    H139034   1.566   2.636   6.345 -0.8954 -0.7691 -0.9466
 5873TIP3    H239035   1.702   2.623   6.280 -0.0346  0.7400  0.4550
 5874TIP3   OH239036   2.708   4.261  14.380  0.2314  0.0645  0.1763
 5874TIP3    H139037   2.752   4.344  14.362  2.5842 -0.7329  1.7862
 5874TIP3    H239038   2.654   4.279  14.457 -0.1894  0.3955 -0.1950
 5875TIP3   OH239039   3.915   4.067   0.402 -0.5562 -0.9968 -0.3753
 5875TIP3    H139040   3.960   3.986   0.428  2.6364  0.5116 -0.7414
 5875TIP3    H239041   3.898   4.112   0.485 -0.3123 -1.0580 -0.2902
 5876TIP3   OH239042   4.989   3.347  15.916 -0.2626  0.0358  0.0006
 5876TIP3    H139043   4.994   3.423  15.858 -1.9211 -0.0864 -0.3376
 5876TIP3    H239044   4.937   3.283  15.868  1.5830 -1.6033  0.0211
 5877TIP3   OH239045   0.271   5.258   2.577  0.7951 -0.4200 -0.6991
 5877TIP3    H139046   0.250   5.292   2.664  1.4343  0.6019 -0.9272
 5877TIP3    H239047   0.230   5.172   2.574 -0.5083  0.1442  0.0680
 5878TIP3   OH239048   0.118   4.111  16.771  0.5356 -0.2668 -0.1515
 5878TIP3    H139049   0.133   4.139  16.861  1.7718 -2.7306  0.5069
 5878TIP3    H239050   0.181   4.162  16.719  2.3624 -1.3449  0.9054
 5879TIP3   OH239051   0.444   2.472   6.669 -0.2913 -0.3538  0.1334
 5879TIP3    H139052   0.369   2.519   6.705  0.3151  0.4111  0.4095
 5879TIP3    H239053   0.511   2.539   6.655  1.2880 -1.3420  2.3180
 5880TIP3   OH239054   4.462   0.265   4.143 -0.3162 -0.0796  0.2661
 5880TIP3    H139055   4.489   0.315   4.220 -1.1025 -0.2919  0.6914
 5880TIP3    H239056   4.463   0.174   4.172 -0.5941 -0.1614  0.0216
 5881TIP3   OH239057   6.438   1.342   0.482 -0.2049 -0.1612 -0.4623
 5881TIP3    H139058   6.360   1.397   0.476  1.4755  2.3506 -0.6769
 5881TIP3    H239059   6.473   1.359   0.569 -0.3905 -2.0765  0.0410
 5882TIP3   OH239060   3.464   2.617   4.605 -0.0447  0.3133 -0.5312
 5882TIP3    H139061   3.545   2.584   4.645 -1.2786 -2.4351 -0.0225
 5882TIP3    H239062   3.461   2.574   4.520 -2.2813 -2.0672  0.6072
 5883TIP3   OH239063   0.701   5.842  12.402  0.3208 -0.2275 -0.0489
 5883TIP3    H139064   0.731   5.784  12.473 -1.4656 -1.9527 -0.6065
 5883TIP3    H239065   0.631   5.894  12.442 -0.7073 -1.2215 -0.5056
 5884TIP3   OH239066   6.050   4.329  14.980 -0.5211 -0.2091 -0.0000
 5884TIP3    H139067   6.081   4.346  14.891 -1.7451 -1.3715 -0.6872
 5884TIP3    H239068   5.976   4.269  14.969 -0.4937 -0.6444  1.8311
 5885TIP3   OH239069   5.022   1.590  13.081 -0.0864  0.1684 -0.6946
 5885TIP3    H139070   5.020   1.601  13.176  1.4052 -0.1551 -0.5939
 5885TIP3    H239071   5.114   1.571  13.061 -0.0484  1.8174 -2.3912
 5886TIP3   OH239072   6.598   3.998  16.351  0.6648  0.0308  0.2392
 5886TIP3    H139073   6.632   3.940  16.420  0.2256 -4.2469 -2.7238
 5886TIP3    H239074   6.504   4.002  16.368  0.7694  0.3477  0.7647
 5887TIP3   OH239075   4.250   1.745  15.521  0.4649 -0.1512 -0.4354
 5887TIP3    H139076   4.259   1.650  15.524  0.9467 -0.1021 -0.3295
 5887TIP3    H239077   4.323   1.774  15.467 -0.0782  0.1068 -1.0459
 5888TIP3   OH239078   3.217   6.785   5.217  0.5271  0.0457 -0.0617
 5888TIP3    H139079   3.184   6.729   5.287 -0.0535 -1.2046 -1.2821
 5888TIP3    H239080   3.243   6.724   5.148  1.1781  1.2296 -0.9003
 5889TIP3   OH239081   3.908   6.725  13.861  0.5317  0.4838  0.7192
 5889TIP3    H139082   3.889   6.705  13.769  0.3903  0.3246  0.7821
 5889TIP3    H239083   3.904   6.640  13.905  0.4103  0.5873  0.9057
 5890TIP3   OH239084   0.087   6.455   2.553  0.3933 -0.8682  0.0721
 5890TIP3    H139085   0.118   6.523   2.494 -1.1609  1.7108  2.0228
 5890TIP3    H239086   0.141   6.463   2.631 -2.5210  1.3169  2.0925
 5891TIP3   OH239087   5.940   0.450   3.430  0.6850  0.3790  0.0318
 5891TIP3    H139088   5.889   0.515   3.477  0.4697  0.4883 -0.3483
 5891TIP3    H239089   6.020   0.439   3.482 -0.0984 -0.4311  1.1025
 5892TIP3   OH239090   6.727   6.479  10.585 -0.0926  0.5635 -0.2439
 5892TIP3    H139091   6.730   6.406  10.647  1.4045  0.3958 -0.4935
 5892TIP3    H239092   6.814   6.481  10.546 -1.3858 -0.3337 -3.5280
 5893TIP3   OH239093   2.550   6.506  11.651  0.2879 -0.2944 -0.2925
 5893TIP3    H139094   2.547   6.410  11.646 -0.7836 -0.3818  1.2908
 5893TIP3    H239095   2.626   6.524  11.707 -0.5321 -0.3351  0.8790
 5894TIP3   OH239096   4.674   0.750   6.204  0.2497 -0.1234 -0.2278
 5894TIP3    H139097   4.727   0.719   6.278  1.4209  1.4311 -0.3575
 5894TIP3    H239098   4.602   0.687   6.198  0.7625 -0.9453  1.4955
 5895TIP3   OH239099   0.115   6.384   5.325  0.0663  0.3237 -0.2820
 5895TIP3    H139100   0.129   6.345   5.238 -0.1324 -0.7179  0.1378
 5895TIP3    H239101   0.020   6.378   5.338  0.1211  0.2783  0.0961
 5896TIP3   OH239102   3.442   5.228  11.008  0.5651  0.2458  0.2995
 5896TIP3    H139103   3.446   5.309  11.058 -1.5668 -0.4980  1.8697
 5896TIP3    H239104   3.453   5.254  10.917  1.5326  2.0522  0.8905
 5897TIP3   OH239105   3.365   3.532  11.195 -0.9271 -0.7285  0.0415
 5897TIP3    H139106   3.454   3.551  11.225 -0.9237 -0.5762 -0.0641
 5897TIP3    H239107   3.349   3.595  11.125 -2.1359  1.1836  1.8953
 5898TIP3   OH239108   4.394   4.152  12.334 -0.5020 -0.1147 -0.7932
 5898TIP3    H139109   4.419   4.121  12.421  1.0394 -1.2188 -1.5815
 5898TIP3    H239110   4.457   4.221  12.314 -1.0197  0.3222 -0.9262
 5899TIP3   OH239111   1.337   1.998   6.776 -0.0345 -0.3261 -0.6226
 5899TIP3    H139112   1.285   1.945   6.837  0.3707  1.7261  1.6631
 5899TIP3    H239113   1.309   2.088   6.793  2.1282  0.5679 -1.4533
 5900TIP3   OH239114   0.185   2.595   6.699  0.0084  0.4714 -0.2444
 5900TIP3    H139115   0.178   2.688   6.678 -0.7470  0.5961  0.5021
 5900TIP3    H239116   0.155   2.588   6.790  0.2675 -0.4699 -0.2127
 5901TIP3   OH239117   6.527   5.126   3.855 -0.0096  0.4172 -0.0841
 5901TIP3    H139118   6.443   5.170   3.846 -1.1720 -1.9962 -2.1629
 5901TIP3    H239119   6.509   5.051   3.912  1.2927  1.0497  1.2202
 5902TIP3   OH239120   6.641   2.451  13.443 -0.0893  0.2646  0.7487
 5902TIP3    H139121   6.578   2.430  13.374  0.2195 -1.0187  0.8214
 5902TIP3    H239122   6.611   2.401  13.519  1.1759 -0.6484  0.6869
 5903TIP3   OH239123   1.741   3.696   6.060  0.5936 -0.2264  0.7650
 5903TIP3    H139124   1.817   3.642   6.037  1.9886  2.1106 -0.5690
 5903TIP3    H239125   1.750   3.711   6.154  0.5421 -1.6926  1.0339
 5904TIP3   OH239126   5.688   6.786   4.802  0.0855 -0.3209  0.6278
 5904TIP3    H139127   5.757   6.742   4.753 -0.9511 -0.2641 -0.9619
 5904TIP3    H239128   5.664   6.724   4.871  1.7302 -0.3104  1.2507
 5905TIP3   OH239129   2.339   1.212   2.042 -0.0190 -0.3736  0.4352
 5905TIP3    H139130   2.375   1.244   2.125  1.3458  0.8552 -0.5643
 5905TIP3    H239131   2.370   1.275   1.977  0.7698 -2.4471 -1.3334
 5906TIP3   OH239132   2.995   5.171  11.391 -0.6453  0.0105 -0.2714
 5906TIP3    H139133   3.064   5.107  11.411  0.4807  1.1751 -0.3446
 5906TIP3    H239134   2.916   5.118  11.385  0.2044 -1.3525 -0.0463
 5907TIP3   OH239135   4.894   1.836   0.243  0.2645 -0.7866 -0.6581
 5907TIP3    H139136   4.886   1.834   0.338 -1.6908  0.0967 -0.7554
 5907TIP3    H239137   4.988   1.847   0.227  0.5780 -0.5211  1.1677
 5908TIP3   OH239138   5.157   0.672  13.370 -0.2406 -0.4325  0.0802
 5908TIP3    H139139   5.126   0.715  13.450  2.9871  0.3021  1.0908
 5908TIP3    H239140   5.129   0.581  13.380 -2.9155  0.3285  0.2882
 5909TIP3   OH239141   2.503   5.780   0.469  0.2645  0.5407 -0.3652
 5909TIP3    H139142   2.488   5.694   0.509  0.7276  0.0738 -1.1717
 5909TIP3    H239143   2.437   5.837   0.510  0.1193 -0.1318  0.3677
 5910TIP3   OH239144   5.424   4.982   5.078  0.4535 -0.0468 -0.1780
 5910TIP3    H139145   5.353   4.917   5.078  0.5197 -0.1234  0.5253
 5910TIP3    H239146   5.382   5.062   5.110  0.0290  0.6587 -2.3384
 5911TIP3   OH239147   3.849   5.726   5.607 -0.1353 -0.3593 -0.1096
 5911TIP3    H139148   3.759   5.696   5.602  0.0452 -1.3074  1.5016
 5911TIP3    H239149   3.842   5.820   5.621 -0.8949 -0.4638  0.2738
 5912TIP3   OH239150   6.746   6.796  12.380 -0.0599  0.3220  0.1312
 5912TIP3    H139151   6.669   6.844  12.409 -0.4151 -0.6245  0.7871
 5912TIP3    H239152   6.797   6.782  12.459  1.0627  1.3787 -0.3664
 5913TIP3   OH239153   1.827   5.686  15.282  0.4564 -0.9201 -0.2401
 5913TIP3    H139154   1.880   5.753  15.237 -0.5036 -0.9017 -1.3914
 5913TIP3    H239155   1.752   5.673  15.224 -0.3299 -1.6149  0.9181
 5914TIP3   OH239156   0.281   1.115  14.942 -0.5278  0.3559 -0.4278
 5914TIP3    H139157   0.259   1.028  14.975 -0.0400  0.0263 -0.9441
 5914TIP3    H239158   0.216   1.133  14.874 -0.9904  0.6553  0.0842
 5915TIP3   OH239159   2.952   4.130   1.550  0.3685 -0.3136  0.1237
 5915TIP3    H139160   3.043   4.142   1.575  0.3227  1.1933 -0.3269
 5915TIP3    H239161   2.902   4.160   1.625  0.2540  0.7212 -0.3464
 5916TIP3   OH239162   4.193   1.535  11.897  0.5291 -0.6011 -0.1346
 5916TIP3    H139163   4.286   1.558  11.900  0.0041  1.6500  0.8447
 5916TIP3    H239164   4.149   1.616  11.868 -1.0257 -2.0104 -1.9769
 5917TIP3   OH239165   1.471   5.474   4.621  0.3038 -0.9040  0.8657
 5917TIP3    H139166   1.503   5.400   4.569 -0.8377 -0.9914  0.2330
 5917TIP3    H239167   1.381   5.487   4.590 -0.0579 -0.2859  2.1126
 5918TIP3   OH239168   3.771   5.860  16.692 -0.4040  0.5966  0.5069
 5918TIP3    H139169   3.836   5.877  16.624 -0.8305  1.3244  0.2694
 5918TIP3    H239170   3.712   5.795  16.653  1.2342 -1.6059  1.4192
 5919TIP3   OH239171   2.887   0.194   0.443  0.6991  0.1220 -0.4408
 5919TIP3    H139172   2.820   0.243   0.394  1.1449 -0.7747 -2.0001
 5919TIP3    H239173   2.840   0.159   0.519 -0.6085 -0.4381 -1.4700
 5920TIP3   OH239174   1.948   0.182   1.535 -0.1785 -0.1208 -0.1285
 5920TIP3    H139175   2.039   0.164   1.510 -0.0753 -0.4586  0.4663
 5920TIP3    H239176   1.917   0.100   1.572 -1.7649 -1.0557 -3.1642
 5921TIP3   OH239177   0.855   2.351   5.714 -0.4985 -0.0450 -0.2437
 5921TIP3    H139178   0.863   2.446   5.716  0.6313 -0.1372  1.0248
 5921TIP3    H239179   0.940   2.320   5.683 -0.5365 -0.6675  0.2505
 5922TIP3   OH239180   3.690   0.320  11.926 -0.0131 -0.5798  0.5141
 5922TIP3    H139181   3.772   0.360  11.896 -0.2904 -1.5926 -1.8008
 5922TIP3    H239182   3.622   0.378  11.893 -0.3278 -1.7454 -1.0170
 5923TIP3   OH239183   6.786   6.721  11.043  0.2173 -0.5805  0.5366
 5923TIP3    H139184   6.849   6.744  10.975  0.8082  1.1075  1.6062
 5923TIP3    H239185   6.784   6.625  11.043  0.6921 -0.6258 -1.3735
 5924TIP3   OH239186   4.818   1.465   3.843 -0.3956  0.3714 -0.3711
 5924TIP3    H139187   4.843   1.533   3.905  1.8203  0.2987 -1.1235
 5924TIP3    H239188   4.826   1.383   3.892 -0.4645  0.4428 -0.2394
 5925TIP3   OH239189   4.959   0.811  13.145 -0.2646  0.6123  0.2372
 5925TIP3    H139190   4.974   0.730  13.096  1.6057  0.8106  0.4230
 5925TIP3    H239191   4.883   0.792  13.200 -2.6831  0.4621 -2.8742
 5926TIP3   OH239192   5.377   0.110   5.008  0.1730 -0.8557 -0.5900
 5926TIP3    H139193   5.356   0.060   4.929  0.0990 -2.7857  0.5694
 5926TIP3    H239194   5.388   0.043   5.076  2.2283  0.6048  0.6072
 5927TIP3   OH239195   0.808   1.014  12.452  0.4126  0.1969 -0.2388
 5927TIP3    H139196   0.886   1.036  12.402  0.3192  1.0198 -0.0401
 5927TIP3    H239197   0.753   0.965  12.391  0.2474  1.2947 -0.9849
 5928TIP3   OH239198   4.941   0.884  14.734  0.0397 -0.4477  0.1119
 5928TIP3    H139199   4.872   0.894  14.669 -1.2117  0.2641  1.4741
 5928TIP3    H239200   4.936   0.793  14.762 -1.0668 -0.1533  0.9278
 5929TIP3   OH239201   5.199   2.637  15.568 -0.6069 -0.5179  0.2510
 5929TIP3    H139202   5.233   2.670  15.485 -1.4772 -1.4038 -0.4836
 5929TIP3    H239203   5.262   2.570  15.595 -0.6238 -0.6355  0.0008
 5930TIP3   OH239204   5.217   6.170   0.932  0.1929 -0.1448 -0.3181
 5930TIP3    H139205   5.289   6.120   0.970 -0.1906  0.1207  0.7773
 5930TIP3    H239206   5.259   6.244   0.889  0.5405  0.3700  0.8867
 5931TIP3   OH239207   2.467   5.664   4.217  0.6104  0.3091 -0.2515
 5931TIP3    H139208   2.446   5.721   4.143  1.7068 -1.7728 -2.2851
 5931TIP3    H239209   2.535   5.605   4.185 -1.7361 -3.5027  0.9459
 5932TIP3   OH239210   6.088   1.688  15.127 -0.4872 -0.3152  0.0109
 5932TIP3    H139211   6.119   1.724  15.044  1.4818 -0.4394  0.6327
 5932TIP3    H239212   6.065   1.598  15.107  0.6973 -0.5756 -0.2980
 5933TIP3   OH239213   3.434   0.204  11.984  0.1111 -0.1688  0.3434
 5933TIP3    H139214   3.392   0.143  11.923  0.1697 -0.5559  0.6851
 5933TIP3    H239215   3.523   0.215  11.950  0.8349 -1.9962  1.4513
 5934TIP3   OH239216   1.571   0.759  14.654  0.5804  0.5317 -0.9222
 5934TIP3    H139217   1.525   0.678  14.678  0.0294  1.3071  0.8398
 5934TIP3    H239218   1.657   0.750  14.696 -0.2204  1.7025  1.0841
 5935TIP3   OH239219   2.973   5.421   1.461 -0.3320 -0.1613 -0.0032
 5935TIP3    H139220   2.912   5.422   1.387 -0.6243 -0.0755  0.2339
 5935TIP3    H239221   2.975   5.330   1.490 -0.5999 -0.1091  0.1888
 5936TIP3   OH239222   5.906   6.010   1.863 -0.1425 -0.4740 -0.5517
 5936TIP3    H139223   5.865   6.095   1.881 -0.0394 -0.4667 -0.3445
 5936TIP3    H239224   5.981   6.030   1.808  0.7252 -0.2655  0.6809
 5937TIP3   OH239225   2.985   4.533  12.834  0.3009  0.2546 -0.1422
 5937TIP3    H139226   3.023   4.538  12.922  1.9927  1.0843 -0.8692
 5937TIP3    H239227   3.059   4.513  12.777 -0.6464  0.3652 -1.4594
 5938TIP3   OH239228   1.474   3.610   0.425 -0.1208 -0.7344 -0.3123
 5938TIP3    H139229   1.404   3.617   0.359 -0.1609  0.0805 -0.1889
 5938TIP3    H239230   1.554   3.597   0.374 -0.4271 -2.2530 -0.4337
 5939TIP3   OH239231   3.533   1.073  13.998 -0.1641  0.1199  0.4691
 5939TIP3    H139232   3.528   1.117  13.913 -2.5624  1.6171  1.2819
 5939TIP3    H239233   3.605   1.011  13.988 -0.3306  0.2293 -2.6503
 5940TIP3   OH239234   3.562   5.210   5.875 -0.0732  0.3088 -0.5421
 5940TIP3    H139235   3.642   5.195   5.825  0.0994  2.9641 -1.2102
 5940TIP3    H239236   3.561   5.140   5.941  1.3077 -1.4326 -2.2508
 5941TIP3   OH239237   2.467   0.244  13.049 -0.2350 -0.1765 -0.1745
 5941TIP3    H139238   2.541   0.285  13.093 -1.2837  2.0705 -0.3280
 5941TIP3    H239239   2.433   0.181  13.112 -1.3046  2.4727  2.1092
 5942TIP3   OH239240   3.092   2.472  14.767  0.1468 -0.5755  0.9540
 5942TIP3    H139241   3.002   2.444  14.787 -0.4624  1.1802  0.8788
 5942TIP3    H239242   3.086   2.567  14.759  1.8732 -0.4985  0.0973
 5943TIP3   OH239243   1.187   6.189  17.003 -0.5013  0.0846  0.1695
 5943TIP3    H139244   1.256   6.245  16.967  0.7290 -0.8547  0.9866
 5943TIP3    H239245   1.122   6.250  17.036  0.5724  1.0399  0.5982
 5944TIP3   OH239246   1.798   5.380   4.258  0.1050  0.2146  0.1212
 5944TIP3    H139247   1.844   5.399   4.176 -1.3222  1.4607 -0.4413
 5944TIP3    H239248   1.861   5.401   4.326  0.6205  1.2000 -0.6338
 5945TIP3   OH239249   6.736   0.152  17.082 -0.5947  0.0271  0.5201
 5945TIP3    H139250   6.825   0.117  17.083 -0.7217 -0.3300 -0.0463
 5945TIP3    H239251   6.681   0.078  17.055 -0.9779  0.4307  0.1740
 5946TIP3   OH239252   4.799   3.075   0.836  0.2665 -0.0644 -0.1772
 5946TIP3    H139253   4.720   3.122   0.861  0.2191 -0.0055 -0.4355
 5946TIP3    H239254   4.869   3.140   0.842 -0.3176  1.2735 -4.4150
 5947TIP3   OH239255   2.329   5.020  12.717 -0.2441  0.2893 -0.3500
 5947TIP3    H139256   2.253   4.964  12.705 -1.0685  0.9614  1.3197
 5947TIP3    H239257   2.303   5.105  12.681 -0.6704  0.7762  1.0409
 5948TIP3   OH239258   5.870   4.695   0.709 -0.8260  0.3980  0.8812
 5948TIP3    H139259   5.902   4.674   0.796 -0.0759 -1.7359  0.1682
 5948TIP3    H239260   5.949   4.712   0.657 -1.1090 -0.2977  0.1890
 5949TIP3   OH239261   0.388   6.594   1.946 -0.4915 -0.1509 -0.3244
 5949TIP3    H139262   0.473   6.613   1.906  0.9975 -1.4689  1.9290
 5949TIP3    H239263   0.334   6.563   1.874  1.5413 -1.0414 -1.5724
 5950TIP3   OH239264   2.171   0.687  15.068  0.2540  0.5006  0.6137
 5950TIP3    H139265   2.178   0.595  15.091 -1.6544  0.2554  0.3554
 5950TIP3    H239266   2.214   0.694  14.983  2.0386  0.2536  1.4380
 5951TIP3   OH239267   6.064   5.965   4.300  0.4072 -0.7421 -0.0823
 5951TIP3    H139268   6.096   6.053   4.280 -0.4560 -0.6556 -1.1497
 5951TIP3    H239269   6.143   5.913   4.315  0.9588 -0.0518 -0.5870
 5952TIP3   OH239270   3.392   1.406  13.915 -0.1854  0.3508 -0.4978
 5952TIP3    H139271   3.421   1.497  13.904 -0.1846  0.4885  0.5652
 5952TIP3    H239272   3.317   1.411  13.974 -0.1534 -0.3406 -0.3849
 5953TIP3   OH239273   5.514   5.141  13.531 -0.0251 -0.5555 -0.0898
 5953TIP3    H139274   5.583   5.076  13.516 -0.5117 -0.9624 -0.6090
 5953TIP3    H239275   5.556   5.225  13.514  0.5266 -0.7551  0.2782
 5954TIP3   OH239276   0.370   0.640   0.315  0.1779 -0.3589  0.2653
 5954TIP3    H139277   0.431   0.713   0.322 -1.0176  0.7640 -0.5915
 5954TIP3    H239278   0.425   0.563   0.303  1.4922  0.2893  1.8602
 5955TIP3   OH239279   1.921   6.105   2.080  0.1965 -0.5043  0.2804
 5955TIP3    H139280   1.834   6.066   2.085  0.3325 -0.6744  2.4453
 5955TIP3    H239281   1.962   6.082   2.163  1.2230  2.0791  0.5966
 5956TIP3   OH239282   6.291   2.972  14.344  0.0627  0.2346  0.0176
 5956TIP3    H139283   6.380   2.956  14.313 -0.8383 -0.9714 -2.1747
 5956TIP3    H239284   6.249   2.886  14.344 -1.5320  0.9680 -0.4428
 5957TIP3   OH239285   5.492   0.717   4.380  0.0638 -0.2430 -0.3363
 5957TIP3    H139286   5.500   0.783   4.311  0.5862  0.8054  0.7116
 5957TIP3    H239287   5.409   0.737   4.423  0.6457  0.2892  0.5515
 5958TIP3   OH239288   1.308   1.961  11.361  0.1873  0.1676  0.0600
 5958TIP3    H139289   1.336   1.904  11.432  1.2288 -1.6614 -1.7032
 5958TIP3    H239290   1.333   1.914  11.281 -3.5698  0.6570 -1.6405
 5959TIP3   OH239291   5.851   1.130   3.372 -0.2683 -0.0728 -0.4036
 5959TIP3    H139292   5.925   1.185   3.396 -0.5504 -0.7991  2.4641
 5959TIP3    H239293   5.833   1.153   3.281  1.0626  2.8547 -0.0469
 5960TIP3   OH239294   4.067   3.443  16.176  0.4066 -0.2148  0.2369
 5960TIP3    H139295   4.073   3.539  16.171 -0.3453 -0.2086 -1.7951
 5960TIP3    H239296   4.157   3.414  16.189  0.5918  0.7578  1.3596
 5961TIP3   OH239297   0.956   3.281  16.481 -0.4612 -0.1830 -0.1493
 5961TIP3    H139298   0.992   3.368  16.465 -0.9319  0.0358 -0.0564
 5961TIP3    H239299   0.868   3.298  16.515 -0.4913 -0.6918  0.0353
 5962TIP3   OH239300   2.863   4.558   5.537 -0.1281  0.0758 -0.1136
 5962TIP3    H139301   2.892   4.647   5.517 -1.2673  0.4872  0.0303
 5962TIP3    H239302   2.793   4.568   5.601 -0.4481 -0.9094 -0.2855
 5963TIP3   OH239303   4.170   3.773  15.284  0.4692 -0.5560 -0.1169
 5963TIP3    H139304   4.131   3.804  15.202  1.9179 -2.1298 -1.4748
 5963TIP3    H239305   4.264   3.787  15.272  0.7863 -1.7050  0.8533
 5964TIP3   OH239306   4.035   4.368   4.790  0.2960  0.2776 -0.2344
 5964TIP3    H139307   3.971   4.400   4.727  2.0025 -2.0678 -3.4985
 5964TIP3    H239308   4.003   4.281   4.813  0.4261  0.5714  1.0922
 5965TIP3   OH239309   0.179   2.818  14.578 -0.3272 -0.1539  0.0271
 5965TIP3    H139310   0.256   2.840  14.631 -0.9253 -1.5517  1.5761
 5965TIP3    H239311   0.148   2.902  14.544  2.8413  0.3099 -2.1185
 5966TIP3   OH239312   0.158   3.751   2.215  0.0658 -0.2469 -0.1103
 5966TIP3    H139313   0.251   3.733   2.229  0.2732  0.7379 -0.1611
 5966TIP3    H239314   0.116   3.665   2.220  1.1041 -0.8462 -1.1789
 5967TIP3   OH239315   5.447   0.055  11.036 -0.0526  0.7498  0.0051
 5967TIP3    H139316   5.362   0.054  11.080 -0.3699 -1.1440 -0.5614
 5967TIP3    H239317   5.429   0.024  10.948  1.2703 -0.0414 -0.0126
 5968TIP3   OH239318   2.271   6.647   1.964 -0.0873 -0.0088  0.1328
 5968TIP3    H139319   2.243   6.557   1.985 -0.0901 -0.2407 -0.8136
 5968TIP3    H239320   2.366   6.643   1.966 -0.0871 -0.0395  0.0661
 5969TIP3   OH239321   6.770   2.237   4.580  0.1987  0.3245 -0.3519
 5969TIP3    H139322   6.754   2.274   4.493  1.8923 -0.3397 -0.9870
 5969TIP3    H239323   6.813   2.153   4.563 -1.0685 -0.6877  1.1191
 5970TIP3   OH239324   4.481   6.456  15.373  0.0213  0.0101  0.6697
 5970TIP3    H139325   4.515   6.431  15.287  0.9181 -0.7450  1.2229
 5970TIP3    H239326   4.512   6.545  15.386 -1.7666  0.8716 -0.5984
 5971TIP3   OH239327   1.277   3.657  11.243 -0.1875 -0.4534  0.2658
 5971TIP3    H139328   1.368   3.679  11.262 -0.0771 -1.9323  1.7339
 5971TIP3    H239329   1.227   3.732  11.275  0.4383 -0.1812  0.6278
 5972TIP3   OH239330   1.814   2.140  15.861  0.2598 -0.3675  0.0143
 5972TIP3    H139331   1.741   2.167  15.806  1.1323 -0.4773 -1.2532
 5972TIP3    H239332   1.775   2.086  15.930 -1.0412  1.0464  0.4193
 5973TIP3   OH239333   4.427   0.096   3.102  0.2747  0.1097  0.3594
 5973TIP3    H139334   4.487   0.054   3.040  0.3281  0.0909  0.4250
 5973TIP3    H239335   4.362   0.028   3.122  0.2414  0.1246  0.3020
 5974TIP3   OH239336   2.324   5.717  16.841  0.4188  0.2704 -0.3444
 5974TIP3    H139337   2.308   5.810  16.830 -0.8480  0.1417  0.2337
 5974TIP3    H239338   2.333   5.705  16.936  1.1865 -0.1150 -0.4533
 5975TIP3   OH239339   3.740   4.516  15.437  0.3997 -0.2266  0.2777
 5975TIP3    H139340   3.670   4.577  15.418 -0.8300 -0.8951  2.3507
 5975TIP3    H239341   3.780   4.549  15.517  0.7258 -1.2816  0.5696
 5976TIP3   OH239342   4.486   4.616  15.168 -0.0444 -0.2767  0.2584
 5976TIP3    H139343   4.545   4.555  15.125  0.5114  1.6116 -1.8051
 5976TIP3    H239344   4.413   4.561  15.199 -0.5190 -1.8197 -3.1554
 5977TIP3   OH239345   0.935   3.057  13.274  0.4897 -0.3315 -0.1552
 5977TIP3    H139346   0.880   3.120  13.320  0.6053 -0.1189 -0.3103
 5977TIP3    H239347   0.988   3.017  13.344  2.1653  1.4617 -0.3085
 5978TIP3   OH239348   6.249   4.443   1.921  0.0686  0.5836  0.2100
 5978TIP3    H139349   6.279   4.520   1.873  1.1873 -0.6806 -1.2398
 5978TIP3    H239350   6.212   4.386   1.853 -0.4776 -0.2875  1.2074
 5979TIP3   OH239351   5.111   4.426   4.099 -0.0624 -0.1677  0.0327
 5979TIP3    H139352   5.146   4.513   4.118  0.2012 -0.5712  1.5307
 5979TIP3    H239353   5.091   4.389   4.185 -0.1832 -1.5911 -0.5807
 5980TIP3   OH239354   3.935   1.388   4.054 -0.1672  0.3816  0.0007
 5980TIP3    H139355   3.926   1.320   3.987 -0.5654 -0.0858  0.5188
 5980TIP3    H239356   3.917   1.343   4.137  1.1737  0.7670  0.5148
 5981TIP3   OH239357   5.627   6.433   5.252 -0.4166  0.5919 -0.5841
 5981TIP3    H139358   5.712   6.399   5.224 -0.6018  1.6109 -2.5113
 5981TIP3    H239359   5.642   6.527   5.265 -1.1134  0.6739 -0.3211
 5982TIP3   OH239360   1.792   2.429   5.129 -0.6881  0.0032  0.3311
 5982TIP3    H139361   1.778   2.348   5.177  0.4841 -1.6366 -1.9421
 5982TIP3    H239362   1.733   2.423   5.054  1.1723  0.0266 -1.2041
 5983TIP3   OH239363   5.154   1.266   0.756 -0.3355  0.3943 -0.4990
 5983TIP3    H139364   5.186   1.356   0.744 -1.7473  0.6994 -2.4684
 5983TIP3    H239365   5.201   1.215   0.691  0.3772 -0.3117  0.5380
 5984TIP3   OH239366   0.156   0.573  12.943 -0.6915 -0.0210 -0.1755
 5984TIP3    H139367   0.190   0.617  12.865 -0.8610  0.9713  0.2937
 5984TIP3    H239368   0.234   0.538  12.985 -0.3626  1.0936  0.1907
 5985TIP3   OH239369   6.290   2.540  15.238 -0.1921  0.5762 -0.2781
 5985TIP3    H139370   6.200   2.529  15.271 -0.7243  1.2462 -1.4643
 5985TIP3    H239371   6.307   2.634  15.245  0.4771  0.4309  0.0781
 5986TIP3   OH239372   3.952   5.971   2.922  0.0105  0.0520 -0.0013
 5986TIP3    H139373   3.942   6.024   3.001 -0.4986 -1.6979  1.1595
 5986TIP3    H239374   3.934   6.031   2.850  0.6375  1.7319  1.1860
 5987TIP3   OH239375   4.846   2.282   2.236  0.1044 -0.2713  0.3119
 5987TIP3    H139376   4.765   2.270   2.187 -1.3872  2.5920  1.8329
 5987TIP3    H239377   4.913   2.291   2.169 -1.5822  1.7848 -1.2460
 5988TIP3   OH239378   0.659   0.014   4.693  0.4404 -0.0113  0.0371
 5988TIP3    H139379   0.689  -0.077   4.694  1.3175  0.2710 -0.1834
 5988TIP3    H239380   0.565   0.007   4.708  0.0818 -1.1321 -2.1591
 5989TIP3   OH239381   1.710   1.016   3.275 -0.2104  0.4275 -0.1223
 5989TIP3    H139382   1.750   0.934   3.246 -0.4448  0.4300 -0.4498
 5989TIP3    H239383   1.770   1.049   3.343  0.1486  0.2431 -0.3478
 5990TIP3   OH239384   1.488   6.661   4.450  0.3840  0.3669  0.2445
 5990TIP3    H139385   1.395   6.675   4.466  0.0363  0.0305 -1.3391
 5990TIP3    H239386   1.530   6.741   4.482 -0.4229  0.4763  1.0759
 5991TIP3   OH239387   0.657   2.325  16.586 -0.0153  0.0775 -0.0096
 5991TIP3    H139388   0.579   2.287  16.545 -0.2695  0.2068  0.3495
 5991TIP3    H239389   0.727   2.313  16.521 -0.0157 -1.2974  0.2191
 5992TIP3   OH239390   5.093   6.744  12.642  0.0351 -0.7407 -0.4752
 5992TIP3    H139391   5.181   6.724  12.675 -0.4892  0.8265  2.1999
 5992TIP3    H239392   5.034   6.700  12.703 -1.0113  2.5601  1.1788
 5993TIP3   OH239393   4.987   0.630   0.979 -0.9148  0.4537 -0.7550
 5993TIP3    H139394   4.978   0.536   0.959  0.6544  0.0810  0.1080
 5993TIP3    H239395   5.080   0.641   1.001 -1.8312  1.2991  3.6463
 5994TIP3   OH239396   0.054   1.870  16.439 -0.2776 -0.2056  0.0364
 5994TIP3    H139397   0.150   1.865  16.447 -0.3453 -0.2438  0.9691
 5994TIP3    H239398   0.029   1.787  16.399 -0.1092 -1.2601  1.9849
 5995TIP3   OH239399   6.776   6.058  11.989 -0.2119  0.0427 -0.2133
 5995TIP3    H139400   6.696   6.109  11.975 -0.4807 -0.1345  0.6103
 5995TIP3    H239401   6.752   5.969  11.961 -1.1510 -0.6057  2.2848
 5996TIP3   OH239402   6.730   2.804   7.130 -0.0092  0.0247 -0.0199
 5996TIP3    H139403   6.816   2.819   7.090 -0.5778  1.3808 -0.7928
 5996TIP3    H239404   6.679   2.881   7.107 -1.4600 -0.7695  0.4141
 5997TIP3   OH239405   3.873   0.821  13.623 -0.4045  0.7067  0.3024
 5997TIP3    H139406   3.880   0.727  13.638  2.4350  0.7920  0.0193
 5997TIP3    H239407   3.883   0.831  13.528  2.8907  1.4001  0.5971
 5998TIP3   OH239408   3.401   4.577  17.121  0.3884 -0.9047 -0.2440
 5998TIP3    H139409   3.352   4.501  17.089  0.9803 -1.5627  0.3830
 5998TIP3    H239410   3.467   4.541  17.180  0.7821  0.0852 -0.0482
 5999TIP3   OH239411   4.551   2.220   5.012 -0.1440 -0.2989  0.3235
 5999TIP3    H139412   4.582   2.307   5.035 -0.5206  0.2307 -1.0978
 5999TIP3    H239413   4.631   2.171   4.992  0.1511 -0.6170  2.1095
 6000TIP3   OH239414   1.010   2.860   3.108  0.2093 -0.2973 -0.3850
 6000TIP3    H139415   0.954   2.807   3.164 -0.8163 -0.9721 -1.9779
 6000TIP3    H239416   1.044   2.928   3.166 -1.8561 -0.1567  0.7545
 6001TIP3   OH239417   3.680   2.003   4.204 -0.2608 -0.5305 -0.5896
 6001TIP3    H139418   3.729   1.934   4.160  0.6516  0.1334 -0.6304
 6001TIP3    H239419   3.694   1.986   4.297 -1.0052 -1.0809 -0.5674
 6002TIP3   OH239420   2.897   0.779  16.619 -0.8853  0.0061 -0.2096
 6002TIP3    H139421   2.920   0.776  16.712  0.3795  0.4602 -0.4889
 6002TIP3    H239422   2.981   0.774  16.574 -1.5558 -1.7350 -1.3871
 6003TIP3   OH239423   6.004   2.764   4.180 -0.2734  0.8110  0.3855
 6003TIP3    H139424   6.009   2.680   4.225  1.6782  0.2113 -0.8352
 6003TIP3    H239425   6.047   2.826   4.239  0.0080  0.5451  0.4632
 6004TIP3   OH239426   1.127   4.497  13.776 -0.3101  0.3506  0.7548
 6004TIP3    H139427   1.146   4.524  13.865  1.7728  2.1825 -0.1517
 6004TIP3    H239428   1.206   4.450  13.748 -1.2839 -0.9907  0.1202
 6005TIP3   OH239429   6.654   5.787   3.128 -0.3648  0.5071  0.0478
 6005TIP3    H139430   6.578   5.845   3.123 -0.0523  1.0029  0.8644
 6005TIP3    H239431   6.617   5.702   3.153 -1.0359 -0.1467 -2.7228
 6006TIP3   OH239432   1.832   4.213   0.340  0.5035 -0.7367 -0.0955
 6006TIP3    H139433   1.784   4.151   0.394  2.3584 -1.6622  0.5719
 6006TIP3    H239434   1.903   4.162   0.302  0.9480  0.5654 -1.0692
 6007TIP3   OH239435   3.023   4.074  15.353  0.0071 -0.2279 -0.2245
 6007TIP3    H139436   3.005   4.138  15.284  0.9534 -0.7762 -1.0173
 6007TIP3    H239437   3.108   4.099  15.388 -0.4075 -0.0370  0.6705
 6008TIP3   OH239438   6.513   3.966   1.755 -0.1022  0.3395  0.7209
 6008TIP3    H139439   6.554   3.899   1.700 -1.9610 -0.7870  0.6109
 6008TIP3    H239440   6.459   4.016   1.693  0.8111  1.5763  0.9057
 6009TIP3   OH239441   4.857   3.070  14.890  0.1907  0.1807  0.2487
 6009TIP3    H139442   4.864   3.166  14.890  2.9056  0.0489  0.6285
 6009TIP3    H239443   4.771   3.053  14.852 -0.6953  2.7751  0.8644
 6010TIP3   OH239444   3.757   5.251   1.804 -0.1985  0.1995  0.1640
 6010TIP3    H139445   3.836   5.291   1.840  0.0322 -0.5941  0.5617
 6010TIP3    H239446   3.760   5.271   1.710  2.3439 -2.7704 -0.5389
 6011TIP3   OH239447   4.368   5.952   0.205 -0.4136 -0.0700 -0.3697
 6011TIP3    H139448   4.448   6.002   0.191  0.0854 -0.7336  0.0117
 6011TIP3    H239449   4.348   5.914   0.120 -0.6309  0.5419 -0.5916
 6012TIP3   OH239450   1.899   3.785   2.661  0.5530  0.3931 -0.0269
 6012TIP3    H139451   1.904   3.872   2.700  1.0598 -0.3111  1.5488
 6012TIP3    H239452   1.976   3.739   2.694 -0.1390 -0.9234 -0.1724
 6013TIP3   OH239453   3.766   0.303  14.511 -0.0893 -0.1730  0.0959
 6013TIP3    H139454   3.709   0.358  14.564 -0.9961 -1.4882  0.5393
 6013TIP3    H239455   3.825   0.262  14.574  0.2558 -0.0926 -0.1715
 6014TIP3   OH239456   4.951   2.464   4.853 -0.4903  0.0600  0.1328
 6014TIP3    H139457   4.998   2.436   4.932 -0.6822 -1.6690 -0.3196
 6014TIP3    H239458   5.010   2.527   4.811  1.3522 -1.8222 -0.2687
 6015TIP3   OH239459   5.287   1.935   0.225 -0.2108  0.1116  0.2460
 6015TIP3    H139460   5.310   2.023   0.256  0.3628 -0.1278  0.4996
 6015TIP3    H239461   5.209   1.949   0.171  0.4623  0.9273 -0.5470
 6016TIP3   OH239462   5.305   3.404   4.391 -0.0297 -0.1674  0.4189
 6016TIP3    H139463   5.373   3.472   4.384  1.1768 -1.4592 -1.0089
 6016TIP3    H239464   5.231   3.449   4.432  1.5125  1.4129  1.6157
 6017TIP3   OH239465   4.875   4.137  15.963 -0.0814 -0.6200 -0.4708
 6017TIP3    H139466   4.947   4.078  15.941 -2.2880 -3.7315  0.0686
 6017TIP3    H239467   4.915   4.204  16.019  2.5446 -1.6082 -1.0324
 6018TIP3   OH239468   5.139   1.543  12.520  0.0405  0.6755  0.1723
 6018TIP3    H139469   5.214   1.523  12.464  0.9843  2.3505  0.7706
 6018TIP3    H239470   5.160   1.628  12.559 -1.0322  0.0141  2.3323
 6019TIP3   OH239471   4.229   5.636  12.406 -0.7306  0.5434  0.0231
 6019TIP3    H139472   4.163   5.694  12.368 -0.5035 -0.4189 -1.9771
 6019TIP3    H239473   4.310   5.659  12.360  0.0487  0.7439  1.4410
 6020TIP3   OH239474   4.034   4.835   0.918 -0.8834 -0.1215 -0.2749
 6020TIP3    H139475   3.986   4.854   0.999 -1.1711  0.6775 -0.6207
 6020TIP3    H239476   4.126   4.852   0.940 -1.1415  1.9717 -0.6148
 6021TIP3   OH239477   3.237   2.326   5.466  0.0606  0.1581  0.3512
 6021TIP3    H139478   3.199   2.241   5.443 -0.1880  0.0014  1.3013
 6021TIP3    H239479   3.252   2.369   5.382  3.3417 -2.1159 -0.4261
 6022TIP3   OH239480   4.045   0.963  11.495 -0.4411  0.0806  0.2580
 6022TIP3    H139481   4.017   0.976  11.585 -1.9176 -1.9819  0.1769
 6022TIP3    H239482   3.969   0.924  11.452  1.0666 -1.4141 -1.1882
 6023TIP3   OH239483   2.309   0.499   4.598 -0.3640  0.1324 -0.2019
 6023TIP3    H139484   2.357   0.520   4.678  1.4680 -1.2403 -0.8791
 6023TIP3    H239485   2.259   0.578   4.579  2.6607  2.2255 -0.1879
 6024TIP3   OH239486   1.465   0.265   2.895  0.2456  0.0795  0.1593
 6024TIP3    H139487   1.512   0.184   2.876  1.1230  1.2004 -3.3751
 6024TIP3    H239488   1.521   0.312   2.956 -0.1637 -1.7935  2.0731
 6025TIP3   OH239489   0.952   4.422  11.111 -0.2247  0.1027  0.0961
 6025TIP3    H139490   1.018   4.418  11.042  0.0287 -1.2745  0.3988
 6025TIP3    H239491   0.872   4.451  11.066 -0.0393 -0.6812 -0.7522
 6026TIP3   OH239492   3.059   4.704   5.315  0.3091 -0.9761 -0.0735
 6026TIP3    H139493   3.027   4.615   5.300  0.6894 -1.2284  0.5668
 6026TIP3    H239494   3.074   4.739   5.227  1.0375 -1.8671 -0.3199
 6027TIP3   OH239495   6.488   3.691   6.074  0.2698  0.6587  0.5008
 6027TIP3    H139496   6.459   3.694   5.983 -0.4424  1.8805  0.7425
 6027TIP3    H239497   6.509   3.782   6.095  1.1112  0.2797  1.3495
 6028TIP3   OH239498   1.715   5.033  16.768 -0.0659 -0.2710 -0.2624
 6028TIP3    H139499   1.737   5.126  16.774  3.4800 -0.6821 -3.1457
 6028TIP3    H239500   1.655   5.027  16.693 -1.8732 -0.2370  1.1040
 6029TIP3   OH239501   1.677   4.248  10.215 -0.0537 -0.7309  0.1357
 6029TIP3    H139502   1.631   4.248  10.131  1.0647  1.0193 -0.5317
 6029TIP3    H239503   1.613   4.283  10.277 -0.3131 -0.3376 -0.3459
 6030TIP3   OH239504   6.042   4.665   2.775  0.3651  0.1974 -0.2756
 6030TIP3    H139505   6.006   4.726   2.710  1.0783 -1.2223 -2.1144
 6030TIP3    H239506   6.137   4.673   2.765  0.4819 -0.2621  0.4009
 6031TIP3   OH239507   2.289   1.345  10.821  0.0645 -0.3671 -0.0944
 6031TIP3    H139508   2.340   1.350  10.741  0.1827  0.6176  0.0221
 6031TIP3    H239509   2.231   1.422  10.817 -0.1187 -0.4605  0.6296
 6032TIP3   OH239510   1.769   3.934  12.256 -0.2035 -0.4646  0.0338
 6032TIP3    H139511   1.844   3.910  12.311 -0.3038 -0.2307  0.2742
 6032TIP3    H239512   1.695   3.889  12.296  0.0046 -1.6892 -0.9169
 6033TIP3   OH239513   0.281   4.791  12.235 -0.5872 -0.1280 -0.0380
 6033TIP3    H139514   0.327   4.737  12.299 -0.1302 -0.3693 -0.5590
 6033TIP3    H239515   0.336   4.786  12.156 -1.2790 -0.0552 -0.5291
 6034TIP3   OH239516   0.899   2.285  14.235  0.1998 -0.4296  0.2001
 6034TIP3    H139517   0.990   2.304  14.214  0.5450 -2.0987  0.0575
 6034TIP3    H239518   0.855   2.371  14.232  1.7901  0.4254  0.5182
 6035TIP3   OH239519   3.791   4.520  11.648 -0.0295 -0.4848 -0.5038
 6035TIP3    H139520   3.811   4.606  11.684  1.6977 -0.1680 -2.0964
 6035TIP3    H239521   3.696   4.510  11.660 -0.1925  1.4362  0.0792
 6036TIP3   OH239522   0.104   0.174  15.075  0.0137 -0.3878 -0.1444
 6036TIP3    H139523   0.066   0.233  15.140  0.4313 -1.6365  1.2953
 6036TIP3    H239524   0.092   0.086  15.112 -1.4293 -1.3558 -2.6394
 6037TIP3   OH239525   4.573   2.887   1.753  0.1883  0.2265  0.1526
 6037TIP3    H139526   4.654   2.917   1.711 -0.7450  1.1674 -1.0268
 6037TIP3    H239527   4.586   2.908   1.846  2.1275 -1.5604  0.3816
 6038TIP3   OH239528   6.421   0.334  12.856  0.3935  0.7034  0.1536
 6038TIP3    H139529   6.508   0.293  12.858  0.0393 -0.0268  0.7328
 6038TIP3    H239530   6.396   0.341  12.948 -1.1121 -1.1293 -0.0714
 6039TIP3   OH239531   2.211   2.386  12.716  0.5274 -0.5253  0.2027
 6039TIP3    H139532   2.254   2.394  12.631  0.3126 -0.6200  0.0869
 6039TIP3    H239533   2.226   2.471  12.758  0.4005 -0.3842 -0.0361
 6040TIP3   OH239534   2.583   1.579   1.422 -0.0467  0.1067  0.4172
 6040TIP3    H139535   2.649   1.644   1.396 -0.8624  1.0093  0.5172
 6040TIP3    H239536   2.513   1.589   1.359  0.7587 -2.3409 -0.9876
 6041TIP3   OH239537   0.539   0.416  16.943  0.3549 -0.5644  0.2823
 6041TIP3    H139538   0.612   0.477  16.955 -0.2407  0.3562 -0.5797
 6041TIP3    H239539   0.469   0.453  16.996  0.4226 -1.3066  0.9025
 6042TIP3   OH239540   0.450   2.714  14.097 -0.5757 -0.4271  0.3660
 6042TIP3    H139541   0.399   2.783  14.056  0.6018  0.5580  0.5046
 6042TIP3    H239542   0.483   2.754  14.178  1.6286 -0.5035 -0.4388
 6043TIP3   OH239543   6.473   5.458  16.061  0.0462  0.1127 -0.3068
 6043TIP3    H139544   6.535   5.389  16.040 -0.6834 -0.8122  0.4405
 6043TIP3    H239545   6.401   5.412  16.105 -2.1800  0.7920 -2.9621
 6044TIP3   OH239546   4.980   4.039  14.659 -0.1571  0.0090  0.8119
 6044TIP3    H139547   5.005   3.987  14.583  1.2754  2.5728 -0.6206
 6044TIP3    H239548   4.951   3.975  14.723  1.5078 -2.5417 -0.7770
 6045TIP3   OH239549   5.702   5.291  15.962 -0.2858 -0.1698 -0.6637
 6045TIP3    H139550   5.657   5.208  15.946 -0.7732 -0.1027  0.2858
 6045TIP3    H239551   5.655   5.330  16.035  1.1340  0.0539  0.1712
 6046TIP3   OH239552   2.791   2.442  10.978 -0.2407  0.1595 -0.1865
 6046TIP3    H139553   2.731   2.517  10.985 -0.6489 -0.0597 -1.0447
 6046TIP3    H239554   2.869   2.478  10.935 -0.3862  0.1259 -0.4837
 6047TIP3   OH239555   2.403   1.146  16.306  0.0082 -0.2948  0.2093
 6047TIP3    H139556   2.415   1.234  16.270 -3.0073  0.1365  0.0423
 6047TIP3    H239557   2.492   1.113  16.318  1.2069  1.7839 -2.0865
 6048TIP3   OH239558   2.027   3.989  13.748 -0.2717  0.5217 -0.3885
 6048TIP3    H139559   2.006   4.082  13.754 -0.2661  0.4894  0.2879
 6048TIP3    H239560   2.106   3.985  13.695  0.2563  0.9914  0.3367
 6049TIP3   OH239561   1.740   2.593  13.832 -0.5628 -0.3441  0.5026
 6049TIP3    H139562   1.799   2.649  13.782 -1.4553 -0.3961 -0.6291
 6049TIP3    H239563   1.694   2.541  13.767 -1.4346 -0.7292  1.3997
 6050TIP3   OH239564   1.599   1.668   3.277  0.0145 -0.3073 -0.0316
 6050TIP3    H139565   1.505   1.653   3.286  0.2738 -3.4933 -1.1113
 6050TIP3    H239566   1.637   1.632   3.357  0.3876 -0.2552 -0.1800
 6051TIP3   OH239567   3.394   5.083  15.449  0.6779  0.2846  0.1527
 6051TIP3    H139568   3.432   5.096  15.362  1.4374  0.9758  0.5663
 6051TIP3    H239569   3.466   5.102  15.509 -0.7923  3.8388  1.0528
 6052TIP3   OH239570   2.418   1.245   1.092  0.1977  0.7285 -0.3423
 6052TIP3    H139571   2.488   1.301   1.127  0.7594  0.5057 -1.0659
 6052TIP3    H239572   2.457   1.158   1.088 -0.5728  0.3398  0.4836
 6053TIP3   OH239573   4.232   2.896  15.248 -0.3897 -0.1414 -0.2015
 6053TIP3    H139574   4.204   2.805  15.259 -0.5142  0.0656  1.5351
 6053TIP3    H239575   4.233   2.910  15.153 -0.1103 -2.0210 -0.5147
 6054TIP3   OH239576   2.568   6.057   5.880 -0.5873 -0.0450  0.2208
 6054TIP3    H139577   2.547   6.145   5.849  0.4094 -0.0499 -0.5259
 6054TIP3    H239578   2.592   6.069   5.972  1.5851  0.8273 -0.4010
 6055TIP3   OH239579   5.081   4.027   5.311 -0.1893  0.0673  0.7520
 6055TIP3    H139580   5.160   4.074   5.339 -0.8304  1.1304  0.8125
 6055TIP3    H239581   5.042   3.996   5.392  0.2112 -0.5495  0.7151
 6056TIP3   OH239582   4.008   3.243  12.969 -0.2750  0.0760 -0.2610
 6056TIP3    H139583   4.080   3.304  12.948 -0.3480  0.2642  0.0407
 6056TIP3    H239584   4.049   3.157  12.966 -0.3744  0.0500 -1.6467
 6057TIP3   OH239585   1.731   6.411  14.517  0.0618 -0.4565  0.0359
 6057TIP3    H139586   1.666   6.395  14.449  0.6537 -0.0293 -0.6501
 6057TIP3    H239587   1.753   6.324  14.550  0.1735 -0.7235 -0.7210
 6058TIP3   OH239588   1.051   3.034   2.884  0.0968  0.2058  0.1024
 6058TIP3    H139589   1.028   2.990   2.965  1.9330 -1.6397 -0.3160
 6058TIP3    H239590   1.138   3.001   2.861 -1.0012 -0.7033 -3.4836
 6059TIP3   OH239591   5.802   2.967   1.843  0.0080 -0.0628 -0.4490
 6059TIP3    H139592   5.889   2.927   1.847 -0.2787 -0.8295 -1.4720
 6059TIP3    H239593   5.745   2.906   1.891 -0.1097  0.0396 -0.4585
 6060TIP3   OH239594   2.177   3.540  10.982 -0.3180 -0.0065  0.2026
 6060TIP3    H139595   2.191   3.608  11.048 -1.9569  0.8827 -0.2911
 6060TIP3    H239596   2.254   3.545  10.926 -0.2086  1.1612  0.4243
 6061TIP3   OH239597   1.033   4.926   1.987 -0.1901  0.4738 -0.1357
 6061TIP3    H139598   1.125   4.949   2.000  0.0577  0.4162 -1.6202
 6061TIP3    H239599   1.036   4.841   1.944 -0.9657  0.1587  0.4140
 6062TIP3   OH239600   3.411   3.692   1.594 -0.3626 -0.5948  0.4782
 6062TIP3    H139601   3.331   3.733   1.561  0.9180  2.1320  0.5651
 6062TIP3    H239602   3.391   3.673   1.686 -1.3030 -1.0878  0.1857
 6063TIP3   OH239603   5.463   3.128   5.400 -0.4119  0.2332 -0.4547
 6063TIP3    H139604   5.418   3.044   5.410 -0.0047  0.0593 -0.0250
 6063TIP3    H239605   5.519   3.135   5.477  2.0180 -0.6440 -2.0162
 6064TIP3   OH239606   6.495   2.347   3.481 -0.5740 -0.3176  0.4828
 6064TIP3    H139607   6.452   2.268   3.448 -0.5196 -0.3529  0.4962
 6064TIP3    H239608   6.438   2.419   3.454  0.1259 -0.2287 -0.8100
 6065TIP3   OH239609   5.532   6.682   3.775 -0.0463 -0.0633 -0.2867
 6065TIP3    H139610   5.511   6.691   3.682  1.6713 -0.5491 -0.7530
 6065TIP3    H239611   5.627   6.674   3.778  0.2184  2.4744  1.7271
 6066TIP3   OH239612   3.560   1.816  14.412  0.0800 -0.8802  0.0292
 6066TIP3    H139613   3.506   1.769  14.348  2.1958 -0.4994 -2.1631
 6066TIP3    H239614   3.615   1.874  14.359  1.0406  0.3996  2.3159
 6067TIP3   OH239615   2.307   1.442  14.887 -0.0261 -0.0017 -0.2243
 6067TIP3    H139616   2.320   1.491  14.968  2.4676  1.0305 -1.1578
 6067TIP3    H239617   2.376   1.376  14.888  1.0693  1.0358 -2.1604
 6068TIP3   OH239618   6.267   3.995  14.892 -0.5745  0.4979  0.1076
 6068TIP3    H139619   6.312   3.915  14.865  0.3643  1.3925 -1.1533
 6068TIP3    H239620   6.174   3.973  14.889 -0.3279 -0.5310 -0.2601
 6069TIP3   OH239621   4.783   0.893   0.994  0.6665  0.4968 -0.5242
 6069TIP3    H139622   4.869   0.879   1.034  1.0925 -0.3003 -1.6406
 6069TIP3    H239623   4.782   0.986   0.972  0.6498  0.8196  0.7771
 6070TIP3   OH239624   0.766   6.187   5.122  0.4817 -0.1069 -0.4899
 6070TIP3    H139625   0.678   6.197   5.086 -0.2266 -0.9805  0.9108
 6070TIP3    H239626   0.769   6.248   5.196  2.0638  1.9901 -2.1524
 6071TIP3   OH239627   6.419   5.748   1.422 -0.2036  0.1952  0.5317
 6071TIP3    H139628   6.338   5.795   1.441 -1.4639 -2.4870  2.4109
 6071TIP3    H239629   6.413   5.667   1.473  4.3368  0.4966  2.0428
 6072TIP3   OH239630   4.478   3.095  15.409  0.0876 -0.3721  0.1152
 6072TIP3    H139631   4.463   3.047  15.328  0.7809  1.4798 -1.1902
 6072TIP3    H239632   4.391   3.124  15.436 -0.0895 -0.4791 -0.3355
 6073TIP3   OH239633   5.980   3.146  17.158  0.2595 -0.3620 -0.0086
 6073TIP3    H139634   5.983   3.157  17.253 -1.6449 -2.4389  0.3839
 6073TIP3    H239635   6.067   3.116  17.134  1.4535  2.2430  0.6826
 6074TIP3   OH239636   0.112   5.342  16.659 -0.2028  0.5454  0.4160
 6074TIP3    H139637   0.088   5.273  16.721  0.0026  1.9175  2.1033
 6074TIP3    H239638   0.030   5.383  16.635 -0.1066  1.8715  2.1172
 6075TIP3   OH239639   3.941   5.374  16.409 -0.6093  0.0092  0.3485
 6075TIP3    H139640   3.925   5.373  16.503 -0.9875 -1.4437  0.3013
 6075TIP3    H239641   3.856   5.392  16.370 -0.5183  0.2829  0.2749
 6076TIP3   OH239642   6.646   2.251   3.702 -0.2733  0.2673  0.0075
 6076TIP3    H139643   6.617   2.217   3.618  1.4269  1.3580 -1.0730
 6076TIP3    H239644   6.653   2.345   3.689  0.9521  0.3495  1.0761
 6077TIP3   OH239645   2.603   3.182  16.226  0.2942 -0.0996 -0.0881
 6077TIP3    H139646   2.515   3.221  16.224  0.2380 -0.1322  1.0476
 6077TIP3    H239647   2.624   3.176  16.319  1.0151 -1.1895 -0.3027
 6078TIP3   OH239648   0.337   3.465   4.225 -0.0890  0.6657  0.3388
 6078TIP3    H139649   0.380   3.505   4.301  0.5750  1.9423 -0.6546
 6078TIP3    H239650   0.408   3.452   4.162 -0.8299  0.9051 -0.5641
 6079TIP3   OH239651   0.784   4.549   1.588  0.5459  0.4661  0.1472
 6079TIP3    H139652   0.771   4.586   1.676  0.8899  1.4899 -0.2200
 6079TIP3    H239653   0.827   4.619   1.539 -1.2102  0.5599 -1.3541
 6080TIP3   OH239654   1.547   0.139  13.167  0.1541 -0.2837  0.7323
 6080TIP3    H139655   1.584   0.223  13.143 -0.2329 -0.7320 -1.7753
 6080TIP3    H239656   1.479   0.159  13.231 -0.5384  1.4599 -0.4657
 6081TIP3   OH239657   4.024   0.121   5.559  0.0178  0.1204  0.4786
 6081TIP3    H139658   4.103   0.162   5.524 -0.8306  1.6470  0.2388
 6081TIP3    H239659   4.053   0.076   5.638  1.4758 -1.0698 -0.6838
 6082TIP3   OH239660   4.248   2.084  15.186 -0.0596 -0.1431 -0.0019
 6082TIP3    H139661   4.247   2.156  15.249 -0.6724 -1.1601  1.1755
 6082TIP3    H239662   4.286   2.123  15.107  0.6521  1.1796  0.9457
 6083TIP3   OH239663   4.951   3.635   3.811 -0.1000  0.1136 -0.1026
 6083TIP3    H139664   4.973   3.721   3.774 -0.6548 -0.1204 -1.0212
 6083TIP3    H239665   4.896   3.654   3.886 -2.5484  0.5515 -1.8883
 6084TIP3   OH239666   5.859   3.674  14.531 -0.0708 -0.2425 -0.1068
 6084TIP3    H139667   5.795   3.660  14.601  0.1389  1.2223  0.4136
 6084TIP3    H239668   5.944   3.671  14.576  0.0572  0.9161 -0.2258
 6085TIP3   OH239669   4.162   2.667  14.437  0.2250  0.4922 -0.3571
 6085TIP3    H139670   4.068   2.653  14.447  0.1761  0.5699 -0.6820
 6085TIP3    H239671   4.203   2.587  14.470 -0.0274 -0.2143 -1.7067
 6086TIP3   OH239672   3.251   3.709  13.063 -0.1396 -0.6411  0.3968
 6086TIP3    H139673   3.289   3.631  13.104 -0.4719 -0.5539  0.8689
 6086TIP3    H239674   3.202   3.752  13.133  0.6847  0.4186  0.3470
 6087TIP3   OH239675   3.862   2.323  12.279  0.6323 -0.0265  0.0222
 6087TIP3    H139676   3.931   2.269  12.319 -0.7551 -1.1967  0.9237
 6087TIP3    H239677   3.819   2.365  12.353 -0.3791 -0.2435 -0.4313
 6088TIP3   OH239678   2.285   1.378  13.318 -0.5481 -0.4990 -0.0099
 6088TIP3    H139679   2.377   1.352  13.330 -0.7395 -1.1374  0.1438
 6088TIP3    H239680   2.286   1.435  13.241  0.3413  1.6163  1.4959
 6089TIP3   OH239681   1.108   6.306   0.948 -0.7007  0.2106 -0.5484
 6089TIP3    H139682   1.086   6.255   1.026  1.2296  1.3963  0.8284
 6089TIP3    H239683   1.096   6.397   0.974  1.3178  0.6871 -1.1599
 6090TIP3   OH239684   6.615   0.863  16.809  0.3774 -0.2698 -0.6636
 6090TIP3    H139685   6.611   0.833  16.901  0.2378 -1.2971 -0.9870
 6090TIP3    H239686   6.685   0.811  16.770  1.0875  0.8528 -0.9147
 6091TIP3   OH239687   4.562   1.574   4.148  0.0431  0.0434  0.0036
 6091TIP3    H139688   4.529   1.496   4.103 -0.1047 -0.7138  1.3867
 6091TIP3    H239689   4.550   1.555   4.241  0.7605  1.3871  0.3892
 6092TIP3   OH239690   4.753   4.947  14.794  0.0099 -0.8145  0.0317
 6092TIP3    H139691   4.816   4.970  14.725  1.7473 -1.9328  1.1397
 6092TIP3    H239692   4.705   4.873  14.759  0.7152 -1.2261 -0.0837
 6093TIP3   OH239693   2.513   1.732  13.791  0.0682 -0.2841 -0.0831
 6093TIP3    H139694   2.482   1.776  13.712 -2.7540  0.3995  1.2894
 6093TIP3    H239695   2.584   1.787  13.823  0.4484  0.0691 -1.4797
 6094TIP3   OH239696   2.889   2.345   5.624  0.0336  0.2366 -0.2934
 6094TIP3    H139697   2.824   2.413   5.641  1.3732  1.5657 -0.2200
 6094TIP3    H239698   2.959   2.363   5.688  0.8961 -0.5438 -0.9927
 6095TIP3   OH239699   5.896   2.452  11.694  0.5277 -0.5829  0.0170
 6095TIP3    H139700   5.827   2.515  11.674 -0.8328 -1.7771  0.7745
 6095TIP3    H239701   5.915   2.465  11.786  0.1651 -1.3279  0.2049
 6096TIP3   OH239702   5.229   4.712  16.142 -0.4464 -0.0551 -0.2600
 6096TIP3    H139703   5.257   4.792  16.187  1.3648 -0.8901  0.2093
 6096TIP3    H239704   5.278   4.713  16.060  1.2847 -1.6555  0.6618
 6097TIP3   OH239705   5.608   0.794  13.788 -0.1250  0.1405  0.2294
 6097TIP3    H139706   5.542   0.735  13.753  0.6876 -0.5007 -0.2621
 6097TIP3    H239707   5.640   0.843  13.711  2.5583 -2.1455 -0.2793
 6098TIP3   OH239708   6.546   6.244  14.364 -0.8464  0.2204 -0.0142
 6098TIP3    H139709   6.618   6.257  14.302 -2.5088 -0.9737 -2.3318
 6098TIP3    H239710   6.552   6.152  14.390 -2.0499 -0.1579 -0.9875
 6099TIP3   OH239711   6.725   0.224  15.902 -0.3863  0.3438  0.1155
 6099TIP3    H139712   6.658   0.244  15.837 -1.2032  2.4257  1.4891
 6099TIP3    H239713   6.677   0.184  15.975  0.2439 -0.3595  0.1555
 6100TIP3   OH239714   3.240   5.038   3.095 -0.4050  0.3455 -0.0118
 6100TIP3    H139715   3.157   5.082   3.112 -2.0612 -2.5484  0.0222
 6100TIP3    H239716   3.268   5.005   3.181  0.2538  0.4409 -0.1843
 6101TIP3   OH239717   6.172   6.293   1.882  0.2648 -0.4623 -0.4002
 6101TIP3    H139718   6.159   6.241   1.802  0.3978 -0.8576 -0.1694
 6101TIP3    H239719   6.266   6.284   1.901  0.1348 -0.8308  0.1040
 6102TIP3   OH239720   6.798   5.866   3.487 -0.4962  0.1632 -0.5122
 6102TIP3    H139721   6.889   5.895   3.497 -0.1232  0.0699 -3.1074
 6102TIP3    H239722   6.803   5.787   3.434 -1.8558 -2.2682  2.6513
 6103TIP3   OH239723   0.827   3.064  11.932 -0.5649  0.2430  0.6788
 6103TIP3    H139724   0.847   3.090  11.843 -1.1834 -0.7091  0.2382
 6103TIP3    H239725   0.732   3.049  11.932 -0.5778  0.2453  1.5000
 6104TIP3   OH239726   4.685   4.884   3.040 -0.1475 -0.0328 -0.1080
 6104TIP3    H139727   4.616   4.824   3.070  0.6802 -0.1418  1.6837
 6104TIP3    H239728   4.765   4.831   3.040  0.1107  0.3318 -1.2977
 6105TIP3   OH239729   3.840   0.210  11.600  1.0953 -0.0372  0.4714
 6105TIP3    H139730   3.857   0.272  11.529  1.6862 -0.0697  0.5798
 6105TIP3    H239731   3.862   0.258  11.679  1.0889 -0.2311  0.5898
 6106TIP3   OH239732   6.314   3.424  15.997  0.5264  0.3215  0.0450
 6106TIP3    H139733   6.391   3.470  16.029 -0.2269  0.9502  0.9995
 6106TIP3    H239734   6.241   3.483  16.015 -0.2724 -0.5788 -0.1421
 6107TIP3   OH239735   3.268   6.076   0.355 -0.1267  0.3337  0.3659
 6107TIP3    H139736   3.341   6.016   0.372 -0.3486 -0.2059 -0.4858
 6107TIP3    H239737   3.223   6.084   0.439  0.4288  0.0078  0.7022
 6108TIP3   OH239738   1.390   0.424   0.923  0.2745 -0.3135  0.3626
 6108TIP3    H139739   1.477   0.409   0.960  1.5435 -1.1927 -2.6777
 6108TIP3    H239740   1.337   0.453   0.997  3.0259 -0.1438  2.4120
 6109TIP3   OH239741   1.142   1.537  11.810 -0.0306  0.0979  0.1782
 6109TIP3    H139742   1.091   1.601  11.762  0.4875 -0.6897 -1.4797
 6109TIP3    H239743   1.230   1.574  11.814  0.1745 -0.3122 -0.4266
 6110TIP3   OH239744   1.461   6.336  14.975  0.0678 -0.2802  0.0741
 6110TIP3    H139745   1.549   6.316  15.009 -0.5704 -1.7497  0.9745
 6110TIP3    H239746   1.409   6.356  15.053 -0.4495  0.3713 -0.4314
 6111TIP3   OH239747   4.412   3.756   4.156 -0.6099  0.8353 -0.2249
 6111TIP3    H139748   4.423   3.845   4.125  1.3577  0.2334 -1.4555
 6111TIP3    H239749   4.381   3.707   4.080 -2.1136  0.5215  0.5558
 6112TIP3   OH239750   5.169   5.191  10.743  0.4970  0.3080 -0.4788
 6112TIP3    H139751   5.155   5.202  10.837 -1.2083  0.3317 -0.7045
 6112TIP3    H239752   5.205   5.275  10.714 -0.6385  0.9246 -0.1348
 6113TIP3   OH239753   3.020   2.190  12.488  0.4050 -0.2221 -0.9040
 6113TIP3    H139754   3.053   2.104  12.515  0.4229  0.2741  0.7695
 6113TIP3    H239755   2.951   2.170  12.425  0.3862 -1.4699 -0.5212
 6114TIP3   OH239756   2.026   4.832  16.781  0.3797 -0.2202  0.2902
 6114TIP3    H139757   2.085   4.905  16.759 -1.0250  0.6869 -0.6203
 6114TIP3    H239758   1.941   4.860  16.748 -0.5223 -1.6050  1.3735
 6115TIP3   OH239759   5.411   1.300  11.154  0.2808  0.1483 -0.2233
 6115TIP3    H139760   5.385   1.348  11.232 -0.0759 -0.8482  0.2865
 6115TIP3    H239761   5.376   1.352  11.081  0.9265  1.2762  0.2371
 6116TIP3   OH239762   0.780   1.482  15.547  0.1580 -0.1530  0.3688
 6116TIP3    H139763   0.811   1.567  15.517  0.9789 -0.6472 -0.2340
 6116TIP3    H239764   0.685   1.492  15.555  0.0881  0.4516 -0.9376
 6117TIP3   OH239765   3.464   4.326   3.775 -0.8642 -0.1510  0.0828
 6117TIP3    H139766   3.388   4.375   3.742 -0.1304  0.4651 -0.7372
 6117TIP3    H239767   3.436   4.235   3.772 -2.1530  0.1717  1.3764
 6118TIP3   OH239768   1.924   0.606  14.170 -0.0119  0.1553 -0.0774
 6118TIP3    H139769   1.868   0.677  14.202  1.2225  0.2509  2.0776
 6118TIP3    H239770   2.012   0.630  14.200  0.8496 -1.0871 -1.4593
 6119TIP3   OH239771   6.308   0.436  13.369 -0.0508 -0.5217 -0.0954
 6119TIP3    H139772   6.359   0.515  13.389 -1.0031  0.3618 -1.0139
 6119TIP3    H239773   6.250   0.425  13.445 -0.9086  0.5283 -0.5567
 6120TIP3   OH239774   2.453   5.127   5.997  0.0802  0.0017 -0.4939
 6120TIP3    H139775   2.447   5.069   6.073  0.7750  0.1617 -0.3154
 6120TIP3    H239776   2.465   5.214   6.033  2.3183 -0.1265 -0.7601
 6121TIP3   OH239777   5.597   2.780   6.307 -0.1191  0.9706 -0.7432
 6121TIP3    H139778   5.683   2.737   6.308 -0.7749 -0.3905  0.3229
 6121TIP3    H239779   5.602   2.843   6.379 -0.0210  0.8625 -0.6532
 6122TIP3   OH239780   3.328   4.008   2.162 -0.0006 -0.2347  0.0566
 6122TIP3    H139781   3.325   3.935   2.224  0.8148 -0.8879 -0.6382
 6122TIP3    H239782   3.414   4.000   2.121 -0.5882  0.0563 -1.2856
 6123TIP3   OH239783   3.909   4.147  13.822  0.6121  0.3893 -0.0937
 6123TIP3    H139784   3.856   4.224  13.798 -0.4851 -0.4019 -0.2741
 6123TIP3    H239785   3.856   4.101  13.887  1.6841  0.2706  0.7198
 6124TIP3   OH239786   2.611   4.817   4.627  0.3567 -0.2415  0.5852
 6124TIP3    H139787   2.564   4.846   4.706  0.5987 -0.6970  0.9034
 6124TIP3    H239788   2.676   4.886   4.612 -0.4776  0.4576  0.0684
 6125TIP3   OH239789   1.257   1.743   1.732 -0.4130 -0.7932 -0.0665
 6125TIP3    H139790   1.195   1.772   1.799 -1.7224  0.1867 -1.6333
 6125TIP3    H239791   1.208   1.748   1.650  1.3707 -1.2147 -1.2146
 6126TIP3   OH239792   5.549   0.845   5.680 -0.2889  0.0621 -0.1834
 6126TIP3    H139793   5.498   0.924   5.667  1.4822  1.1146 -1.1823
 6126TIP3    H239794   5.488   0.773   5.663 -1.5066  1.2324 -0.9021
 6127TIP3   OH239795   6.574   5.088  15.086  0.0697  0.0814  0.1407
 6127TIP3    H139796   6.657   5.080  15.134 -0.5835  0.9134  1.4459
 6127TIP3    H239797   6.587   5.164  15.029  0.2083  0.2056  0.3356
 6128TIP3   OH239798   0.179   6.111  14.647 -0.0789  0.1051  0.0766
 6128TIP3    H139799   0.252   6.115  14.708 -0.5622 -2.6092  0.9884
 6128TIP3    H239800   0.101   6.106  14.703 -0.9007  1.6228 -0.8578
 6129TIP3   OH239801   3.385   3.852  13.345  0.2501 -0.2835  0.4931
 6129TIP3    H139802   3.404   3.763  13.375  0.6183  0.0238  1.1892
 6129TIP3    H239803   3.313   3.842  13.283  1.7765 -1.3555 -1.2342
 6130TIP3   OH239804   2.967   4.465   4.630  0.3841 -0.1872 -0.0039
 6130TIP3    H139805   2.884   4.449   4.587  0.3157  1.1845 -0.4422
 6130TIP3    H239806   2.944   4.481   4.722  0.0937  0.7515 -0.2362
 6131TIP3   OH239807   0.137   1.649   1.388 -0.5054 -0.2579 -0.0479
 6131TIP3    H139808   0.169   1.637   1.299  1.0206  0.3320  0.3900
 6131TIP3    H239809   0.188   1.722   1.423 -1.7811  0.1864  0.9857
 6132TIP3   OH239810   2.660   5.703   0.785 -0.6469 -0.1558 -0.2685
 6132TIP3    H139811   2.629   5.613   0.798  0.6670 -0.2892  2.8152
 6132TIP3    H239812   2.753   5.699   0.806 -0.0460  1.5383 -2.3549
 6133TIP3   OH239813   5.966   1.091   0.618  0.2462  0.0070 -0.0628
 6133TIP3    H139814   5.936   1.015   0.668 -0.8095  1.4081  1.5387
 6133TIP3    H239815   6.017   1.142   0.680 -1.9570  2.3233  0.0134
 6134TIP3   OH239816   5.051   5.512  13.327  0.5105 -0.9094  0.2158
 6134TIP3    H139817   5.140   5.483  13.307  1.7408  2.3817  0.2435
 6134TIP3    H239818   5.059   5.563  13.407 -1.2456  0.0525 -0.1512
 6135TIP3   OH239819   1.784   4.300  10.953 -0.2793  0.7015  0.1287
 6135TIP3    H139820   1.728   4.281  11.029 -1.2673 -0.9132 -0.9400
 6135TIP3    H239821   1.724   4.340  10.889 -0.7922 -2.6519 -1.7105
 6136TIP3   OH239822   1.585   6.423   4.597  0.7587  0.3146  0.5516
 6136TIP3    H139823   1.635   6.450   4.520  2.3070 -0.1156  1.3747
 6136TIP3    H239824   1.648   6.426   4.669 -0.3644 -0.4233  1.5962
 6137TIP3   OH239825   5.669   5.144  13.077 -0.3288  0.1009  0.1322
 6137TIP3    H139826   5.746   5.180  13.121 -0.2553  2.1292 -1.5188
 6137TIP3    H239827   5.601   5.211  13.088 -1.3469 -0.8780  0.0655
 6138TIP3   OH239828   0.950   4.894  15.828 -0.0352  0.6727  0.0655
 6138TIP3    H139829   0.914   4.979  15.805 -0.1366  0.8094  0.6990
 6138TIP3    H239830   0.995   4.864  15.749 -0.1636  1.2232 -0.2197
 6139TIP3   OH239831   5.635   6.002   5.175 -0.2048  0.5392 -0.2436
 6139TIP3    H139832   5.552   6.040   5.202  0.7321  1.0747  2.1724
 6139TIP3    H239833   5.635   5.914   5.211 -0.3363 -0.0410 -1.5992
 6140TIP3   OH239834   1.747   5.682   1.541  0.0238  0.0258 -0.4480
 6140TIP3    H139835   1.780   5.607   1.591  0.0713 -0.5769 -1.3506
 6140TIP3    H239836   1.673   5.647   1.492 -0.1409  0.6505 -0.6554
 6141TIP3   OH239837   2.539   6.238   0.893 -0.1996 -0.4853 -0.3259
 6141TIP3    H139838   2.555   6.284   0.975  1.6731  2.1964 -2.0127
 6141TIP3    H239839   2.625   6.208   0.865 -0.0324  2.0900 -3.0521
 6142TIP3   OH239840   0.104   3.859   0.983 -0.4883  0.3703 -0.4222
 6142TIP3    H139841   0.157   3.872   0.905 -2.2691 -0.2125 -1.7798
 6142TIP3    H239842   0.124   3.770   1.011 -0.5612  0.2443 -0.7690
 6143TIP3   OH239843   5.360   3.797  13.740  0.5247  0.2271  0.0880
 6143TIP3    H139844   5.451   3.813  13.766  0.8418 -0.8505 -0.3405
 6143TIP3    H239845   5.345   3.858  13.668  1.6474 -1.1313 -1.3619
 6144TIP3   OH239846   4.792   0.868   5.662  0.1072 -0.8684  0.3508
 6144TIP3    H139847   4.725   0.925   5.700 -0.2872 -1.6688  0.8918
 6144TIP3    H239848   4.745   0.788   5.641  0.7793 -1.2195  0.1753
 6145TIP3   OH239849   6.626   2.549   0.733 -0.1762  0.2014 -1.0090
 6145TIP3    H139850   6.552   2.503   0.772 -2.9727  1.9740 -3.7653
 6145TIP3    H239851   6.619   2.639   0.765  1.7590  0.0959 -0.1527
 6146TIP3   OH239852   6.263   2.566  13.117 -0.6581  0.0112 -0.0393
 6146TIP3    H139853   6.249   2.640  13.177  1.1424 -0.5102  1.1089
 6146TIP3    H239854   6.176   2.530  13.102 -1.3122  1.0316  1.1610
 6147TIP3   OH239855   2.141   2.348   1.421  0.1587  0.1140 -0.1731
 6147TIP3    H139856   2.095   2.395   1.352  2.0347  1.1914 -0.7746
 6147TIP3    H239857   2.101   2.377   1.502 -0.7792  0.3322 -0.7063
 6148TIP3   OH239858   1.443   0.712   4.809  0.4123  0.0001  0.0598
 6148TIP3    H139859   1.413   0.632   4.852 -0.8596 -0.0353 -0.8587
 6148TIP3    H239860   1.530   0.690   4.776  1.4332  0.0065  2.4751
 6149TIP3   OH239861   0.396   2.536  16.656  0.4457 -0.2360  0.0629
 6149TIP3    H139862   0.301   2.542  16.647  0.2992 -2.7098 -0.7057
 6149TIP3    H239863   0.410   2.472  16.726  1.4900 -1.2574 -1.0256
 6150TIP3   OH239864   0.525   4.568   5.836  0.0662  0.0226 -0.4928
 6150TIP3    H139865   0.605   4.596   5.790  0.9289  0.6838  1.3067
 6150TIP3    H239866   0.555   4.541   5.922 -1.6665  0.2326  0.2173
 6151TIP3   OH239867   0.414   4.357   3.229 -0.3846  0.5661  0.0063
 6151TIP3    H139868   0.335   4.403   3.259 -0.0112  0.6753  0.8612
 6151TIP3    H239869   0.387   4.265   3.223 -0.1810  0.3309  1.8953
 6152TIP3   OH239870   3.755   2.378  16.517 -0.0870  0.2753  0.4305
 6152TIP3    H139871   3.780   2.463  16.480 -0.0621  0.3917  0.7055
 6152TIP3    H239872   3.803   2.374  16.600 -0.7187  0.3527  0.8058
 6153TIP3   OH239873   1.941   5.363  11.686  0.1041  0.3117 -0.5270
 6153TIP3    H139874   1.852   5.331  11.671 -0.3479  1.5634 -0.6616
 6153TIP3    H239875   1.951   5.362  11.781 -0.2208  0.5928 -0.4875
 6154TIP3   OH239876   6.658   3.134  12.394 -0.4291 -0.4428 -0.5438
 6154TIP3    H139877   6.704   3.059  12.432 -1.1909 -0.9877 -0.6660
 6154TIP3    H239878   6.648   3.111  12.302 -0.7157 -0.2141 -0.5710
 6155TIP3   OH239879   5.691   6.195  14.470  0.0760  0.1268 -0.0934
 6155TIP3    H139880   5.641   6.217  14.549  0.0862 -0.1663 -0.0058
 6155TIP3    H239881   5.750   6.126  14.498 -0.2031 -0.2604 -0.4589
 6156TIP3   OH239882   3.193   4.098  11.922 -0.8011  0.1009  0.0692
 6156TIP3    H139883   3.186   4.008  11.954 -0.4441  0.4838  1.2947
 6156TIP3    H239884   3.108   4.137  11.942 -0.9496  0.0430 -0.4468
 6157TIP3   OH239885   5.282   6.683  15.624 -0.0365 -0.0981 -0.0366
 6157TIP3    H139886   5.310   6.673  15.533  1.9356  0.2299  0.4889
 6157TIP3    H239887   5.336   6.621  15.672 -2.2089 -1.4690  0.7609
 6158TIP3   OH239888   1.626   3.743   1.303 -0.7311  0.1603  0.5595
 6158TIP3    H139889   1.537   3.717   1.323 -0.5136 -1.5091 -0.4657
 6158TIP3    H239890   1.617   3.823   1.251 -1.4934  1.2375  2.2581
 6159TIP3   OH239891   0.471   4.208   5.088  0.2107 -0.6720 -0.1141
 6159TIP3    H139892   0.564   4.213   5.112 -0.2460 -1.1339  1.9727
 6159TIP3    H239893   0.464   4.128   5.037  0.8089 -1.2034  0.6046
 6160TIP3   OH239894   2.850   2.154  14.105  0.2495  0.0772  0.0691
 6160TIP3    H139895   2.780   2.220  14.107 -0.2663 -0.4672  0.2518
 6160TIP3    H239896   2.874   2.148  14.012 -1.1647 -0.9819 -0.2643
 6161TIP3   OH239897   5.634   2.766   1.960  0.2865  0.0631  0.1460
 6161TIP3    H139898   5.549   2.799   1.988  0.6005  0.3167  0.8146
 6161TIP3    H239899   5.616   2.720   1.878 -1.1142 -3.0666  2.0506
 6162TIP3   OH239900   4.541   0.812   3.217 -0.2078 -0.1479 -0.3296
 6162TIP3    H139901   4.554   0.735   3.272 -0.0882  0.0024 -0.1450
 6162TIP3    H239902   4.572   0.786   3.131 -0.7834 -0.5225 -0.4283
 6163TIP3   OH239903   1.840   3.703  16.809 -0.1297 -0.1338 -0.5126
 6163TIP3    H139904   1.906   3.710  16.741 -0.3424 -0.2565 -0.7316
 6163TIP3    H239905   1.883   3.656  16.880  1.0054  2.3299  0.5557
 6164TIP3   OH239906   6.398   4.817   0.997  0.2923 -0.2207 -0.1266
 6164TIP3    H139907   6.447   4.899   0.998  0.4188 -0.2987  0.2069
 6164TIP3    H239908   6.462   4.751   1.021  0.0023 -0.3128  0.3931
 6165TIP3   OH239909   1.021   4.051   0.872  0.3506 -0.6930 -0.2196
 6165TIP3    H139910   1.114   4.028   0.872  0.0509 -2.0174  0.6785
 6165TIP3    H239911   1.006   4.090   0.958 -0.3856 -2.6631  0.6058
 6166TIP3   OH239912   6.285   2.159  12.505 -0.4950  0.8561  1.0023
 6166TIP3    H139913   6.238   2.168  12.587 -1.5935 -1.3063  0.6788
 6166TIP3    H239914   6.236   2.213  12.443 -0.5785  1.2539  1.4104
 6167TIP3   OH239915   0.854   0.046   2.107  0.4934 -0.5706 -0.3948
 6167TIP3    H139916   0.900   0.048   2.023  2.3131  0.0772  0.5587
 6167TIP3    H239917   0.820  -0.044   2.113 -1.8697  0.0061 -2.8696
 6168TIP3   OH239918   2.481   5.863  13.362 -0.0632 -0.1637  0.3567
 6168TIP3    H139919   2.409   5.802  13.381 -0.7917  0.2180 -1.0405
 6168TIP3    H239920   2.446   5.949  13.385 -0.5637  0.1739 -1.4294
 6169TIP3   OH239921   4.421   5.146   5.554  0.0820 -0.0989 -0.0072
 6169TIP3    H139922   4.480   5.117   5.623  0.5303  0.6069 -0.0786
 6169TIP3    H239923   4.464   5.119   5.472 -0.4463 -0.9323 -0.0180
 6170TIP3   OH239924   1.235   6.106  11.442  0.2321 -0.6086  0.4743
 6170TIP3    H139925   1.209   6.198  11.450  0.1066 -0.6447  0.4872
 6170TIP3    H239926   1.207   6.080  11.355  2.1460 -0.0482 -0.3524
 6171TIP3   OH239927   0.473   2.148  13.200 -0.5636  0.4465 -0.3531
 6171TIP3    H139928   0.496   2.157  13.292  0.6358 -2.2786 -0.2902
 6171TIP3    H239929   0.388   2.104  13.201 -0.3345 -0.0057 -0.5314
 6172TIP3   OH239930   1.603   0.648  16.902 -0.4266 -0.1961  0.2576
 6172TIP3    H139931   1.677   0.639  16.841 -2.0383 -1.4072 -1.6424
 6172TIP3    H239932   1.529   0.668  16.845 -2.2276 -2.3661  1.6974
 6173TIP3   OH239933   2.948   0.427   0.178 -0.0956 -0.3517 -0.2909
 6173TIP3    H139934   3.003   0.476   0.239 -0.6267 -0.0140 -0.0739
 6173TIP3    H239935   3.001   0.417   0.099  0.3992 -0.3302  0.0357
 6174TIP3   OH239936   3.938   1.945  10.788 -0.7067  0.2178 -0.4138
 6174TIP3    H139937   3.942   1.850  10.785  3.0817  0.1638  0.5480
 6174TIP3    H239938   4.010   1.974  10.731 -1.5451  2.4966 -0.4238
 6175TIP3   OH239939   4.314   6.479  12.655 -0.2483  1.1073 -0.0305
 6175TIP3    H139940   4.287   6.568  12.676 -2.0391  0.4638  0.5916
 6175TIP3    H239941   4.236   6.438  12.617  0.0308 -0.6482  1.1632
 6176TIP3   OH239942   2.573   0.576   1.162 -0.0110 -0.1262 -0.2267
 6176TIP3    H139943   2.562   0.594   1.069 -1.3437  0.0968 -0.0504
 6176TIP3    H239944   2.653   0.623   1.186 -0.1780  0.6105 -1.0506
 6177TIP3   OH239945   2.826   2.551  12.369  0.2737  0.8754 -0.0204
 6177TIP3    H139946   2.865   2.610  12.433  1.4797 -1.5280  1.6336
 6177TIP3    H239947   2.851   2.587  12.284  1.1036  2.5870  0.9011
 6178TIP3   OH239948   5.230   6.713   0.125 -0.1021  0.1120 -0.1496
 6178TIP3    H139949   5.247   6.642   0.186 -3.1657  1.8024  3.0035
 6178TIP3    H239950   5.284   6.785   0.157 -0.4353  0.5206 -0.5041
 6179TIP3   OH239951   0.382   0.530   5.487  0.2863 -0.1835  0.3909
 6179TIP3    H139952   0.445   0.598   5.512  0.2546  0.3231 -0.8704
 6179TIP3    H239953   0.410   0.452   5.535  1.1526  0.3470  0.7613
 6180TIP3   OH239954   1.158   4.911   3.306 -0.2945 -0.6988 -0.6161
 6180TIP3    H139955   1.131   4.948   3.222  0.2744 -1.7100 -1.2673
 6180TIP3    H239956   1.253   4.902   3.299 -0.1807 -0.4261  0.3065
 6181TIP3   OH239957   2.763   5.722   2.099  0.2364 -0.6632  0.2497
 6181TIP3    H139958   2.679   5.738   2.141 -0.4907 -1.4622 -0.8571
 6181TIP3    H239959   2.805   5.808   2.097 -1.0215 -0.0347 -0.1587
 6182TIP3   OH239960   1.433   4.051   5.118 -0.1196 -0.0438 -0.4404
 6182TIP3    H139961   1.436   4.096   5.034 -2.0892  0.6023 -0.2166
 6182TIP3    H239962   1.522   4.020   5.132  0.4504  0.6235 -2.3284
 6183TIP3   OH239963   2.285   3.131  13.437  0.2158  0.1965  0.2356
 6183TIP3    H139964   2.298   3.217  13.479  2.2235  0.6072 -1.0724
 6183TIP3    H239965   2.334   3.070  13.493  0.8831  0.3438 -0.1760
 6184TIP3   OH239966   5.203   2.994  15.409  0.1943  0.4462  0.4030
 6184TIP3    H139967   5.251   2.958  15.483  0.6107  0.1540  0.0037
 6184TIP3    H239968   5.122   3.027  15.446 -0.0909 -0.6846  0.8193
 6185TIP3   OH239969   6.765   6.199   4.210  0.4046  0.1186 -0.5339
 6185TIP3    H139970   6.684   6.149   4.214 -0.8430  1.9045 -1.8791
 6185TIP3    H239971   6.787   6.216   4.301 -0.0616 -1.3825 -0.1101
 6186TIP3   OH239972   3.131   3.011  12.458  0.0552  0.4081  0.0703
 6186TIP3    H139973   3.057   3.063  12.426 -0.3898 -0.8350 -1.0370
 6186TIP3    H239974   3.182   2.991  12.380  0.7819  0.0502  0.6217
 6187TIP3   OH239975   5.442   6.738  12.590  0.2105 -0.7974 -0.2988
 6187TIP3    H139976   5.407   6.736  12.679  0.5028 -1.6819 -0.1886
 6187TIP3    H239977   5.451   6.831  12.570  0.5363 -0.5819  0.7562
 6188TIP3   OH239978   2.521   5.694   1.649  0.2035  0.0028  0.2006
 6188TIP3    H139979   2.519   5.678   1.744 -0.3478  2.1165  0.6111
 6188TIP3    H239980   2.581   5.768   1.639 -0.2390  0.2222 -1.0275
 6189TIP3   OH239981   0.283   2.924   5.185 -0.2447  0.2300 -0.1945
 6189TIP3    H139982   0.368   2.893   5.154  0.2566  0.5261  0.8390
 6189TIP3    H239983   0.225   2.915   5.109  0.2117 -1.8759 -0.3516
 6190TIP3   OH239984   2.405   1.541   3.573 -0.1835 -0.0177 -0.1989
 6190TIP3    H139985   2.430   1.523   3.483 -2.1339 -0.9454 -0.6132
 6190TIP3    H239986   2.309   1.549   3.570 -0.2175  0.8659  1.6414
 6191TIP3   OH239987   0.905   4.597  16.819  0.4546  0.2766 -0.0426
 6191TIP3    H139988   0.952   4.575  16.738 -0.2269 -2.2736  0.1777
 6191TIP3    H239989   0.974   4.604  16.885  0.7624 -1.4882 -0.1210
 6192TIP3   OH239990   4.874   4.129  16.980  0.0273 -0.9432  0.0289
 6192TIP3    H139991   4.824   4.065  16.929 -0.6618 -0.6519  0.3225
 6192TIP3    H239992   4.896   4.198  16.918  0.8522 -1.5008 -0.3089
 6193TIP3   OH239993   3.317   2.299   5.893  0.1843  0.4527  0.3375
 6193TIP3    H139994   3.385   2.298   5.825  0.2969  1.1634  0.4333
 6193TIP3    H239995   3.332   2.218   5.943 -1.3610 -1.3384 -1.8832
 6194TIP3   OH239996   3.534   3.463  17.021 -0.2142  0.0428 -0.2657
 6194TIP3    H139997   3.479   3.407  16.966  0.4449 -1.3828  0.4754
 6194TIP3    H239998   3.531   3.423  17.108  1.7595  0.0484 -0.1382
 6195TIP3   OH239999   3.312   3.062   5.660  0.2664  0.1035 -0.1673
 6195TIP3    H140000   3.326   3.064   5.755 -0.5442  1.1429 -0.0498
 6195TIP3    H240001   3.400   3.059   5.623  0.5944 -0.1773  0.6228
 6196TIP3   OH240002   2.577   2.323   3.615  0.1263 -0.1347  0.5656
 6196TIP3    H140003   2.502   2.333   3.673 -0.7689  0.9155 -0.7011
 6196TIP3    H240004   2.560   2.242   3.567 -0.7554  0.6216 -0.4435
 6197TIP3   OH240005   6.128   0.556  16.646  0.2311 -0.2462  0.3812
 6197TIP3    H140006   6.058   0.609  16.684 -0.9756 -1.2513 -0.3587
 6197TIP3    H240007   6.129   0.476  16.699  2.5209  0.7020  1.9482
 6198TIP3   OH240008   1.807   3.886  15.464 -0.0907  0.3439  0.0560
 6198TIP3    H140009   1.852   3.802  15.473 -0.3036  0.1887 -0.2875
 6198TIP3    H240010   1.809   3.905  15.370 -2.2296 -0.5180 -0.2243
 6199TIP3   OH240011   6.014   4.290  13.441 -0.4132 -0.1994  0.2575
 6199TIP3    H140012   5.939   4.250  13.396  0.4090 -0.9946 -0.4623
 6199TIP3    H240013   6.040   4.362  13.384 -0.3813 -0.1825  0.2932
 6200TIP3   OH240014   6.650   1.274   3.639  0.0715 -0.1656 -0.2840
 6200TIP3    H140015   6.596   1.334   3.690  0.9323 -1.6875  2.6518
 6200TIP3    H240016   6.587   1.216   3.596 -0.7685 -1.1771  2.1338
 6201TIP3   OH240017   1.735   3.553  10.902  0.0283 -0.1216 -0.2321
 6201TIP3    H140018   1.818   3.542  10.854  0.9021 -2.0147  1.5791
 6201TIP3    H240019   1.686   3.474  10.884  1.0868 -1.7273  3.1381
 6202TIP3   OH240020   0.535   1.903  14.443 -0.3369  0.0809 -0.5622
 6202TIP3    H140021   0.505   1.991  14.463  1.1283  0.3042  0.9099
 6202TIP3    H240022   0.621   1.915  14.402  1.0216 -0.6324  1.8540
 6203TIP3   OH240023   5.068   2.413   0.010 -0.0829  0.2768  0.1829
 6203TIP3    H140024   5.036   2.330  -0.024 -2.0284  0.2094  1.9392
 6203TIP3    H240025   5.013   2.479  -0.032 -0.5331  0.4043  0.9347
 6204TIP3   OH240026   5.812   2.725  12.090 -0.4415  0.8293 -0.2102
 6204TIP3    H140027   5.815   2.760  12.179  0.0214  3.0733 -1.0649
 6204TIP3    H240028   5.719   2.717  12.070 -0.5881 -1.1821  0.9663
 6205TIP3   OH240029   0.490   5.901   5.588 -0.0327 -0.2210  0.2694
 6205TIP3    H140030   0.536   5.983   5.573  0.3240 -0.4323  0.2056
 6205TIP3    H240031   0.413   5.926   5.639 -0.6015  0.3335 -0.8222
 6206TIP3   OH240032   0.218   0.876   1.323 -0.4491  0.5720 -0.0164
 6206TIP3    H140033   0.220   0.965   1.359  1.1899  0.1101  1.1051
 6206TIP3    H240034   0.127   0.849   1.333 -0.6261  1.5125  1.1820
 6207TIP3   OH240035   5.748   4.247   3.685  0.1099  0.2478  0.6222
 6207TIP3    H140036   5.780   4.307   3.752 -0.6790 -0.9568  2.1531
 6207TIP3    H240037   5.793   4.274   3.605  0.1762  2.5031  1.3467
 6208TIP3   OH240038   2.321   3.989  11.789 -0.4715  0.2793  0.5812
 6208TIP3    H140039   2.281   3.955  11.709  0.7171  0.4621 -0.0991
 6208TIP3    H240040   2.281   4.075  11.801  1.8673  1.8278 -1.8090
 6209TIP3   OH240041   3.426   3.178   0.592 -0.5152 -0.1936  0.1138
 6209TIP3    H140042   3.348   3.232   0.575 -0.0100  0.8656  1.0676
 6209TIP3    H240043   3.496   3.241   0.610 -0.2223 -1.1508  2.7136
 6210TIP3   OH240044   0.548   0.163   6.105 -0.0860  0.2270  0.1380
 6210TIP3    H140045   0.635   0.193   6.133  0.2042 -1.7768  1.6218
 6210TIP3    H240046   0.490   0.236   6.128  0.9830  0.9334  0.7122
 6211TIP3   OH240047   6.364   5.376   1.483  0.1410 -0.0628  0.3917
 6211TIP3    H140048   6.451   5.338   1.494  0.4226 -0.4820 -2.5122
 6211TIP3    H240049   6.354   5.436   1.557  3.7796  1.5884 -0.2730
 6212TIP3   OH240050   0.595   4.389  15.898  0.4225 -0.1449  0.8875
 6212TIP3    H140051   0.524   4.336  15.934 -0.7038  1.1415  0.6738
 6212TIP3    H240052   0.583   4.475  15.939  1.0021  0.4783 -0.2077
 6213TIP3   OH240053   0.595   2.207  10.961  0.2597  0.0198  0.0879
 6213TIP3    H140054   0.668   2.202  11.023  0.1770 -0.3705  0.1550
 6213TIP3    H240055   0.637   2.225  10.877  0.2789  1.9119  0.4545
 6214TIP3   OH240056   4.110   2.533   2.975 -0.4602  0.4735  0.3101
 6214TIP3    H140057   4.129   2.443   2.950  1.2108  1.0686 -0.7670
 6214TIP3    H240058   4.017   2.533   2.998 -0.4179 -1.5816  0.6904
 6215TIP3   OH240059   5.787   2.913  13.092 -0.2326 -0.1824  0.2018
 6215TIP3    H140060   5.814   2.886  13.180 -0.4162  1.8109  0.9230
 6215TIP3    H240061   5.760   2.832  13.049  1.8996 -1.5020  1.2221
 6216TIP3   OH240062   1.836   5.657   2.901 -0.1941  0.4403 -0.1224
 6216TIP3    H140063   1.925   5.631   2.923 -0.0484  1.1572  0.1779
 6216TIP3    H240064   1.790   5.660   2.986 -0.8579 -1.1389 -0.3883
 6217TIP3   OH240065   4.248   1.205  15.803  1.1162 -0.0081 -0.0706
 6217TIP3    H140066   4.264   1.194  15.896  2.4530 -0.4064 -0.3285
 6217TIP3    H240067   4.333   1.230  15.766  0.6891 -0.1901 -1.2269
 6218TIP3   OH240068   5.655   6.231   1.860  0.2980 -0.3172 -0.2226
 6218TIP3    H140069   5.646   6.324   1.880  2.0783  0.5435 -2.8466
 6218TIP3    H240070   5.584   6.189   1.908 -1.5645  2.5671 -0.2024
 6219TIP3   OH240071   3.840   0.206  15.673 -0.0562 -0.2107  0.2732
 6219TIP3    H140072   3.866   0.212  15.581 -1.0466  0.4715  0.0205
 6219TIP3    H240073   3.827   0.112  15.688  1.8941 -0.5153  0.2502
 6220TIP3   OH240074   6.045   4.519  15.201  0.0104 -0.6759  0.3265
 6220TIP3    H140075   6.004   4.449  15.149  0.7561 -1.0768  0.2707
 6220TIP3    H240076   6.132   4.529  15.163 -0.1292  0.3738  0.2575
 6221TIP3   OH240077   0.474   2.302  17.157 -0.0779 -0.1672  0.1974
 6221TIP3    H140078   0.532   2.249  17.212  0.3161 -0.2405 -0.2838
 6221TIP3    H240079   0.399   2.321  17.214  1.0901  1.2311  1.3527
 6222TIP3   OH240080   2.225   2.403  14.204  0.2523  0.3750  0.3832
 6222TIP3    H140081   2.185   2.479  14.161 -1.5494 -1.0598 -0.6207
 6222TIP3    H240082   2.153   2.341  14.214  1.4081 -0.7272  2.3416
 6223TIP3   OH240083   2.272   6.289   0.872 -0.5770 -0.0034  0.1939
 6223TIP3    H140084   2.263   6.382   0.894  0.1080 -0.0822  0.8524
 6223TIP3    H240085   2.366   6.272   0.880 -0.6782 -0.7144 -0.0777
 6224TIP3   OH240086   6.559   0.366   3.465  0.4402  0.2087  0.2850
 6224TIP3    H140087   6.486   0.309   3.490  0.8615 -0.5567 -0.1696
 6224TIP3    H240088   6.536   0.398   3.378 -0.1458  1.3539  0.8457
 6225TIP3   OH240089   1.489   6.539  13.973  0.5357  0.6277 -0.6806
 6225TIP3    H140090   1.459   6.562  13.885  2.1164  0.4805 -1.3048
 6225TIP3    H240091   1.422   6.481  14.007 -0.2418  0.9038 -1.6852
 6226TIP3   OH240092   4.948   4.528   4.430 -0.0885 -0.2463  0.7588
 6226TIP3    H140093   4.883   4.574   4.377 -2.8477 -1.0260  3.1757
 6226TIP3    H240094   4.986   4.596   4.486  1.1182  0.1771 -0.5195
 6227TIP3   OH240095   4.058   3.371   0.511  0.5619  0.1399  0.3267
 6227TIP3    H140096   4.001   3.428   0.563  0.6904  1.3903 -0.8784
 6227TIP3    H240097   4.145   3.409   0.520  0.6977 -0.0253 -0.2511
 6228TIP3   OH240098   4.089   1.521   5.185  0.1169  0.0345 -0.1450
 6228TIP3    H140099   4.017   1.459   5.172  0.8325 -0.6534 -1.0282
 6228TIP3    H240100   4.112   1.549   5.097  1.7039 -0.7046 -0.0021
 6229TIP3   OH240101   3.302   5.176  13.069 -0.2200  0.5911  0.1182
 6229TIP3    H140102   3.247   5.113  13.115 -1.4585  1.3399 -0.2955
 6229TIP3    H240103   3.262   5.261  13.088  2.4525  1.5385  2.2165
 6230TIP3   OH240104   4.909   5.635  14.178  0.1718  0.0023 -0.2179
 6230TIP3    H140105   4.879   5.696  14.111  0.7378 -0.6077 -1.0397
 6230TIP3    H240106   4.855   5.557  14.165  0.4004 -0.1800 -0.0683
 6231TIP3   OH240107   4.274   2.681  16.738  0.2267  0.3102  0.2137
 6231TIP3    H140108   4.305   2.767  16.711  2.2525 -0.4256  0.0493
 6231TIP3    H240109   4.321   2.619  16.683 -2.0449 -0.9222 -0.4826
 6232TIP3   OH240110   5.997   1.845   5.508  0.6320  0.2630  0.3584
 6232TIP3    H140111   6.067   1.808   5.562  1.6757  0.5889 -0.7347
 6232TIP3    H240112   5.999   1.794   5.427  0.4360  1.0901 -0.1788
 6233TIP3   OH240113   5.553   2.256   4.910 -0.1457 -0.2145 -0.6476
 6233TIP3    H140114   5.514   2.200   4.843  1.3641 -3.2340  0.8317
 6233TIP3    H240115   5.642   2.270   4.880  0.1170 -0.4049  0.0368
 6234TIP3   OH240116   0.155   0.425   1.397 -0.2060  0.0630  0.2156
 6234TIP3    H140117   0.108   0.348   1.427  0.5361 -1.0373 -1.3088
 6234TIP3    H240118   0.088   0.480   1.356 -0.4986 -0.5010 -0.0690
 6235TIP3   OH240119   0.164   3.971  14.215 -1.1105 -0.0189 -0.2217
 6235TIP3    H140120   0.080   3.949  14.174 -0.9992 -1.4020  0.2363
 6235TIP3    H240121   0.199   4.042  14.160 -2.4946  0.4872 -0.5027
 6236TIP3   OH240122   2.768   6.064   0.253 -0.6501  0.2035  0.1800
 6236TIP3    H140123   2.798   6.133   0.312  0.7663  0.1937 -0.4936
 6236TIP3    H240124   2.776   6.101   0.165  2.1756 -1.4297 -0.3794
 6237TIP3   OH240125   3.622   0.015   1.990 -0.9156 -0.5792 -0.2913
 6237TIP3    H140126   3.571  -0.044   1.935 -0.1174 -0.5943 -1.0401
 6237TIP3    H240127   3.704  -0.031   2.006 -0.5209  0.0726 -0.3926
 6238TIP3   OH240128   0.102   2.860   0.733  0.5324 -0.2380 -0.5105
 6238TIP3    H140129   0.169   2.832   0.670  1.2187  0.1481  0.0452
 6238TIP3    H240130   0.151   2.887   0.810 -0.3012 -0.6289  0.1724
 6239TIP3   OH240131   1.543   5.610  16.809 -0.8692  0.0022  0.2455
 6239TIP3    H140132   1.452   5.640  16.809 -1.1540 -0.8118  0.5312
 6239TIP3    H240133   1.577   5.636  16.894 -1.1929 -0.6940  0.5958
 6240TIP3   OH240134   4.679   1.485  15.042 -0.0498 -0.3490  0.0668
 6240TIP3    H140135   4.612   1.544  15.007  2.2378  1.7716 -1.0843
 6240TIP3    H240136   4.731   1.461  14.965 -0.7010 -3.7979  0.5431
 6241TIP3   OH240137   3.135   4.744  12.412  0.0813 -0.0526 -0.1830
 6241TIP3    H140138   3.191   4.673  12.444 -0.5496 -0.6611 -0.4136
 6241TIP3    H240139   3.051   4.703  12.395 -0.6688  1.0000  0.8649
 6242TIP3   OH240140   2.088   6.119  12.066  0.0259  0.2880 -0.7385
 6242TIP3    H140141   2.007   6.162  12.038 -0.9406 -1.4436 -0.7533
 6242TIP3    H240142   2.078   6.109  12.160  0.4573  0.5077 -0.6673
 6243TIP3   OH240143   5.833   0.264  15.747  0.5508 -0.6243  0.4459
 6243TIP3    H140144   5.837   0.220  15.663 -1.2976  0.7414 -0.4423
 6243TIP3    H240145   5.876   0.348  15.732  3.3511 -1.6957  1.8972
 6244TIP3   OH240146   2.141   0.048   1.366  1.2916 -0.4268  0.0199
 6244TIP3    H140147   2.086  -0.029   1.353  0.5749 -0.1336  1.1608
 6244TIP3    H240148   2.221   0.013   1.406  1.4577 -0.7142 -0.5575
 6245TIP3   OH240149   4.552   1.831   3.334  0.0230  0.1421 -0.1730
 6245TIP3    H140150   4.624   1.795   3.282  1.6025  1.6209  0.8403
 6245TIP3    H240151   4.538   1.767   3.404  0.1642 -0.2831 -0.5299
 6246TIP3   OH240152   2.879   2.557  15.207  0.3737 -0.1067  0.0714
 6246TIP3    H140153   2.930   2.562  15.126  0.8249 -1.3996  0.2580
 6246TIP3    H240154   2.855   2.465  15.215  0.0206  0.0685  1.2237
 6247TIP3   OH240155   3.306   3.808   4.756  0.5663 -0.3549  0.2072
 6247TIP3    H140156   3.309   3.712   4.756  0.5443 -0.3587  0.7156
 6247TIP3    H240157   3.343   3.833   4.840 -0.4017  0.0452  0.5237
 6248TIP3   OH240158   2.519   5.088   5.190  1.2748  0.1105 -0.5249
 6248TIP3    H140159   2.460   5.061   5.120  0.6330 -1.4053  0.5225
 6248TIP3    H240160   2.586   5.141   5.148  0.8125 -0.6154 -2.2324
 6249TIP3   OH240161   3.856   6.356   1.492 -0.2352  0.0466 -0.0843
 6249TIP3    H140162   3.924   6.369   1.558 -1.2742 -0.5820  1.1415
 6249TIP3    H240163   3.903   6.362   1.408  1.1963  0.3266  0.7050
 6250TIP3   OH240164   3.425   3.427   5.438  0.7305 -0.0533 -0.2394
 6250TIP3    H140165   3.430   3.458   5.529  2.3693 -1.6996  0.2779
 6250TIP3    H240166   3.487   3.482   5.391 -0.2257  0.9003 -0.4510
 6251TIP3   OH240167   0.919   6.138   1.458 -0.1307 -0.0992 -0.2539
 6251TIP3    H140168   0.873   6.090   1.388  1.3446 -1.3904 -0.4016
 6251TIP3    H240169   0.919   6.229   1.428 -0.6434 -0.4201 -1.3073
 6252TIP3   OH240170   5.727   2.767   5.676  0.8048 -0.0498  0.4438
 6252TIP3    H140171   5.714   2.704   5.605  3.0200 -1.0829  0.8515
 6252TIP3    H240172   5.650   2.824   5.672  0.4786 -0.5377 -2.2638
 6253TIP3   OH240173   6.627   0.810   2.990 -0.1744 -0.0356  0.3820
 6253TIP3    H140174   6.597   0.896   2.962 -0.5167  0.2258  1.4913
 6253TIP3    H240175   6.579   0.748   2.936 -1.1327  0.4386  0.6683
 6254TIP3   OH240176   3.539   0.307  15.088 -0.5914  0.0045 -0.8515
 6254TIP3    H140177   3.512   0.216  15.073 -0.4477 -0.4351  1.2604
 6254TIP3    H240178   3.457   0.354  15.104 -0.5013 -0.5740  1.7970
 6255TIP3   OH240179   0.542   3.324   1.214 -0.2143 -1.0270 -0.5992
 6255TIP3    H140180   0.460   3.333   1.263  0.4483  0.4240  0.3035
 6255TIP3    H240181   0.587   3.408   1.226  1.3635 -1.7506 -1.1608
 6256TIP3   OH240182   5.233   2.508   1.705 -0.3551 -1.0324  0.1414
 6256TIP3    H140183   5.291   2.530   1.777  0.8756  0.3278 -1.1899
 6256TIP3    H240184   5.145   2.528   1.737  0.2368  0.2369  1.0226
 6257TIP3   OH240185   5.944   2.337   1.152 -0.0161  0.0121  0.2224
 6257TIP3    H140186   6.006   2.321   1.081  0.5363 -0.2429  0.7431
 6257TIP3    H240187   5.861   2.352   1.109  0.7476  2.2472 -0.5973
 6258TIP3   OH240188   3.045   6.574   5.369  0.6050  0.1265 -0.4360
 6258TIP3    H140189   3.078   6.506   5.310  0.3437 -1.4449  1.1599
 6258TIP3    H240190   2.958   6.594   5.336 -0.2634 -2.0249  0.3694
 6259TIP3   OH240191   6.751   0.978   5.290 -0.2666 -0.0338 -0.1285
 6259TIP3    H140192   6.767   0.885   5.303  0.3062  0.0602 -0.1335
 6259TIP3    H240193   6.835   1.013   5.260 -0.0900  0.7258  1.1913
 6260TIP3   OH240194   1.109   4.011  15.682 -0.1146 -0.4773 -0.6968
 6260TIP3    H140195   1.165   3.936  15.661 -0.8679 -1.2902  0.0953
 6260TIP3    H240196   1.020   3.977  15.673 -0.5006  0.6922 -1.5925
 6261TIP3   OH240197   4.241   1.475   2.752 -0.2780 -0.5942 -0.0624
 6261TIP3    H140198   4.251   1.392   2.705  0.5671 -0.9500  0.7124
 6261TIP3    H240199   4.175   1.457   2.819  2.5154 -1.8490  2.5907
 6262TIP3   OH240200   2.133   4.840   5.386 -0.6092 -0.3018 -0.0506
 6262TIP3    H140201   2.049   4.864   5.425 -0.1243  0.6248  0.4419
 6262TIP3    H240202   2.198   4.895   5.430  0.2011 -0.6304 -0.7890
 6263TIP3   OH240203   2.123   1.372   4.289  0.0068  0.2834 -0.3558
 6263TIP3    H140204   2.147   1.460   4.316 -1.4058  0.4701  0.4320
 6263TIP3    H240205   2.202   1.320   4.303  1.3098  1.6519 -2.1626
 6264TIP3   OH240206   2.993   1.739  16.109 -0.8997 -0.1341  0.0263
 6264TIP3    H140207   3.053   1.777  16.045 -0.3782 -2.8319 -1.1992
 6264TIP3    H240208   3.035   1.756  16.193  1.0651 -0.9573 -0.7243
 6265TIP3   OH240209   5.988   1.926  16.200  0.2124  0.1814 -0.4279
 6265TIP3    H140210   5.961   1.925  16.292 -0.7585  1.6073 -0.6643
 6265TIP3    H240211   5.910   1.898  16.152  1.0001 -1.4969 -0.7902
 6266TIP3   OH240212   6.747   0.292  14.204 -0.4022  0.2974  0.1725
 6266TIP3    H140213   6.828   0.265  14.247 -0.0214 -0.2231 -0.8415
 6266TIP3    H240214   6.762   0.275  14.111 -1.6486  0.2611 -0.0417
 6267TIP3   OH240215   6.139   4.565  11.290 -0.2814 -0.3842 -0.5134
 6267TIP3    H140216   6.075   4.520  11.235 -2.4190  1.0474  0.6186
 6267TIP3    H240217   6.198   4.496  11.320 -0.3995 -1.5406 -2.7413
 6268TIP3   OH240218   2.901   5.727  15.503 -0.1299 -0.4385 -0.0069
 6268TIP3    H140219   2.812   5.757  15.487  1.3913  4.4104 -1.0482
 6268TIP3    H240220   2.924   5.677  15.425 -0.8430  1.4944 -1.5455
 6269TIP3   OH240221   2.208   2.089  13.136 -0.5490 -0.2773  0.0167
 6269TIP3    H140222   2.163   2.089  13.052  0.6409 -0.8109 -0.6497
 6269TIP3    H240223   2.179   2.170  13.179 -2.3134 -0.7225 -0.2495
 6270TIP3   OH240224   3.007   0.542  13.790  0.4303 -0.4010  0.5258
 6270TIP3    H140225   3.038   0.598  13.719  0.6117  0.1388  1.0242
 6270TIP3    H240226   2.973   0.603  13.856  1.0416 -0.8429  1.2680
 6271TIP3   OH240227   4.465   0.626  10.869 -0.0737 -0.1674  0.4561
 6271TIP3    H140228   4.534   0.568  10.838 -0.2841 -0.9283  1.3676
 6271TIP3    H240229   4.509   0.683  10.932  0.2943  1.1927 -0.9661
 6272TIP3   OH240230   5.070   0.542  11.024  0.4347  0.0949 -0.2177
 6272TIP3    H140231   5.011   0.532  10.949 -0.3098  1.4766  0.1518
 6272TIP3    H240232   5.128   0.466  11.018  0.4670  0.2042 -2.2435
 6273TIP3   OH240233   4.893   1.682  14.287  0.3829 -0.2271  0.3283
 6273TIP3    H140234   4.817   1.631  14.315  1.6035 -2.6733 -0.5151
 6273TIP3    H240235   4.956   1.672  14.359  0.7330 -0.1147  0.0387
 6274TIP3   OH240236   2.283   4.735  12.645  0.2925  0.0658  0.5988
 6274TIP3    H140237   2.253   4.723  12.734 -0.2661  1.0407  0.5589
 6274TIP3    H240238   2.207   4.770  12.598  0.3241 -1.2133 -0.4716
 6275TIP3   OH240239   2.361   1.475   4.051 -0.6687  0.2765  0.4451
 6275TIP3    H140240   2.366   1.546   4.115 -0.0301  2.0835 -1.5242
 6275TIP3    H240241   2.389   1.514   3.969 -1.2556 -2.0219 -0.9359
 6276TIP3   OH240242   3.764   0.958   1.186  0.6207  0.1543 -0.1336
 6276TIP3    H140243   3.854   0.988   1.195  0.4634  0.6852 -0.2690
 6276TIP3    H240244   3.712   1.038   1.192  0.1917 -0.0840 -0.5972
 6277TIP3   OH240245   4.538   3.342   5.488 -0.5638 -0.2159 -0.1745
 6277TIP3    H140246   4.543   3.348   5.584 -1.0600  0.8591 -0.1887
 6277TIP3    H240247   4.629   3.343   5.458 -0.3884 -1.1021  0.3014
 6278TIP3   OH240248   4.787   6.431  13.756  0.0192  0.5842 -0.1049
 6278TIP3    H140249   4.820   6.518  13.777 -0.6781  0.4786  1.6021
 6278TIP3    H240250   4.780   6.387  13.841  2.8851 -2.1108 -1.0669
 6279TIP3   OH240251   1.860   0.481   5.951 -0.1527 -0.1674 -0.1362
 6279TIP3    H140252   1.866   0.414   5.883  0.3914 -0.9808  0.6769
 6279TIP3    H240253   1.849   0.431   6.032  1.6266  0.6233  0.6586
 6280TIP3   OH240254   1.236   3.235   5.685  0.0909 -0.2747  0.0119
 6280TIP3    H140255   1.166   3.192   5.734  0.2803 -1.4003 -0.6748
 6280TIP3    H240256   1.215   3.217   5.593  0.6599  0.3678 -0.2483
 6281TIP3   OH240257   0.526   2.034  11.232 -0.0163  0.2414  0.1864
 6281TIP3    H140258   0.463   2.081  11.176 -0.0528  1.2412  1.0342
 6281TIP3    H240259   0.602   2.092  11.235  0.3547 -0.2538  0.3965
 6282TIP3   OH240260   2.229   3.453  11.723  0.0205 -0.3041  0.3358
 6282TIP3    H140261   2.235   3.492  11.636  2.3088  1.0439  1.0259
 6282TIP3    H240262   2.183   3.370  11.708  3.0438 -1.6583 -2.6995
 6283TIP3   OH240263   3.748   0.295   1.078  0.2716 -0.3882  0.1064
 6283TIP3    H140264   3.840   0.301   1.052  0.2845 -0.7417  0.0589
 6283TIP3    H240265   3.732   0.375   1.128  0.4799 -0.1094 -0.2679
 6284TIP3   OH240266   2.668   0.316   4.862  0.2637 -0.1970  0.0330
 6284TIP3    H140267   2.757   0.295   4.834  0.4866  2.6236 -1.8230
 6284TIP3    H240268   2.671   0.315   4.958  2.5189  0.4879  0.0167
 6285TIP3   OH240269   2.067   0.671   5.570 -0.0373 -0.1586  0.3975
 6285TIP3    H140270   2.012   0.712   5.637  1.2434  0.1637  1.2841
 6285TIP3    H240271   2.131   0.621   5.619  0.8191 -0.0768 -0.5970
 6286TIP3   OH240272   5.698   4.157   3.153 -0.3289  0.1966  0.6633
 6286TIP3    H140273   5.767   4.222   3.141  0.0398  0.1892  2.4491
 6286TIP3    H240274   5.723   4.085   3.094  0.5674  0.6767  0.4387
 6287TIP3   OH240275   2.049   0.101  15.712 -0.3757  0.1338 -0.2808
 6287TIP3    H140276   2.093   0.021  15.739 -2.4332 -0.9677  0.0616
 6287TIP3    H240277   2.118   0.156  15.675  1.1565 -1.6524 -0.2190
 6288TIP3   OH240278   5.758   3.161  12.932  0.3692 -0.2678  0.0509
 6288TIP3    H140279   5.767   3.073  12.969 -0.8592 -0.3239  0.2387
 6288TIP3    H240280   5.798   3.219  12.997 -0.4312 -0.5140  0.7682
 6289TIP3   OH240281   1.665   0.059  16.524 -0.2347  0.6786 -0.3838
 6289TIP3    H140282   1.582   0.032  16.563  0.3052  1.3369  1.2779
 6289TIP3    H240283   1.710  -0.023  16.506 -0.7814  0.3454 -0.2668
 6290TIP3   OH240284   3.690   0.687   5.217  0.0993  0.0022  0.1222
 6290TIP3    H140285   3.665   0.752   5.151 -1.5639 -0.9888 -0.2801
 6290TIP3    H240286   3.782   0.703   5.233  0.5555  0.3125 -2.4373
 6291TIP3   OH240287   4.844   3.073   0.261  0.2636  0.2683 -0.1878
 6291TIP3    H140288   4.905   3.018   0.212  0.7637  0.4971  0.1635
 6291TIP3    H240289   4.833   3.027   0.345 -0.3233  0.0502 -0.3810
 6292TIP3   OH240290   0.911   3.710   3.777 -0.2177 -0.0782 -0.2416
 6292TIP3    H140291   0.980   3.648   3.753  0.4064  1.0896 -1.5918
 6292TIP3    H240292   0.924   3.725   3.871  2.2264  1.0634 -0.6726
 6293TIP3   OH240293   2.348   6.478  15.864  0.4236 -0.6149 -0.1290
 6293TIP3    H140294   2.406   6.442  15.797 -1.9106 -1.4023 -1.8209
 6293TIP3    H240295   2.323   6.402  15.917 -1.6993 -0.9570 -1.5248
 6294TIP3   OH240296   6.114   1.097  12.231  0.3828  0.3706  0.5581
 6294TIP3    H140297   6.037   1.132  12.276  0.4186  1.8448 -0.4423
 6294TIP3    H240298   6.112   1.003  12.249 -0.2738  0.7185  2.5735
 6295TIP3   OH240299   0.400   0.981  13.902  0.1918 -0.2832 -0.0143
 6295TIP3    H140300   0.310   0.947  13.906 -0.1595  0.6781  0.7997
 6295TIP3    H240301   0.443   0.942  13.978 -0.3129  1.2881  1.1308
 6296TIP3   OH240302   5.886   2.781   3.463  0.0607  0.0358 -0.5703
 6296TIP3    H140303   5.898   2.706   3.404 -1.0872  0.5625 -1.5019
 6296TIP3    H240304   5.967   2.832   3.453  0.6897 -0.8643 -0.2131
 6297TIP3   OH240305   5.543   6.760   5.530  0.5522  0.1362  0.0615
 6297TIP3    H140306   5.479   6.698   5.566 -0.0142  1.3239  1.1846
 6297TIP3    H240307   5.610   6.766   5.598  0.7139  0.5933 -0.1390
 6298TIP3   OH240308   3.184   3.797   4.260 -0.4384 -0.3331  0.0794
 6298TIP3    H140309   3.137   3.826   4.338  1.0665 -0.5156  1.1005
 6298TIP3    H240310   3.143   3.845   4.188  0.4546  2.6485  1.4093
 6299TIP3   OH240311   3.166   3.600  16.357 -0.0194  0.9761 -0.5015
 6299TIP3    H140312   3.085   3.615  16.405  1.3429  0.6630  2.0454
 6299TIP3    H240313   3.224   3.672  16.384  1.3927 -0.2185 -0.2069
 6300TIP3   OH240314   3.784   4.050   1.238 -0.2091  0.3970  1.0573
 6300TIP3    H140315   3.853   3.986   1.220 -2.3905 -1.5988 -0.7331
 6300TIP3    H240316   3.820   4.133   1.206  1.4710 -0.4982  0.4736
 6301TIP3   OH240317   3.510   4.183   3.440 -0.5695  0.2624 -0.1949
 6301TIP3    H140318   3.586   4.176   3.381 -0.7490  0.2219 -0.4215
 6301TIP3    H240319   3.493   4.093   3.467  0.3956  0.4285  1.0474
 6302TIP3   OH240320   2.398   2.912   2.280  0.0662 -0.2433 -0.1746
 6302TIP3    H140321   2.373   2.962   2.202  0.1725 -0.6556 -0.4786
 6302TIP3    H240322   2.367   2.823   2.262 -2.7736  0.2586  1.5876
 6303TIP3   OH240323   2.287   0.801   3.070 -0.1971 -0.1903 -0.2291
 6303TIP3    H140324   2.256   0.717   3.035  0.2487 -0.0506 -0.9798
 6303TIP3    H240325   2.341   0.838   3.000  1.0988 -0.1027  0.7616
 6304TIP3   OH240326   0.293   4.228  15.798  0.2267 -0.6497  0.3241
 6304TIP3    H140327   0.313   4.294  15.864 -0.8569  1.4720 -1.3299
 6304TIP3    H240328   0.198   4.228  15.792  0.2107  2.0435 -3.6547
 6305TIP3   OH240329   3.810   5.131  13.679  0.0430  0.4075  0.3999
 6305TIP3    H140330   3.728   5.148  13.724  1.9788  0.3000  4.4587
 6305TIP3    H240331   3.825   5.037  13.691 -0.1493 -0.0355 -2.2178
 6306TIP3   OH240332   0.424   3.035  14.012  0.2885 -0.1391  0.1995
 6306TIP3    H140333   0.356   3.067  14.071  0.0476  1.3434 -0.8351
 6306TIP3    H240334   0.483   3.109  14.001 -0.7130  0.3109 -2.9227
 6307TIP3   OH240335   6.666   5.180   3.207 -0.2345 -0.0229 -0.2462
 6307TIP3    H140336   6.680   5.221   3.293 -0.6258  0.2124 -0.2895
 6307TIP3    H240337   6.571   5.184   3.194  0.0364  3.0916 -2.2195
 6308TIP3   OH240338   4.391   5.921  15.462  0.3402  0.0519  0.2548
 6308TIP3    H140339   4.390   6.016  15.448  0.2286  0.2260  1.3540
 6308TIP3    H240340   4.476   5.893  15.426 -1.4958 -0.2425 -4.6013
 6309TIP3   OH240341   6.035   3.350  12.919 -0.2745  0.2502 -0.0115
 6309TIP3    H140342   6.016   3.261  12.949 -0.8298  0.4093  0.1243
 6309TIP3    H240343   6.055   3.399  12.999 -0.5544  0.3864 -0.0245
 6310TIP3   OH240344   1.308   0.684   4.343 -0.3659  0.0364 -0.0023
 6310TIP3    H140345   1.395   0.645   4.348  0.4796  1.8684  0.6409
 6310TIP3    H240346   1.318   0.757   4.282 -1.5167  0.1496 -0.0776
 6311TIP3   OH240347   4.539   0.933  15.596 -0.6933  0.0180 -1.5502
 6311TIP3    H140348   4.524   0.854  15.543 -2.0859 -1.7619  1.2324
 6311TIP3    H240349   4.487   0.918  15.675  1.4995  2.3195  0.4818
 6312TIP3   OH240350   5.202   2.309   0.458  0.3538  1.0865  0.3629
 6312TIP3    H140351   5.279   2.268   0.418  0.0818 -2.1810  2.7012
 6312TIP3    H240352   5.144   2.329   0.385  1.5563 -0.6956 -1.1595
 6313TIP3   OH240353   5.812   2.919   3.706  0.0839 -0.5417 -0.0382
 6313TIP3    H140354   5.764   2.863   3.768  0.1646 -0.8336 -0.2379
 6313TIP3    H240355   5.847   2.858   3.642  0.6558 -0.3173  0.0584
 6314TIP3   OH240356   2.654   1.894  13.247  0.3298  0.0838 -0.4777
 6314TIP3    H140357   2.634   1.969  13.303  1.9509  0.4602 -0.3554
 6314TIP3    H240358   2.637   1.925  13.158 -0.3387  0.1306 -0.3392
 6315TIP3   OH240359   0.055   2.212   4.954  0.2159 -0.2276  0.5566
 6315TIP3    H140360   0.079   2.130   4.910  0.2823  0.3528 -0.5196
 6315TIP3    H240361   0.021   2.184   5.039  0.1237 -1.3887  0.1601
 6316TIP3   OH240362   5.808   4.778  13.421 -0.6517 -0.3976  0.0472
 6316TIP3    H140363   5.766   4.746  13.342 -1.2226 -0.3961  0.3450
 6316TIP3    H240364   5.742   4.833  13.463  0.4198  1.4835 -0.6170
 6317TIP3   OH240365   1.558   6.696   2.912  0.2380 -0.3236  0.2216
 6317TIP3    H140366   1.628   6.649   2.868 -0.3315 -1.0995  0.1332
 6317TIP3    H240367   1.569   6.673   3.005 -0.7801 -1.6284  0.0344
 6318TIP3   OH240368   1.433   6.447  16.087 -0.2845 -0.5349  0.2532
 6318TIP3    H140369   1.385   6.484  16.013  1.6164 -0.0398 -0.8137
 6318TIP3    H240370   1.381   6.470  16.163 -1.3636  0.5948 -0.7738
 6319TIP3   OH240371   2.522   6.137  11.266 -0.2854 -0.2240 -0.4685
 6319TIP3    H140372   2.598   6.086  11.293 -0.5442 -0.3005  0.1365
 6319TIP3    H240373   2.531   6.146  11.171  0.9346  0.5120 -0.3032
 6320TIP3   OH240374   6.104   1.964  14.586  0.1986  0.3730  0.0090
 6320TIP3    H140375   6.179   1.908  14.567  1.3929  2.2714 -1.2233
 6320TIP3    H240376   6.134   2.023  14.655 -1.3576 -1.0163  1.9906
 6321TIP3   OH240377   1.603   5.767  11.375  0.0256  0.1363 -0.1568
 6321TIP3    H140378   1.600   5.844  11.432  2.4479 -0.2230  0.5788
 6321TIP3    H240379   1.695   5.761  11.348 -0.1376 -2.3739 -0.3668
 6322TIP3   OH240380   3.499   4.149   0.660  0.8605 -0.0233 -0.4929
 6322TIP3    H140381   3.551   4.089   0.713  1.3933 -0.3763 -1.4074
 6322TIP3    H240382   3.549   4.161   0.580 -0.0990  0.2493 -1.0684
 6323TIP3   OH240383   2.316   5.312  13.171 -0.3685  0.3475  0.4888
 6323TIP3    H140384   2.246   5.370  13.143 -0.2550 -0.4629 -1.7435
 6323TIP3    H240385   2.280   5.224  13.160  1.2783 -0.1481 -1.9261
 6324TIP3   OH240386   5.000   3.735  13.522 -0.0697 -0.1939  0.4030
 6324TIP3    H140387   5.081   3.784  13.503  0.3609 -1.0975 -0.1649
 6324TIP3    H240388   4.930   3.800  13.513  0.4236  0.1781 -1.0722
 6325TIP3   OH240389   1.034   3.671  12.138 -0.5463 -0.2326 -0.5928
 6325TIP3    H140390   1.020   3.624  12.220  2.0459  0.0336  0.1189
 6325TIP3    H240391   0.981   3.624  12.073  0.0011 -2.6023  0.5593
 6326TIP3   OH240392   5.850   0.885  14.593 -0.0371 -0.6921 -0.0319
 6326TIP3    H140393   5.831   0.792  14.584  0.5043 -1.0009  1.6800
 6326TIP3    H240394   5.939   0.895  14.557 -0.9679 -0.3417 -2.4417
 6327TIP3   OH240395   3.064   5.509  14.638 -0.1899 -0.5750  0.5277
 6327TIP3    H140396   3.151   5.537  14.612  0.2883 -0.6463  1.9992
 6327TIP3    H240397   3.014   5.507  14.556  0.2611  2.6687  0.0759
 6328TIP3   OH240398   0.591   1.524   5.233 -0.4425 -0.1401 -0.3171
 6328TIP3    H140399   0.642   1.494   5.157 -0.7436 -1.7283  0.0728
 6328TIP3    H240400   0.545   1.602   5.201  0.7434  0.2132 -1.2452
 6329TIP3   OH240401   2.225   4.543   5.573 -0.1857 -0.1194  0.6934
 6329TIP3    H140402   2.136   4.578   5.576 -1.0387 -2.0859  0.0570
 6329TIP3    H240403   2.249   4.529   5.664 -0.1548  1.2805  0.9082
 6330TIP3   OH240404   2.834   3.663  11.271 -0.4467 -0.1289  0.3117
 6330TIP3    H140405   2.927   3.674  11.253 -0.2919 -2.2294 -0.4988
 6330TIP3    H240406   2.793   3.742  11.234  1.0215  1.0605  1.1132
 6331TIP3   OH240407   5.738   0.884   6.373 -0.0255  0.3523 -0.0822
 6331TIP3    H140408   5.686   0.804   6.375  0.0585  0.2812  2.0582
 6331TIP3    H240409   5.693   0.941   6.311 -1.8388 -0.2501  0.6120
 6332TIP3   OH240410   3.757   2.504   3.711  0.0664 -0.6192  0.6580
 6332TIP3    H140411   3.836   2.453   3.729  0.7041  0.1164  0.0285
 6332TIP3    H240412   3.718   2.519   3.796  0.5157 -1.1442  0.9633
 6333TIP3   OH240413   2.763   4.553  10.845 -0.1626  0.2772 -0.2138
 6333TIP3    H140414   2.779   4.608  10.922 -2.0207  0.6139 -0.0215
 6333TIP3    H240415   2.778   4.610  10.770  1.5340 -0.0175 -0.1378
 6334TIP3   OH240416   2.638   1.299   2.958  0.2563 -0.1996  0.2108
 6334TIP3    H140417   2.646   1.378   2.905  0.0065 -0.4158 -0.1495
 6334TIP3    H240418   2.638   1.331   3.048 -1.6209  0.3850  0.0454
 6335TIP3   OH240419   5.514   2.906   2.372 -0.3801 -0.3532 -0.6700
 6335TIP3    H140420   5.546   2.994   2.392 -0.2771 -0.4134 -0.5653
 6335TIP3    H240421   5.584   2.866   2.320  1.1748 -1.5747  2.1337
 6336TIP3   OH240422   6.117   5.310   0.780 -0.1072 -0.0971  0.1761
 6336TIP3    H140423   6.177   5.270   0.718 -0.8798 -1.4959  0.2942
 6336TIP3    H240424   6.154   5.397   0.797  1.5301 -0.6906 -0.2159
 6337TIP3   OH240425   2.985   0.740  15.111 -0.0529  0.0983 -0.1903
 6337TIP3    H140426   3.053   0.785  15.061  2.5674 -0.4481  2.5669
 6337TIP3    H240427   3.009   0.647  15.104  1.2879  0.0779  2.9753
 6338TIP3   OH240428   5.254   0.065  16.642 -0.0537  0.0571 -0.3633
 6338TIP3    H140429   5.259   0.045  16.548 -1.3262  0.4547 -0.5349
 6338TIP3    H240430   5.240   0.160  16.645 -2.4275 -0.2407  0.1117
 6339TIP3   OH240431   5.883   4.062  11.158  0.1121  0.0111 -0.1811
 6339TIP3    H140432   5.860   4.027  11.244 -0.2398 -0.1817 -0.3474
 6339TIP3    H240433   5.876   3.986  11.099 -1.2168  0.4591 -0.6460
 6340TIP3   OH240434   2.724   6.029   5.015 -0.2052 -0.7134 -0.6125
 6340TIP3    H140435   2.718   5.979   4.933 -2.4686  0.2888 -1.1433
 6340TIP3    H240436   2.654   5.992   5.070 -0.5644  0.4763 -0.2437
 6341TIP3   OH240437   0.777   3.310   0.502 -0.5821  0.1960  0.4688
 6341TIP3    H140438   0.818   3.350   0.578 -2.0115  0.3280  1.2155
 6341TIP3    H240439   0.846   3.257   0.462  0.0750 -0.2778  2.1533
 6342TIP3   OH240440   5.436   6.412  15.230  0.6481 -0.4998  0.1742
 6342TIP3    H140441   5.372   6.479  15.205  2.1035  0.1647 -2.0802
 6342TIP3    H240442   5.444   6.421  15.325 -2.7990 -0.8526  0.6453
 6343TIP3   OH240443   4.976   1.037   3.781  0.7959  0.5929  0.0745
 6343TIP3    H140444   4.968   1.119   3.732 -0.8100  0.2593 -0.2878
 6343TIP3    H240445   4.949   0.969   3.719 -0.5017  0.0839  1.1489
 6344TIP3   OH240446   4.268   1.849  12.848 -0.4248 -0.1692 -0.2785
 6344TIP3    H140447   4.310   1.932  12.872 -1.6567  0.2642  0.5436
 6344TIP3    H240448   4.267   1.850  12.752  0.9501  0.0264 -0.3091
 6345TIP3   OH240449   1.015   1.642   0.052  0.4856 -0.2271  0.4834
 6345TIP3    H140450   0.936   1.691   0.073 -0.4105 -1.8151  0.9920
 6345TIP3    H240451   1.073   1.706   0.011 -1.2329  0.8597 -0.3522
 6346TIP3   OH240452   2.044   5.180   4.182  0.5997 -0.2259 -0.1300
 6346TIP3    H140453   2.124   5.134   4.209 -0.2910 -1.5253  0.4172
 6346TIP3    H240454   2.001   5.202   4.265 -1.6617 -3.3340 -0.2834
 6347TIP3   OH240455   0.875   6.700   4.917 -0.5426  0.4337  0.7191
 6347TIP3    H140456   0.843   6.667   4.833  2.4738 -0.1354 -0.3313
 6347TIP3    H240457   0.806   6.680   4.980 -2.6895  0.4737 -1.5292
 6348TIP3   OH240458   5.491   1.078  15.428  0.4188  0.0243 -0.5728
 6348TIP3    H140459   5.583   1.073  15.455  0.4174  0.2984 -0.5221
 6348TIP3    H240460   5.458   0.989  15.441  1.1214 -0.5151 -2.2160
 6349TIP3   OH240461   3.565   2.908  15.315  0.3533  0.2025  0.0767
 6349TIP3    H140462   3.616   2.907  15.396 -1.0128 -0.0343  0.9511
 6349TIP3    H240463   3.501   2.978  15.327 -1.8345 -1.7466  0.5062
 6350TIP3   OH240464   6.422   4.759  14.720 -0.1674  0.0368  0.5720
 6350TIP3    H140465   6.370   4.723  14.648  0.3365  0.3952  0.0230
 6350TIP3    H240466   6.509   4.724  14.707  0.9544  3.0612 -1.2957
 6351TIP3   OH240467   0.716   6.709  10.646  0.3223  0.3792 -0.1962
 6351TIP3    H140468   0.804   6.740  10.669 -0.2571  1.3578  0.8218
 6351TIP3    H240469   0.677   6.782  10.597  1.3786 -1.4896 -4.2403
 6352TIP3   OH240470   2.398   4.329   5.506  0.1883  0.3438  0.3826
 6352TIP3    H140471   2.468   4.326   5.571 -1.8960 -1.2678  2.7321
 6352TIP3    H240472   2.337   4.395   5.539 -0.4489  0.2049 -0.4750
 6353TIP3   OH240473   1.085   5.029   2.445 -0.1440 -0.7792 -0.3514
 6353TIP3    H140474   1.089   5.090   2.372 -4.1413  0.1072 -0.0405
 6353TIP3    H240475   1.053   5.081   2.518 -0.3172 -2.5442  0.8881
 6354TIP3   OH240476   0.628   4.768   0.330  0.0741  0.2021  0.1118
 6354TIP3    H140477   0.578   4.764   0.411  1.0833 -1.5646  0.7021
 6354TIP3    H240478   0.688   4.693   0.335 -0.2297 -0.3143 -2.5208
 6355TIP3   OH240479   5.582   5.348  12.777 -0.1442  0.4294  0.2209
 6355TIP3    H140480   5.544   5.396  12.704 -1.2110  0.0267  0.4903
 6355TIP3    H240481   5.508   5.331  12.836 -0.1538 -2.7648 -0.5249
 6356TIP3   OH240482   3.237   4.183  16.684 -0.6621 -0.0145  0.6580
 6356TIP3    H140483   3.187   4.206  16.606 -0.6383  0.8839  0.8985
 6356TIP3    H240484   3.314   4.239  16.681  0.1220 -1.0638  0.5336
 6357TIP3   OH240485   2.230   0.688   2.597  0.3843  0.4068  0.0200
 6357TIP3    H140486   2.154   0.727   2.639  0.7067  0.6689  0.3632
 6357TIP3    H240487   2.303   0.706   2.657  0.5526 -0.6412  0.1401
 6358TIP3   OH240488   5.306   5.955  16.221  0.3795  0.3644  0.3008
 6358TIP3    H140489   5.317   6.049  16.231  1.5410  0.4103 -1.0154
 6358TIP3    H240490   5.262   5.945  16.137 -1.2473 -0.2427  1.1780
 6359TIP3   OH240491   3.629   2.276  10.413  0.2064 -0.2597  0.0469
 6359TIP3    H140492   3.653   2.355  10.366 -1.1644  0.0732 -0.1592
 6359TIP3    H240493   3.534   2.267  10.398 -0.2898 -0.1876  2.6041
 6360TIP3   OH240494   0.008   1.394   6.486 -0.5611  0.1477  0.2337
 6360TIP3    H140495  -0.063   1.351   6.439  1.9139 -2.4283 -1.4954
 6360TIP3    H240496   0.041   1.460   6.425 -0.0497 -0.2471  0.0737
 6361TIP3   OH240497   5.723   3.182   2.351  0.4105  0.1177  0.7670
 6361TIP3    H140498   5.780   3.223   2.287  1.3100 -2.9702 -0.5988
 6361TIP3    H240499   5.638   3.225   2.339  1.4201  2.0090  0.0141
 6362TIP3   OH240500   3.820   5.224   5.561  0.8793  0.1712  0.3378
 6362TIP3    H140501   3.761   5.152   5.579  1.0585  0.3660  1.7902
 6362TIP3    H240502   3.828   5.271   5.644  1.7108  1.1613 -0.2676
 6363TIP3   OH240503   2.135   0.364  11.889  0.0935 -0.3157  0.0921
 6363TIP3    H140504   2.143   0.290  11.950  0.9731  1.7200  2.6532
 6363TIP3    H240505   2.159   0.440  11.942 -0.6316  1.8033 -2.4553
 6364TIP3   OH240506   1.730   3.499   2.564 -0.3001  0.1828 -0.4194
 6364TIP3    H140507   1.825   3.498   2.567 -0.2821  1.5354  2.1030
 6364TIP3    H240508   1.702   3.450   2.641 -1.5976  0.9639 -0.3609
 6365TIP3   OH240509   6.608   3.104   0.569  1.1942 -0.1112 -0.0276
 6365TIP3    H140510   6.591   3.167   0.499 -0.2822  0.1642  0.5439
 6365TIP3    H240511   6.665   3.152   0.630 -0.9729  1.2424  1.0732
 6366TIP3   OH240512   1.405   0.977   2.489 -0.5807 -0.7795  0.0494
 6366TIP3    H140513   1.457   0.984   2.409  0.1877  0.9313  0.6499
 6366TIP3    H240514   1.470   0.957   2.557 -0.9343 -0.2512  0.5482
 6367TIP3   OH240515   1.189   1.112   1.398 -0.0398  0.2152 -0.0348
 6367TIP3    H140516   1.098   1.138   1.415  0.1296  0.2735  0.8676
 6367TIP3    H240517   1.217   1.072   1.480 -0.0049 -2.0374 -1.0696
 6368TIP3   OH240518   3.439   2.376  16.417  0.2204  0.0947  0.6033
 6368TIP3    H140519   3.509   2.433  16.385  0.3105  0.2002  0.9905
 6368TIP3    H240520   3.393   2.429  16.482 -0.4299  0.1478  0.1122
 6369TIP3   OH240521   2.793   2.299   1.954  0.5153 -0.2094  0.1889
 6369TIP3    H140522   2.862   2.240   1.985  1.4790  1.2154  0.8215
 6369TIP3    H240523   2.798   2.294   1.859  1.5248 -0.0983  0.2256
 6370TIP3   OH240524   4.717   1.590   0.893  0.2364 -0.3824 -0.1341
 6370TIP3    H140525   4.687   1.660   0.952  0.1391 -0.2605 -0.3274
 6370TIP3    H240526   4.687   1.509   0.934  0.2688 -0.3053  0.0431
 6371TIP3   OH240527   4.656   5.697   3.631 -0.4213  0.6692  0.1445
 6371TIP3    H140528   4.750   5.713   3.628 -0.4849  1.0134 -0.0022
 6371TIP3    H240529   4.649   5.602   3.643 -0.0567  0.6560  0.2704
 6372TIP3   OH240530   1.858   2.563  16.184  0.1094 -0.2286 -0.0181
 6372TIP3    H140531   1.774   2.531  16.218  1.5694 -2.5896  1.5953
 6372TIP3    H240532   1.841   2.577  16.090 -1.9008 -1.2584  0.1290
 6373TIP3   OH240533   0.834   6.418  13.360 -0.2772  0.0416  0.6943
 6373TIP3    H140534   0.827   6.370  13.277 -0.5784 -2.3021  1.9672
 6373TIP3    H240535   0.775   6.492  13.350  1.0183  0.8466 -1.7804
 6374TIP3   OH240536   0.403   3.504  15.537 -0.1465  0.2912  0.4667
 6374TIP3    H140537   0.398   3.598  15.558 -0.0198  0.3749  0.1307
 6374TIP3    H240538   0.344   3.462  15.601  0.4319  0.5053  1.1585
 6375TIP3   OH240539   1.722   3.834  11.718 -0.4955 -0.1376  0.2079
 6375TIP3    H140540   1.642   3.885  11.728 -0.8915 -0.7533  0.1975
 6375TIP3    H240541   1.765   3.839  11.803  0.8085  2.4006 -0.4831
 6376TIP3   OH240542   3.246   6.359  16.938 -0.4049  0.0251 -0.5626
 6376TIP3    H140543   3.171   6.306  16.913 -0.3047  0.6371 -2.3156
 6376TIP3    H240544   3.318   6.297  16.945 -0.9169 -0.4776  0.5338
 6377TIP3   OH240545   5.086   5.737  15.269 -0.0760  0.1867 -0.0516
 6377TIP3    H140546   5.058   5.828  15.274  2.5427  1.0283  0.6624
 6377TIP3    H240547   5.005   5.687  15.274 -1.4378  2.3936  2.2152
 6378TIP3   OH240548   2.969   4.168  13.172 -0.0160  0.4808 -0.3889
 6378TIP3    H140549   3.051   4.218  13.175 -1.0922  2.2964  0.3355
 6378TIP3    H240550   2.944   4.170  13.079 -0.5100  2.1718 -0.2569
 6379TIP3   OH240551   5.797   2.241   4.113 -0.3841 -0.2249  0.5905
 6379TIP3    H140552   5.815   2.150   4.091  2.7555 -0.4841  3.3223
 6379TIP3    H240553   5.735   2.271   4.046  0.5239 -3.5470 -2.0009
 6380TIP3   OH240554   0.939   4.350   2.995  0.2128  0.5689  0.3741
 6380TIP3    H140555   0.905   4.437   2.974 -1.9582 -0.1878  0.4899
 6380TIP3    H240556   0.955   4.353   3.089 -1.4261  0.4065  0.6937
 6381TIP3   OH240557   6.645   4.336  16.480  0.1415 -0.2123  0.1628
 6381TIP3    H140558   6.551   4.343  16.498  0.0986  1.7790 -0.5693
 6381TIP3    H240559   6.650   4.296  16.393  0.0170 -1.3196  0.6613
 6382TIP3   OH240560   4.360   2.484  13.427 -0.5488  0.5099 -0.6357
 6382TIP3    H140561   4.423   2.424  13.386  1.8144  1.8162  0.8323
 6382TIP3    H240562   4.400   2.570  13.419 -1.2376  1.1686  1.9520
 6383TIP3   OH240563   6.395   4.909   6.038  0.1241  0.4465 -0.1405
 6383TIP3    H140564   6.382   4.966   5.962  1.6790  0.7272 -0.2283
 6383TIP3    H240565   6.428   4.827   6.001 -1.4214 -0.2982  0.0499
 6384TIP3   OH240566   4.185   3.537   0.801  0.2676 -0.0358 -0.3183
 6384TIP3    H140567   4.090   3.531   0.815  0.1279  3.0232  0.6628
 6384TIP3    H240568   4.194   3.587   0.720  1.0597  0.1298 -0.1345
 6385TIP3   OH240569   5.388   6.563   0.303  0.5372  0.3668 -0.1130
 6385TIP3    H140570   5.363   6.577   0.394 -1.4058 -2.3764 -0.1190
 6385TIP3    H240571   5.481   6.539   0.307  0.8132  1.4995  0.9494
 6386TIP3   OH240572   6.471   2.912  15.428  0.1360 -0.1112 -0.6087
 6386TIP3    H140573   6.510   2.946  15.508 -0.7966 -3.0675  1.2630
 6386TIP3    H240574   6.381   2.943  15.429  0.4011  0.6967 -1.0850
 6387TIP3   OH240575   3.405   6.679   0.009  0.0488  0.3755  0.0483
 6387TIP3    H140576   3.431   6.687   0.101  1.0035  3.0621 -0.3774
 6387TIP3    H240577   3.355   6.597   0.005 -0.2110  0.3064  2.9765
 6388TIP3   OH240578   3.252   4.999  13.434  0.2619  0.0822  0.3302
 6388TIP3    H140579   3.191   4.997  13.508 -0.1562  1.0217  0.0248
 6388TIP3    H240580   3.323   5.055  13.464  0.3590  0.0183  0.2167
 6389TIP3   OH240581   6.591   1.624   3.616  0.3577  0.1404  0.1693
 6389TIP3    H140582   6.678   1.603   3.582 -1.2077 -3.8264 -2.0101
 6389TIP3    H240583   6.595   1.601   3.708  1.4351 -0.6520 -0.0548
 6390TIP3   OH240584   0.611   5.739   0.617 -0.0200 -0.0898 -0.4837
 6390TIP3    H140585   0.542   5.785   0.569  0.7920 -0.5485 -2.1689
 6390TIP3    H240586   0.572   5.655   0.640 -0.2667 -0.0535 -0.7692
 6391TIP3   OH240587   3.201   1.580   6.161  0.1316  0.1775 -0.3034
 6391TIP3    H140588   3.262   1.548   6.227 -0.7427 -1.0607 -0.0609
 6391TIP3    H240589   3.218   1.674   6.156  0.2545  0.3012  1.6396
 6392TIP3   OH240590   4.099   2.859   5.063 -0.8182  0.3085  0.2136
 6392TIP3    H140591   4.060   2.946   5.053 -0.6385  0.7126  2.3723
 6392TIP3    H240592   4.046   2.818   5.132  1.3459  0.1543  1.8719
 6393TIP3   OH240593   3.722   1.433  11.677  0.4266  0.3623 -0.2541
 6393TIP3    H140594   3.780   1.415  11.751  1.0781 -1.4182 -1.1586
 6393TIP3    H240595   3.755   1.515  11.640  0.4978  0.9334  0.9976
 6394TIP3   OH240596   6.310   3.768  11.868  0.4632  0.3781 -0.3148
 6394TIP3    H140597   6.218   3.759  11.891  0.2830 -0.8679 -1.4604
 6394TIP3    H240598   6.316   3.854  11.826 -0.5999 -0.3156 -2.0079
 6395TIP3   OH240599   3.234   6.471   0.014  0.5066 -0.0304 -0.1842
 6395TIP3    H140600   3.247   6.418  -0.064 -2.0113  0.2560 -0.8792
 6395TIP3    H240601   3.202   6.410   0.080  0.6059  0.1043 -0.0075
 6396TIP3   OH240602   4.392   5.068  15.085  0.5168 -0.0278  0.0011
 6396TIP3    H140603   4.436   5.138  15.134  1.1367 -0.8948  0.7093
 6396TIP3    H240604   4.371   5.002  15.151 -2.0845  0.4399 -0.2687
 6397TIP3   OH240605   5.259   4.703   4.121  0.2721 -0.1513  0.2354
 6397TIP3    H140606   5.289   4.699   4.211 -0.7220 -0.6312  0.5579
 6397TIP3    H240607   5.272   4.795   4.096 -0.4401  0.2376  1.2257
 6398TIP3   OH240608   0.554   1.380   6.283  0.0575 -0.4547  0.7843
 6398TIP3    H140609   0.467   1.351   6.256 -0.4042  1.8982 -0.5012
 6398TIP3    H240610   0.608   1.301   6.279 -1.6296 -1.6280 -0.0354
 6399TIP3   OH240611   4.302   3.330   2.633 -0.3308 -0.0823 -0.2002
 6399TIP3    H140612   4.308   3.236   2.649  1.7309  0.1528  0.6046
 6399TIP3    H240613   4.374   3.349   2.573 -1.0437  0.9266 -0.7668
 6400TIP3   OH240614   1.831   6.635  11.103  0.0828  0.4197  0.4764
 6400TIP3    H140615   1.756   6.584  11.131  1.6781 -1.8281  0.9380
 6400TIP3    H240616   1.844   6.610  11.011  0.7675  0.1147  0.6513
 6401TIP3   OH240617   5.508   0.628  11.284  0.0386 -0.2259  0.3590
 6401TIP3    H140618   5.591   0.659  11.319 -0.0210 -0.8919  1.1171
 6401TIP3    H240619   5.499   0.539  11.317 -1.3097  0.0756  0.9053
 6402TIP3   OH240620   3.498   6.575  13.956  0.8169 -0.2312  0.7438
 6402TIP3    H140621   3.480   6.667  13.976 -0.6219 -0.4798  0.6851
 6402TIP3    H240622   3.431   6.526  14.003  1.2760 -1.2284  0.3965
 6403TIP3   OH240623   2.490   1.162   4.987  0.2666  0.2480 -0.0835
 6403TIP3    H140624   2.584   1.168   5.007  0.7674 -0.3971 -2.0129
 6403TIP3    H240625   2.454   1.110   5.059  1.2256  1.1305  1.0838
 6404TIP3   OH240626   4.092   4.070   1.245  0.1809 -0.0525  0.1516
 6404TIP3    H140627   4.131   3.983   1.256 -0.3451 -0.0443  2.7425
 6404TIP3    H240628   4.075   4.100   1.335 -2.1515  1.5850 -0.7349
 6405TIP3   OH240629   5.697   4.006   2.928  0.4107 -0.0960 -0.3476
 6405TIP3    H140630   5.676   3.957   2.849 -1.8925  0.5057 -0.1873
 6405TIP3    H240631   5.746   4.082   2.897  1.7256 -1.1393 -0.8819
 6406TIP3   OH240632   5.336   2.404   4.678  0.0881 -0.0246  0.5985
 6406TIP3    H140633   5.300   2.344   4.743 -0.8794 -0.6224 -0.4344
 6406TIP3    H240634   5.283   2.388   4.599 -1.9440  3.9916  0.9239
 6407TIP3   OH240635   4.711   4.750  14.194  0.2015 -0.3417  0.5201
 6407TIP3    H140636   4.806   4.740  14.202 -0.0765 -2.7245  1.7025
 6407TIP3    H240637   4.693   4.736  14.101  1.1872  3.0247 -0.3242
 6408TIP3   OH240638   6.033   3.736  15.758  0.4225 -0.4417  0.2060
 6408TIP3    H140639   6.035   3.679  15.681 -0.4293 -0.5335  0.2354
 6408TIP3    H240640   5.947   3.778  15.754  1.1242  1.0399  0.0566
 6409TIP3   OH240641   2.786   2.646  15.862 -0.8527  0.2765  0.1583
 6409TIP3    H140642   2.855   2.659  15.927 -0.7048 -0.2118  0.0984
 6409TIP3    H240643   2.803   2.559  15.825  0.2441  1.2987 -1.9328
 6410TIP3   OH240644   0.824   0.206   4.795 -0.4149 -0.5068  0.2513
 6410TIP3    H140645   0.898   0.189   4.737 -0.7303 -0.2232 -0.2452
 6410TIP3    H240646   0.764   0.133   4.779  0.2074 -1.3027  1.4241
 6411TIP3   OH240647   2.604   3.606  12.780  0.3864  0.1529 -0.3622
 6411TIP3    H140648   2.673   3.569  12.725  0.1976 -2.3399  0.9305
 6411TIP3    H240649   2.527   3.552  12.762 -0.3381  0.8561  0.5303
 6412TIP3   OH240650   3.396   4.742   5.166  0.0595 -0.7239  0.4181
 6412TIP3    H140651   3.342   4.710   5.094  0.7515 -0.0086 -0.4374
 6412TIP3    H240652   3.332   4.775   5.230 -0.5985 -2.2700  0.6101
 6413TIP3   OH240653   5.702   5.025   5.037  0.2246 -0.4473  0.2638
 6413TIP3    H140654   5.738   5.113   5.042  2.4201 -1.2017 -0.8510
 6413TIP3    H240655   5.617   5.031   5.080  1.3339  1.6575  2.3611
 6414TIP3   OH240656   4.404   2.234   4.240 -0.2544  0.4197  0.5472
 6414TIP3    H140657   4.311   2.212   4.233  0.0559 -0.7009 -0.3210
 6414TIP3    H240658   4.408   2.327   4.222 -0.9723  0.0586 -1.8711
 6415TIP3   OH240659   6.582   2.946   4.179  0.1864 -0.2831  0.3867
 6415TIP3    H140660   6.630   2.953   4.261  0.0770 -1.4945  0.5687
 6415TIP3    H240661   6.641   2.981   4.113  1.3056 -1.7107  0.6104
 6416TIP3   OH240662   2.933   4.830   5.511  0.9247  0.1806 -0.1434
 6416TIP3    H140663   2.926   4.921   5.481  0.4821 -0.0049 -0.6090
 6416TIP3    H240664   2.977   4.785   5.439  4.1805  0.6503  1.3798
 6417TIP3   OH240665   5.855   3.223   3.455  0.3475  0.1848  0.9131
 6417TIP3    H140666   5.894   3.164   3.520  1.1990  0.2962  0.5065
 6417TIP3    H240667   5.893   3.196   3.372  0.7943  1.3468  0.7278
 6418TIP3   OH240668   0.370   5.360   5.007 -0.3178  0.1895  0.1134
 6418TIP3    H140669   0.309   5.371   4.934  0.2163 -0.1381 -0.3939
 6418TIP3    H240670   0.332   5.411   5.078 -0.7450  0.6861 -0.4592
 6419TIP3   OH240671   2.674   5.328  13.446 -0.2279 -0.2610 -0.1828
 6419TIP3    H140672   2.650   5.404  13.392  0.7825  1.6110  1.8392
 6419TIP3    H240673   2.591   5.283  13.462 -0.8752  0.4745 -1.3397
 6420TIP3   OH240674   6.696   5.091  13.179 -0.0351  1.0337  0.4180
 6420TIP3    H140675   6.660   5.003  13.172  0.2012  0.9561  0.1705
 6420TIP3    H240676   6.647   5.142  13.115  1.5390  0.5147 -1.2746
 6421TIP3   OH240677   3.138   1.203   2.179  0.4047  0.6249 -0.5573
 6421TIP3    H140678   3.194   1.163   2.113 -0.0686 -1.9897  0.5102
 6421TIP3    H240679   3.144   1.145   2.255 -0.8632  2.2735  0.9019
 6422TIP3   OH240680   6.764   2.654  14.675  0.7044 -0.7311  0.1046
 6422TIP3    H140681   6.789   2.569  14.710  2.4899  0.7682  2.9075
 6422TIP3    H240682   6.837   2.679  14.618  0.0610 -1.1532 -0.9219
 6423TIP3   OH240683   0.898   6.033  16.820 -0.4034 -0.1353  0.0685
 6423TIP3    H140684   0.877   5.982  16.741 -2.3059 -0.9023  1.0218
 6423TIP3    H240685   0.824   6.020  16.878  0.5643  1.1184  1.6773
 6424TIP3   OH240686   2.264   0.985   2.278  0.2432 -0.3030 -0.2949
 6424TIP3    H140687   2.298   1.035   2.204 -0.5778 -0.6820 -0.9379
 6424TIP3    H240688   2.319   1.013   2.352 -0.2168  1.5939 -0.6112
 6425TIP3   OH240689   2.634   4.328  12.053  0.0422 -0.1826  0.8492
 6425TIP3    H140690   2.567   4.318  11.985  0.1468  2.1651  0.3074
 6425TIP3    H240691   2.586   4.329  12.135 -0.6775  1.7565  0.4480
 6426TIP3   OH240692   4.004   4.691   1.219  0.0582 -0.0468  0.4966
 6426TIP3    H140693   4.094   4.664   1.202 -0.1402 -1.5537  1.5915
 6426TIP3    H240694   3.977   4.639   1.295 -1.5742  0.7352  0.5062
 6427TIP3   OH240695   0.376   0.683   4.880  0.4451 -0.6849  0.7029
 6427TIP3    H140696   0.426   0.610   4.843 -1.2761 -1.7699  0.4134
 6427TIP3    H240697   0.316   0.641   4.941 -3.1036 -0.0568 -2.0423
 6428TIP3   OH240698   5.581   3.870  13.365  0.0634  0.4633  0.4115
 6428TIP3    H140699   5.570   3.944  13.424  0.6153  1.1471 -0.3150
 6428TIP3    H240700   5.561   3.906  13.278 -1.6616 -0.7511  0.2729
 6429TIP3   OH240701   5.001   6.291  13.613 -0.0049 -0.7227 -0.5254
 6429TIP3    H140702   4.930   6.325  13.667 -0.9013 -1.1135 -1.4332
 6429TIP3    H240703   5.061   6.365  13.602 -0.3482 -0.3489  0.1121
 6430TIP3   OH240704   2.523   3.864  13.548  0.8239  0.4198 -0.3395
 6430TIP3    H140705   2.614   3.891  13.542  1.1621 -0.8121 -1.0249
 6430TIP3    H240706   2.520   3.779  13.505 -0.5208  0.1299  0.2687
 6431TIP3   OH240707   5.574   5.989  16.367 -0.5904 -0.3338  0.6379
 6431TIP3    H140708   5.611   6.026  16.287  0.7478 -1.4118  0.7249
 6431TIP3    H240709   5.502   5.934  16.337 -1.2079  0.6153  0.3393
 6432TIP3   OH240710   3.728   0.306  10.723 -0.1590 -0.5244  0.1183
 6432TIP3    H140711   3.801   0.360  10.753 -0.4609 -1.1402  2.1761
 6432TIP3    H240712   3.672   0.366  10.674 -0.6064  1.1937  2.5196
 6433TIP3   OH240713   5.588   2.431  13.541  0.2176 -0.0286  0.0473
 6433TIP3    H140714   5.494   2.425  13.525  0.1011 -0.5980  0.8924
 6433TIP3    H240715   5.628   2.378  13.472 -0.1250 -0.4536  0.1727
 6434TIP3   OH240716   6.657   3.372  12.097  0.2466  0.4717  0.3027
 6434TIP3    H140717   6.598   3.343  12.166 -1.8825 -0.6058 -1.8142
 6434TIP3    H240718   6.612   3.447  12.057  1.0418  0.5957 -0.3846
 6435TIP3   OH240719   1.599   3.487   0.628  0.3256  0.4486 -0.2865
 6435TIP3    H140720   1.559   3.516   0.710 -1.0280 -1.5853 -0.1235
 6435TIP3    H240721   1.564   3.546   0.562 -1.5702 -0.1158  0.1378
 6436TIP3   OH240722   0.196   5.917  11.211 -0.2350  0.4812 -0.1398
 6436TIP3    H140723   0.259   5.979  11.175 -1.3605  2.5938  1.3219
 6436TIP3    H240724   0.111   5.950  11.184 -0.8429 -1.8646 -1.3894
 6437TIP3   OH240725   3.149   5.443   2.031 -0.5194  0.4025 -0.2615
 6437TIP3    H140726   3.106   5.388   2.097  1.2863  0.8228  1.3559
 6437TIP3    H240727   3.119   5.408   1.947 -1.0082 -1.7201  0.7313
 6438TIP3   OH240728   6.737   2.064   5.603  0.1034  0.0155 -0.5983
 6438TIP3    H140729   6.658   2.039   5.555  0.3939 -1.1262 -0.5067
 6438TIP3    H240730   6.710   2.062   5.695  0.3862 -0.9961 -0.5251
 6439TIP3   OH240731   5.861   3.214   0.269 -0.4760  0.0050 -0.1295
 6439TIP3    H140732   5.832   3.138   0.318  1.5851 -0.5405  0.3249
 6439TIP3    H240733   5.815   3.288   0.309 -0.1542 -0.6366  1.4738
 6440TIP3   OH240734   5.751   0.610  14.555 -0.0116  0.2607 -0.7400
 6440TIP3    H140735   5.782   0.523  14.579  1.8189  1.3387  1.1325
 6440TIP3    H240736   5.668   0.620  14.602  0.5217  0.0367  0.2947
 6441TIP3   OH240737   1.181   3.676  16.705 -0.4101  0.4141  0.0276
 6441TIP3    H140738   1.101   3.627  16.723 -0.7271  0.8739 -0.1124
 6441TIP3    H240739   1.236   3.662  16.782 -0.6065  0.0556  0.1019
 6442TIP3   OH240740   0.665   0.856  15.321  0.3190  0.1051  0.1045
 6442TIP3    H140741   0.750   0.818  15.301  0.2534  0.2051 -0.3827
 6442TIP3    H240742   0.621   0.862  15.236  0.0983  0.7133  0.2555
 6443TIP3   OH240743   3.271   3.593   4.107  0.1809  0.4111 -0.2434
 6443TIP3    H140744   3.287   3.646   4.029 -2.2556  0.4004 -0.8301
 6443TIP3    H240745   3.230   3.653   4.169  1.6935  0.3056  0.9321
 6444TIP3   OH240746   3.896   5.382  12.745 -0.3867  0.0296  0.1686
 6444TIP3    H140747   3.951   5.315  12.785  1.0897  1.9988  1.6493
 6444TIP3    H240748   3.883   5.353  12.655 -1.3769 -3.1224  1.1934
 6445TIP3   OH240749   1.755   4.881  11.803 -0.1490  0.4346 -0.0319
 6445TIP3    H140750   1.822   4.825  11.765 -0.3477 -0.5133  0.9794
 6445TIP3    H240751   1.674   4.830  11.797 -0.3052  0.5339  1.0377
 6446TIP3   OH240752   4.198   6.082  11.703  0.3922  0.8414 -0.5862
 6446TIP3    H140753   4.235   6.169  11.686  1.4216  1.0147  2.0483
 6446TIP3    H240754   4.131   6.097  11.770  0.7189 -0.3936  0.0480
 6447TIP3   OH240755   3.522   1.517  12.136 -0.1851  0.8320  0.8094
 6447TIP3    H140756   3.438   1.531  12.092  0.3823  0.3087 -0.4847
 6447TIP3    H240757   3.560   1.441  12.092  1.3636  1.5910  0.7672
 6448TIP3   OH240758   4.540   3.296  15.591 -0.3801  0.9666  0.2711
 6448TIP3    H140759   4.526   3.224  15.529  1.0027 -0.5638  1.6521
 6448TIP3    H240760   4.456   3.342  15.593 -1.3158 -0.6060 -0.6575
 6449TIP3   OH240761   5.855   0.312   5.826 -0.0669  0.8693 -0.0270
 6449TIP3    H140762   5.882   0.228   5.863  0.0978  1.2844  0.7992
 6449TIP3    H240763   5.932   0.343   5.778 -0.6224 -0.1860 -1.7063
 6450TIP3   OH240764   4.779   0.175   4.291  0.3860 -0.1563 -0.0434
 6450TIP3    H140765   4.768   0.261   4.250  0.7465  0.8415  1.8417
 6450TIP3    H240766   4.777   0.113   4.218 -2.4318  1.2047 -1.2745
 6451TIP3   OH240767   3.463   3.714   0.108  0.4044 -0.5639  1.1247
 6451TIP3    H140768   3.406   3.691   0.034  1.1499  0.6142  0.1418
 6451TIP3    H240769   3.448   3.644   0.172 -2.7802  0.1181  1.3093
 6452TIP3   OH240770   1.879   3.851   4.803 -0.0345 -0.4488  0.2721
 6452TIP3    H140771   1.913   3.768   4.771  0.4568 -0.9388  1.9555
 6452TIP3    H240772   1.936   3.873   4.877 -0.5342  1.0862  0.2364
 6453TIP3   OH240773   2.857   3.226   3.689 -0.3257 -0.0370  0.6578
 6453TIP3    H140774   2.931   3.197   3.636  0.1776  0.9381  0.7930
 6453TIP3    H240775   2.795   3.153   3.688 -0.3969  0.0060 -1.3908
 6454TIP3   OH240776   4.433   4.387   3.565  0.6599  0.0908 -0.0658
 6454TIP3    H140777   4.445   4.297   3.594  1.2965 -0.1024 -0.8713
 6454TIP3    H240778   4.469   4.388   3.476 -0.6130  0.8144 -0.5886
 6455TIP3   OH240779   0.147   5.746   0.594  0.5271  0.0074  0.9563
 6455TIP3    H140780   0.142   5.812   0.663 -0.5381  0.4003  0.5229
 6455TIP3    H240781   0.057   5.716   0.583  0.4136  0.9031 -1.1636
 6456TIP3   OH240782   5.779   3.042  16.512  0.4128 -0.7994 -0.2918
 6456TIP3    H140783   5.781   2.969  16.575  2.3200 -1.6798 -1.2669
 6456TIP3    H240784   5.795   3.000  16.427  0.5488  0.6572 -1.0063
 6457TIP3   OH240785   4.237   5.060  13.637  0.2393 -0.5704  0.1356
 6457TIP3    H140786   4.182   5.076  13.713  0.5432  0.5687  0.1295
 6457TIP3    H240787   4.233   5.141  13.586  2.0603 -0.3797  0.2305
 6458TIP3   OH240788   1.997   0.968  10.988 -0.1588  0.1727  0.0302
 6458TIP3    H140789   1.921   0.919  10.955 -0.4558 -0.1951  1.2312
 6458TIP3    H240790   2.029   1.016  10.911 -0.7124 -0.8074 -0.8412
 6459TIP3   OH240791   0.088   0.848  11.282  0.3915 -0.5622 -0.2866
 6459TIP3    H140792   0.141   0.920  11.248 -0.1045 -0.2841 -0.4812
 6459TIP3    H240793   0.147   0.800  11.341  0.4094  0.6711  0.7488
 6460TIP3   OH240794   1.323   4.100   2.502 -0.2285 -0.7248  0.2550
 6460TIP3    H140795   1.327   4.155   2.580 -0.8571  0.0019 -0.2023
 6460TIP3    H240796   1.391   4.035   2.515 -0.5961 -0.8815  1.6047
 6461TIP3   OH240797   6.238   3.222  13.564 -0.1852  1.2270 -0.1646
 6461TIP3    H140798   6.243   3.189  13.474 -3.3441  0.9815 -0.3459
 6461TIP3    H240799   6.241   3.143  13.619  0.5143  1.2925 -0.0969
 6462TIP3   OH240800   1.424   6.732  15.063 -0.2612 -0.2763 -0.5631
 6462TIP3    H140801   1.505   6.682  15.070 -0.7322 -1.1859 -1.3768
 6462TIP3    H240802   1.356   6.665  15.053 -1.0467  0.4931 -0.4790
 6463TIP3   OH240803   5.709   0.993  14.394  0.0317  0.1043  0.7836
 6463TIP3    H140804   5.617   0.984  14.416 -0.1398  1.9659  0.9462
 6463TIP3    H240805   5.755   0.969  14.474 -0.4197  1.5902  1.5234
 6464TIP3   OH240806   3.635   3.499   3.464 -0.2570  0.0720 -0.4549
 6464TIP3    H140807   3.723   3.476   3.494 -0.9166  0.7366  2.2146
 6464TIP3    H240808   3.576   3.463   3.530 -2.0258 -0.2486 -2.1209
 6465TIP3   OH240809   5.834   5.238  10.374 -0.4937  0.5417 -0.2963
 6465TIP3    H140810   5.797   5.271  10.456 -2.6343  0.1558 -1.0342
 6465TIP3    H240811   5.812   5.145  10.373  0.9118  0.1952 -0.6011
 6466TIP3   OH240812   4.523   5.324  16.258  0.5761 -0.2328 -0.5447
 6466TIP3    H140813   4.489   5.370  16.181 -0.6044  0.1198  0.1671
 6466TIP3    H240814   4.450   5.271  16.289  1.0827 -0.4833  0.2484
 6467TIP3   OH240815   5.203   3.934   1.187 -0.0702 -0.1891  0.4199
 6467TIP3    H140816   5.135   3.917   1.121 -2.3338  3.0292  1.6601
 6467TIP3    H240817   5.238   4.020   1.165  2.6015 -1.0997  0.7535
 6468TIP3   OH240818   0.441   1.025   3.875 -0.0861 -0.2463  0.0583
 6468TIP3    H140819   0.421   1.097   3.935 -2.1045  0.0329 -0.8595
 6468TIP3    H240820   0.531   1.001   3.896  0.8028  2.7612  0.1711
 6469TIP3   OH240821   1.305   0.888  11.101 -0.0107  0.3739  0.1690
 6469TIP3    H140822   1.389   0.893  11.146  1.0733  1.4980 -1.8277
 6469TIP3    H240823   1.320   0.824  11.031 -1.6347 -1.3138  1.2747
 6470TIP3   OH240824   1.242   2.780  14.203  0.4098 -0.1375 -0.0399
 6470TIP3    H140825   1.267   2.856  14.254  0.6729 -0.1334 -0.1776
 6470TIP3    H240826   1.284   2.706  14.247 -1.4548 -0.4767  1.2959
 6471TIP3   OH240827   3.141   3.903   5.928  0.4606 -0.1210  0.3670
 6471TIP3    H140828   3.230   3.872   5.909  0.8806  0.7800  0.8091
 6471TIP3    H240829   3.116   3.854   6.006  1.8039  1.8029  2.1178
 6472TIP3   OH240830   2.745   6.357  14.883 -0.3885  0.5327  0.5701
 6472TIP3    H140831   2.817   6.353  14.946  0.4329  0.7736 -0.3391
 6472TIP3    H240832   2.739   6.450  14.860  1.0397  0.1290 -1.6401
 6473TIP3   OH240833   3.154   4.573  16.376 -0.0726  0.0141 -0.6936
 6473TIP3    H140834   3.093   4.534  16.313 -0.5706  0.7916 -0.7154
 6473TIP3    H240835   3.157   4.666  16.352  1.4423 -0.0776 -0.9353
 6474TIP3   OH240836   5.954   2.644   2.639  0.0137 -0.0906  0.2918
 6474TIP3    H140837   5.990   2.566   2.679  0.2434 -1.6035 -2.5964
 6474TIP3    H240838   6.022   2.675   2.579 -0.7759  1.2660  0.0317
 6475TIP3   OH240839   5.352   1.958  14.722 -0.7488 -0.7466 -0.5322
 6475TIP3    H140840   5.282   1.906  14.682 -2.0177  1.0522 -0.8186
 6475TIP3    H240841   5.330   1.960  14.815 -1.5112  0.3648 -0.7128
 6476TIP3   OH240842   0.687   1.624   0.292  0.5932  0.5078  0.3903
 6476TIP3    H140843   0.623   1.691   0.268 -1.3301 -1.4342 -0.1652
 6476TIP3    H240844   0.708   1.579   0.210  1.0017 -0.3010  0.9194
 6477TIP3   OH240845   6.525   1.953   0.052 -0.4296  0.5548 -0.0265
 6477TIP3    H140846   6.547   1.918   0.139  0.9289 -0.6451 -0.8062
 6477TIP3    H240847   6.488   2.039   0.070  0.0244  0.4284  1.7414
 6478TIP3   OH240848   4.741   4.551   5.892 -0.3491  0.3032  0.1800
 6478TIP3    H140849   4.728   4.503   5.973 -0.5869 -0.0831 -0.0853
 6478TIP3    H240850   4.836   4.554   5.881 -0.3082  0.5135  0.5598
 6479TIP3   OH240851   6.309   4.044   5.551 -0.3034 -0.6744  0.0355
 6479TIP3    H140852   6.252   3.972   5.522  2.1315 -2.4744 -0.5832
 6479TIP3    H240853   6.396   4.004   5.559  1.1103  2.1611 -0.0677
 6480TIP3   OH240854   2.503   0.420  15.208  0.3844  0.1927 -0.4972
 6480TIP3    H140855   2.480   0.479  15.280 -0.6959  1.2534 -1.6660
 6480TIP3    H240856   2.516   0.477  15.133  1.7011 -0.8728 -1.1254
 6481TIP3   OH240857   1.112   2.655  11.799  0.1016  0.3283  0.0646
 6481TIP3    H140858   1.134   2.735  11.845  2.6409  0.2558 -0.8924
 6481TIP3    H240859   1.146   2.668  11.710  0.4967 -1.7536 -0.1355
 6482TIP3   OH240860   2.673   0.325  13.923 -0.1640  0.0828  0.2434
 6482TIP3    H140861   2.749   0.301  13.869 -0.5298 -1.0047  0.1848
 6482TIP3    H240862   2.602   0.271  13.889 -0.1714 -1.4129  2.4646
 6483TIP3   OH240863   0.563   2.437  12.119 -0.0936 -0.0767  0.2847
 6483TIP3    H140864   0.634   2.411  12.178 -0.4489 -0.1319  0.6937
 6483TIP3    H240865   0.600   2.508  12.066 -1.0245  3.0712  3.4773
 6484TIP3   OH240866   5.634   2.708  13.442 -0.3785  0.1487 -0.1856
 6484TIP3    H140867   5.550   2.740  13.409 -0.4902  0.3587  0.2857
 6484TIP3    H240868   5.629   2.722  13.537 -0.3305 -1.0567  0.0029
 6485TIP3   OH240869   4.063   3.607  13.552  0.4889  0.3150 -0.5586
 6485TIP3    H140870   4.131   3.553  13.511  0.2563 -0.4322  0.0127
 6485TIP3    H240871   4.065   3.581  13.644 -0.2008  0.6858 -0.4369
 6486TIP3   OH240872   5.994   6.521   4.161 -0.1958 -0.1580 -0.1463
 6486TIP3    H140873   5.956   6.557   4.241 -0.6139 -0.4607 -0.2071
 6486TIP3    H240874   6.086   6.547   4.165 -0.3839  0.5142  0.0410
 6487TIP3   OH240875   4.710   4.701  11.299 -0.2287 -0.1904 -0.1441
 6487TIP3    H140876   4.733   4.664  11.385  1.2837  0.3033 -0.3000
 6487TIP3    H240877   4.769   4.657  11.238  0.3431  1.1191 -0.5816
 6488TIP3   OH240878   4.458   2.165  15.492  0.1803 -0.1716 -0.6576
 6488TIP3    H140879   4.432   2.183  15.582  1.9869 -0.1161 -0.1165
 6488TIP3    H240880   4.478   2.071  15.492 -1.3451 -0.5408 -1.4400
 6489TIP3   OH240881   0.926   3.006  14.052 -0.2775 -0.0606  0.1557
 6489TIP3    H140882   0.881   3.047  14.125 -0.7301  0.3750 -0.3576
 6489TIP3    H240883   0.888   2.918  14.047 -0.6290  0.0903  0.1182
 6490TIP3   OH240884   3.389   2.479   5.251  0.0526 -0.0964  0.4137
 6490TIP3    H140885   3.396   2.551   5.314  0.4405 -0.4961  0.8368
 6490TIP3    H240886   3.296   2.473   5.232  0.0509  0.7733  0.0707
 6491TIP3   OH240887   4.691   3.579  15.490 -0.4575 -0.3506  0.4097
 6491TIP3    H140888   4.618   3.640  15.478 -0.8671 -0.5551  1.7174
 6491TIP3    H240889   4.670   3.533  15.571  1.3397 -0.1057  1.0402
 6492TIP3   OH240890   0.055   5.653   4.335 -0.2346  0.6606  0.2258
 6492TIP3    H140891   0.012   5.729   4.298 -0.8359  1.3686  2.2379
 6492TIP3    H240892   0.096   5.685   4.416 -0.5967 -1.1353  1.1834
 6493TIP3   OH240893   1.502   2.471  14.770 -0.0623  0.3360  0.5404
 6493TIP3    H140894   1.460   2.473  14.684 -1.6492  2.1359  1.3047
 6493TIP3    H240895   1.497   2.379  14.796 -2.9994  0.3400  0.2930
 6494TIP3   OH240896   6.700   6.327  12.495 -0.3180  0.0330  0.0553
 6494TIP3    H140897   6.761   6.387  12.538 -0.6265  0.8508 -0.6055
 6494TIP3    H240898   6.735   6.240  12.511  0.3991  0.4264  0.6444
 6495TIP3   OH240899   4.154   2.052  14.746 -0.1230 -0.2530  0.4267
 6495TIP3    H140900   4.106   1.970  14.747  0.5762 -0.6685  0.9618
 6495TIP3    H240901   4.088   2.119  14.729 -0.5786 -0.9920 -0.8473
 6496TIP3   OH240902   2.791   0.790   1.939  0.0594 -0.1484  0.2287
 6496TIP3    H140903   2.864   0.766   1.995  1.6603 -1.7102 -2.3172
 6496TIP3    H240904   2.833   0.824   1.859 -1.9585 -1.1070 -1.3242
 6497TIP3   OH240905   2.024   3.283   5.065 -0.0422 -0.5280 -0.0939
 6497TIP3    H140906   2.057   3.195   5.078  2.0704  0.1936 -0.2878
 6497TIP3    H240907   1.978   3.304   5.147  3.3223 -0.1963  1.8834
 6498TIP3   OH240908   6.187   4.390   3.713  0.1027  0.5918  0.7762
 6498TIP3    H140909   6.194   4.303   3.673 -4.3230  0.7512 -0.8846
 6498TIP3    H240910   6.143   4.374   3.797  1.5867  1.0657  1.6756
 6499TIP3   OH240911   6.790   0.922   3.186 -0.5402  0.5377  0.2062
 6499TIP3    H140912   6.728   0.893   3.253  0.9313  0.4837  1.5943
 6499TIP3    H240913   6.770   0.868   3.110 -0.7317 -1.0426  1.3438
 6500TIP3   OH240914   2.708   3.865  12.802 -0.0262 -0.0820 -0.4518
 6500TIP3    H140915   2.691   3.771  12.797  1.5696 -0.3426 -1.9616
 6500TIP3    H240916   2.803   3.872  12.802 -0.0757  1.4862  1.9049
 6501TIP3   OH240917   4.898   4.017  13.787 -0.3252  0.0961 -0.0665
 6501TIP3    H140918   4.890   4.033  13.693 -0.0599  1.1788  0.0837
 6501TIP3    H240919   4.856   3.932  13.800 -1.5222  0.5162 -0.9740
 6502TIP3   OH240920   0.764   5.269  15.116  0.1769  0.3828 -0.3475
 6502TIP3    H140921   0.835   5.288  15.054 -0.5484  2.2677 -0.6707
 6502TIP3    H240922   0.719   5.193  15.078  1.4382 -0.2527 -0.6180
 6503TIP3   OH240923   2.411   3.803   4.080 -0.4266  0.6961 -0.0890
 6503TIP3    H140924   2.473   3.730   4.083  1.4188  2.2155  0.9783
 6503TIP3    H240925   2.344   3.775   4.018  0.9033 -1.3476 -0.7024
 6504TIP3   OH240926   0.812   5.575  15.426 -0.3266 -0.1559 -0.3507
 6504TIP3    H140927   0.806   5.598  15.518 -0.4158 -1.5195  0.0049
 6504TIP3    H240928   0.870   5.641  15.388 -2.1622  1.8639  0.1423
 6505TIP3   OH240929   2.664   6.080  14.074  0.0918 -0.0462  0.1075
 6505TIP3    H140930   2.602   6.023  14.120  0.3277  1.1898  2.0859
 6505TIP3    H240931   2.647   6.064  13.981 -2.8317 -0.1846  0.5702
 6506TIP3   OH240932   2.817   5.827  16.238  0.2533 -0.3987 -0.3825
 6506TIP3    H140933   2.796   5.918  16.216 -1.0133 -0.5247  0.2221
 6506TIP3    H240934   2.807   5.780  16.156  0.8909 -0.0042 -0.6943
 6507TIP3   OH240935   2.847   4.818   0.842 -0.5103 -0.0405  0.4474
 6507TIP3    H140936   2.780   4.790   0.780 -0.9000 -0.1197  0.9032
 6507TIP3    H240937   2.927   4.774   0.812 -0.7688 -0.3405  0.1956
 6508TIP3   OH240938   3.479   0.284   0.226  0.2241  0.0546  0.5781
 6508TIP3    H140939   3.507   0.326   0.144  0.8129 -0.5822  0.4436
 6508TIP3    H240940   3.416   0.345   0.264  0.6085  0.7687  0.0842
 6509TIP3   OH240941   6.145   4.800   1.509 -0.5995  0.5245  0.4499
 6509TIP3    H140942   6.160   4.889   1.539 -1.8931  0.8640  0.1307
 6509TIP3    H240943   6.139   4.806   1.414 -0.2751  0.0372  0.3950
 6510TIP3   OH240944   4.058   2.207   1.441  0.1706 -0.3791 -0.7605
 6510TIP3    H140945   4.048   2.261   1.363 -1.7067  0.4808  0.0217
 6510TIP3    H240946   4.105   2.263   1.503 -0.3057 -0.2346 -0.5235
 6511TIP3   OH240947   3.104   3.316  11.929 -0.1399 -0.2867 -0.3542
 6511TIP3    H140948   3.139   3.266  12.002 -0.6983 -1.2267 -0.7191
 6511TIP3    H240949   3.048   3.382  11.970  0.2906 -0.1975  0.1033
 6512TIP3   OH240950   0.075   0.986  13.362  0.5439  1.0748 -0.2772
 6512TIP3    H140951   0.030   1.042  13.300 -1.0012  0.4455  0.2369
 6512TIP3    H240952   0.058   1.025  13.448 -0.3622  0.0003  0.0660
 6513TIP3   OH240953   4.083   3.969   5.817  0.4422 -0.0771  0.5300
 6513TIP3    H140954   4.033   3.915   5.756  0.6842  0.0721  0.1961
 6513TIP3    H240955   4.152   3.912   5.850  0.2768 -0.1745  0.7099
 6514TIP3   OH240956   4.727   0.973  12.220  0.3053 -0.5576 -0.1178
 6514TIP3    H140957   4.669   1.005  12.151 -1.5217 -0.6163  1.3152
 6514TIP3    H240958   4.766   0.894  12.184  0.2363  0.0048 -1.4720
 6515TIP3   OH240959   6.236   3.596   2.242  0.5874 -0.0654 -0.1392
 6515TIP3    H140960   6.160   3.647   2.268  0.3245 -1.5255  2.3993
 6515TIP3    H240961   6.308   3.631   2.295  1.3685  0.3527 -1.4391
 6516TIP3   OH240962   6.678   0.172   5.269  0.3269 -0.3445  0.0805
 6516TIP3    H140963   6.700   0.258   5.304  0.3953  0.2251 -1.2747
 6516TIP3    H240964   6.603   0.143   5.320 -1.2415  1.6136 -0.9800
 6517TIP3   OH240965   6.761   6.719   5.451  0.1406  0.2868 -0.1244
 6517TIP3    H140966   6.790   6.650   5.509 -0.2973  1.9482  2.2034
 6517TIP3    H240967   6.835   6.734   5.392  0.8197 -1.0585  0.3474
 6518TIP3   OH240968   3.780   2.430  15.040  0.2882  0.1662 -0.1545
 6518TIP3    H140969   3.847   2.411  15.106  0.1685  1.0498  0.2262
 6518TIP3    H240970   3.810   2.509  14.996  0.8182 -0.8853 -1.7894
 6519TIP3   OH240971   6.131   2.136  13.106  0.0222 -0.0991 -0.3729
 6519TIP3    H140972   6.052   2.167  13.062 -0.0943 -0.9898 -0.8191
 6519TIP3    H240973   6.201   2.192  13.073 -0.2060 -0.2063 -1.0532
 6520TIP3   OH240974   0.316   3.165   2.519 -0.2814  0.1627 -0.4168
 6520TIP3    H140975   0.334   3.168   2.612 -2.0667 -0.7259  0.0154
 6520TIP3    H240976   0.304   3.256   2.493 -1.7431  0.3285  0.7032
 6521TIP3   OH240977   3.585   5.436  11.277  0.0244  0.1337 -0.0251
 6521TIP3    H140978   3.616   5.506  11.220  2.1382 -0.0137  0.8597
 6521TIP3    H240979   3.531   5.480  11.342  1.8045  1.0977  0.8712
 6522TIP3   OH240980   0.834   6.529  12.015 -0.0397 -0.1796  0.2358
 6522TIP3    H140981   0.739   6.514  12.019 -0.0294 -1.3616 -2.1297
 6522TIP3    H240982   0.868   6.486  12.093 -1.2697 -1.7690 -0.0451
 6523TIP3   OH240983   6.528   6.624   5.325  0.2110 -0.2817  0.4500
 6523TIP3    H140984   6.588   6.550   5.329  1.1085  0.4373  0.8995
 6523TIP3    H240985   6.570   6.691   5.379  0.1491  1.0563 -1.0911
 6524TIP3   OH240986   3.634   5.058   4.022  0.6390 -0.0281  0.0894
 6524TIP3    H140987   3.618   5.022   4.109 -2.0455  0.7163 -0.0058
 6524TIP3    H240988   3.549   5.090   3.993  1.7877  1.2873 -2.1379
 6525TIP3   OH240989   2.303   3.053   2.498  0.1856 -0.1290 -0.4544
 6525TIP3    H140990   2.324   2.999   2.423 -0.1415  0.9333 -1.3362
 6525TIP3    H240991   2.368   3.124   2.496 -0.4197  0.4401 -0.3103
 6526TIP3   OH240992   5.506   6.289   4.692 -0.1851 -0.4706 -0.1240
 6526TIP3    H140993   5.419   6.266   4.726  0.7253 -1.3370  1.8307
 6526TIP3    H240994   5.551   6.328   4.767  1.4401 -0.9901 -0.7750
 6527TIP3   OH240995   2.115   5.641   1.919 -0.1842 -0.3909  0.6744
 6527TIP3    H140996   2.160   5.578   1.862 -1.7280  0.1090 -1.2105
 6527TIP3    H240997   2.084   5.589   1.993  1.9390 -1.0567  1.1494
 6528TIP3   OH240998   4.922   4.480   1.788  0.3145  0.1751  0.2390
 6528TIP3    H140999   4.991   4.499   1.726  0.0974  2.1259  0.5475
 6528TIP3    H241000   4.967   4.467   1.872  0.3301  1.9653  0.5516
 6529TIP3   OH241001   4.201   6.143  12.573  0.2695  0.1345 -1.0516
 6529TIP3    H141002   4.176   6.234  12.559 -1.8759 -0.6492 -2.9406
 6529TIP3    H241003   4.258   6.121  12.499 -0.0896 -0.3371 -1.1967
 6530TIP3   OH241004   4.074   3.202  12.651  0.1852 -0.0156 -0.3600
 6530TIP3    H141005   4.014   3.268  12.685  0.5795  0.1877 -0.0460
 6530TIP3    H241006   4.020   3.125  12.635  0.2432 -0.6737  2.2289
 6531TIP3   OH241007   6.202   2.883  10.762 -0.0121 -0.0700 -0.0758
 6531TIP3    H141008   6.295   2.864  10.775 -0.4552 -2.2433  0.1804
 6531TIP3    H241009   6.199   2.928  10.677  1.1330 -1.4364 -0.8907
 6532TIP3   OH241010   4.660   5.448   1.284 -1.0088 -0.7141 -0.1977
 6532TIP3    H141011   4.656   5.353   1.300 -0.1766 -0.5454  1.1712
 6532TIP3    H241012   4.736   5.459   1.227 -0.0679 -0.7392  1.0094
 6533TIP3   OH241013   4.991   5.647  16.530  0.1730 -0.6526  0.1313
 6533TIP3    H141014   5.063   5.584  16.539 -1.1420 -2.3053 -0.4389
 6533TIP3    H241015   4.961   5.637  16.439 -0.8786 -0.1310  0.4057
 6534TIP3   OH241016   5.595   1.435   4.483  0.5548  0.2671 -0.0799
 6534TIP3    H141017   5.585   1.390   4.567 -0.0152  0.2580 -0.1504
 6534TIP3    H241018   5.682   1.476   4.488  1.4386 -1.4607 -0.3069
 6535TIP3   OH241019   5.036   0.077  11.379 -0.2667  0.3833 -0.3553
 6535TIP3    H141020   5.087  -0.002  11.362  0.9965  0.8929  0.9013
 6535TIP3    H241021   4.967   0.049  11.440  2.2165  0.8112  2.9018
 6536TIP3   OH241022   5.596   6.592  15.924 -0.0141  0.1176  0.4250
 6536TIP3    H141023   5.614   6.667  15.867 -0.5389  0.9689  1.3357
 6536TIP3    H241024   5.678   6.544  15.928  0.5661  1.0781  0.4281
 6537TIP3   OH241025   2.756   4.831  13.604  0.0596 -0.2482 -0.1886
 6537TIP3    H141026   2.661   4.823  13.612 -0.1541  2.3586  0.9475
 6537TIP3    H241027   2.773   4.828  13.509 -1.2418 -0.1232 -0.4397
 6538TIP3   OH241028   0.487   1.750   3.004  0.0677 -1.0638  0.0132
 6538TIP3    H141029   0.564   1.716   3.048 -0.1813 -0.4925  0.9028
 6538TIP3    H241030   0.510   1.839   2.979 -1.1083  0.0495  2.5229
 6539TIP3   OH241031   6.112   4.567  14.275 -0.3829  0.7739 -0.3364
 6539TIP3    H141032   6.077   4.481  14.296  0.3248  0.9524  1.9148
 6539TIP3    H241033   6.050   4.628  14.314  0.4343  1.1760  0.3837
 6540TIP3   OH241034   5.650   2.507  16.271 -0.5815 -0.1818  0.0102
 6540TIP3    H141035   5.670   2.423  16.312  1.1492 -0.5979 -1.5624
 6540TIP3    H241036   5.654   2.570  16.342 -1.7108 -1.3671  1.1829
 6541TIP3   OH241037   0.386   3.197   4.302 -0.3772 -0.0704  0.6736
 6541TIP3    H141038   0.302   3.225   4.266 -0.1791  2.9002  2.2060
 6541TIP3    H241039   0.448   3.209   4.230 -0.6321  1.9071  0.7125
 6542TIP3   OH241040   0.353   5.795   4.051  0.0380 -0.0100  0.3647
 6542TIP3    H141041   0.370   5.865   4.113 -1.2410  0.3514  0.3239
 6542TIP3    H241042   0.437   5.749   4.043  0.5839  0.8089  1.2560
 6543TIP3   OH241043   4.572   0.115   1.284  0.5058 -0.2673 -0.0930
 6543TIP3    H141044   4.544   0.205   1.268  0.6542 -0.3448 -0.8237
 6543TIP3    H241045   4.502   0.078   1.339 -1.2565 -0.6674 -2.4227
 6544TIP3   OH241046   0.204   6.030   3.249 -0.0357 -0.4855 -0.7549
 6544TIP3    H141047   0.289   6.028   3.206  0.4895 -0.5433  0.2393
 6544TIP3    H241048   0.174   5.939   3.248  0.4051 -0.6444 -0.1954
 6545TIP3   OH241049   3.922   1.537  15.956 -0.4834  0.3944 -0.1406
 6545TIP3    H141050   3.881   1.609  15.908 -1.1100  1.6361  2.1132
 6545TIP3    H241051   4.014   1.561  15.962 -0.6885  1.0405  0.5874
 6546TIP3   OH241052   3.295   3.074   5.121  0.0333 -0.2475 -0.8440
 6546TIP3    H141053   3.364   3.040   5.064 -0.0308  0.2054 -1.1978
 6546TIP3    H241054   3.267   2.998   5.172  2.0375 -0.0536  0.6326
 6547TIP3   OH241055   3.774   5.396   0.721  0.2542 -0.0260 -0.0298
 6547TIP3    H141056   3.825   5.420   0.798  0.8944 -0.3762 -0.3335
 6547TIP3    H241057   3.694   5.448   0.728  1.2505  1.6114 -0.2715
 6548TIP3   OH241058   6.486   6.763   2.571  0.3953  0.5160 -0.3985
 6548TIP3    H141059   6.426   6.689   2.579  0.1866  0.8273  1.1909
 6548TIP3    H241060   6.567   6.724   2.538  0.5318 -0.5762  1.1442
 6549TIP3   OH241061   3.096   2.768  10.250  0.2088 -0.0660  0.2641
 6549TIP3    H141062   3.030   2.793  10.314  0.8876  1.3109  0.4642
 6549TIP3    H241063   3.103   2.844  10.191  1.1587 -0.4287 -0.1219
 6550TIP3   OH241064   3.628   6.576   0.754  0.6031 -0.1734 -0.6034
 6550TIP3    H141065   3.636   6.632   0.831  2.7632 -0.7878 -0.3086
 6550TIP3    H241066   3.590   6.495   0.788  0.8485 -0.1694 -0.3108
 6551TIP3   OH241067   3.003   0.549   3.005 -0.4255  0.7784 -0.2978
 6551TIP3    H141068   2.954   0.468   2.998 -2.2512  1.8778 -1.0190
 6551TIP3    H241069   3.026   0.556   3.098 -2.3218  0.5672  0.2236
 6552TIP3   OH241070   1.888   0.620   4.545 -0.3457 -0.1214  0.3728
 6552TIP3    H141071   1.871   0.658   4.459 -2.4266 -0.6039  0.5150
 6552TIP3    H241072   1.969   0.662   4.575  0.8924 -0.5318 -2.1245
 6553TIP3   OH241073   4.175   0.847  15.431 -0.4032  0.0195 -0.4935
 6553TIP3    H141074   4.106   0.840  15.496 -2.7141 -0.8633 -2.8489
 6553TIP3    H241075   4.132   0.885  15.354  2.0571  0.5832 -1.6887
 6554TIP3   OH241076   1.041   0.918   4.806  0.5490  0.7576  0.4573
 6554TIP3    H141077   1.113   0.965   4.848  1.5435 -0.1618 -0.1522
 6554TIP3    H241078   1.083   0.845   4.760 -0.8235 -0.0689  0.4369
 6555TIP3   OH241079   4.082   1.839   2.095 -0.5445 -0.6482  0.4777
 6555TIP3    H141080   4.142   1.826   2.169 -1.3177  0.1606  1.2738
 6555TIP3    H241081   4.031   1.916   2.119 -0.7062 -0.2732 -0.9864
 6556TIP3   OH241082   2.218   5.153  15.648 -0.0040 -0.3963 -0.5016
 6556TIP3    H141083   2.301   5.133  15.604 -0.1282  0.0668 -0.9613
 6556TIP3    H241084   2.237   5.229  15.703  0.3443 -1.4278  0.8643
 6557TIP3   OH241085   6.104   4.251  16.040  0.2943  0.2214  0.0747
 6557TIP3    H141086   6.051   4.290  15.970  0.4853 -0.1264 -0.2687
 6557TIP3    H241087   6.129   4.165  16.006 -1.8749 -1.1515  1.6180
 6558TIP3   OH241088   2.759   5.467   1.289 -0.0059  0.3196 -0.2671
 6558TIP3    H141089   2.754   5.546   1.235  0.0675  0.0153 -0.7146
 6558TIP3    H241090   2.675   5.423   1.274 -0.0082  0.2633 -0.0896
 6559TIP3   OH241091   5.319   0.282   1.959 -0.0009 -0.4570  0.6456
 6559TIP3    H141092   5.409   0.290   1.991  0.7341 -0.4406 -1.2938
 6559TIP3    H241093   5.313   0.347   1.889 -0.4975 -2.5304 -1.3629
 6560TIP3   OH241094   0.029   3.807  11.759  0.1807 -0.3385 -0.0805
 6560TIP3    H141095  -0.004   3.803  11.848  1.1788 -0.7702  0.2839
 6560TIP3    H241096   0.062   3.719  11.741  1.4612  0.1617 -0.2749
 6561TIP3   OH241097   5.838   0.153   1.883  0.4205 -0.0861 -0.1287
 6561TIP3    H141098   5.847   0.124   1.793  1.0207 -1.5686  0.3802
 6561TIP3    H241099   5.916   0.120   1.928  0.0788  0.5094  0.9637
 6562TIP3   OH241100   3.543   5.636  10.552  0.2804 -0.0796 -0.3591
 6562TIP3    H141101   3.468   5.691  10.576 -1.2098 -2.3097  0.3779
 6562TIP3    H241102   3.514   5.589  10.474  1.5918  0.1991 -1.0602
 6563TIP3   OH241103   5.478   1.891   2.020 -0.1454  0.3774  0.1010
 6563TIP3    H141104   5.541   1.928   1.959 -0.8313 -0.8770 -1.4262
 6563TIP3    H241105   5.393   1.908   1.981 -0.6221 -0.2410  0.8335
 6564TIP3   OH241106   0.467   5.071  13.128 -0.4395  0.0021  0.2707
 6564TIP3    H141107   0.531   4.999  13.125 -2.3029 -1.8050  1.5905
 6564TIP3    H241108   0.387   5.034  13.092 -0.8942  2.1943 -1.2391
 6565TIP3   OH241109   0.832   6.399  12.273  0.5352  0.1027  0.2729
 6565TIP3    H141110   0.839   6.462  12.346 -0.4634 -0.2927  0.7345
 6565TIP3    H241111   0.857   6.315  12.312  0.4874 -0.0266  0.0233
 6566TIP3   OH241112   5.204   6.352  12.304  0.0817  0.4627  0.5926
 6566TIP3    H141113   5.238   6.300  12.232 -0.7572 -1.0263  1.2245
 6566TIP3    H241114   5.267   6.423  12.315  0.4009  0.5088 -1.3501
 6567TIP3   OH241115   4.336   5.850   0.752 -0.2155 -0.1563  0.0239
 6567TIP3    H141116   4.389   5.796   0.693 -0.6023  0.4346 -0.8867
 6567TIP3    H241117   4.251   5.805   0.756 -0.8807  0.8598 -1.5427
 6568TIP3   OH241118   4.759   3.947  15.416 -0.3732  0.0880 -0.5601
 6568TIP3    H141119   4.759   3.889  15.492 -0.2255 -0.4580 -0.9711
 6568TIP3    H241120   4.804   4.026  15.446  1.4300 -0.8762 -0.6408
 6569TIP3   OH241121   2.905   1.129   4.196  0.6224 -0.0695 -0.5748
 6569TIP3    H141122   2.938   1.072   4.265 -0.0517  1.1831  0.8280
 6569TIP3    H241123   2.841   1.076   4.149  0.3603 -0.6208  0.3922
 6570TIP3   OH241124   6.621   6.638  15.249 -0.3243 -0.1090  0.1867
 6570TIP3    H141125   6.532   6.604  15.254 -0.5681  0.4748 -0.1229
 6570TIP3    H241126   6.613   6.732  15.264  0.1590  0.0476 -0.4340
 6571TIP3   OH241127   0.331   6.292   3.350 -0.3656 -0.2196  0.7891
 6571TIP3    H141128   0.398   6.247   3.300  0.1550 -0.0269  1.2934
 6571TIP3    H241129   0.253   6.237   3.342  0.4828 -1.6983  2.1207
 6572TIP3   OH241130   2.168   4.276  16.303 -0.6714  0.1463 -0.1032
 6572TIP3    H141131   2.121   4.269  16.386 -0.4440  1.1925  0.1231
 6572TIP3    H241132   2.191   4.186  16.281 -1.9864 -0.2958  0.2348
 6573TIP3   OH241133   3.341   0.086  12.743  0.3782 -0.6716 -0.2911
 6573TIP3    H141134   3.292   0.136  12.808  0.8394  1.1944 -1.2979
 6573TIP3    H241135   3.279   0.020  12.711 -0.6898  0.0647  0.2016
 6574TIP3   OH241136   4.243   3.468  14.736  0.5465  0.1476  0.2375
 6574TIP3    H141137   4.215   3.455  14.645 -0.9708 -1.6278  0.9036
 6574TIP3    H241138   4.313   3.404  14.749  1.5590  1.1690  0.0443
 6575TIP3   OH241139   6.602   4.344   2.779  0.2781 -0.0877 -0.1784
 6575TIP3    H141140   6.557   4.410   2.832 -0.2240 -1.2282  0.8780
 6575TIP3    H241141   6.685   4.329   2.825  0.5941  0.1262 -0.6690
 6576TIP3   OH241142   0.749   3.844  11.676 -0.0355 -0.0949 -0.9040
 6576TIP3    H141143   0.739   3.923  11.623 -1.0770  0.8261  0.5617
 6576TIP3    H241144   0.778   3.877  11.762  4.6659 -1.7604 -1.5778
 6577TIP3   OH241145   5.558   0.093   2.881 -0.3154  0.1807  0.0285
 6577TIP3    H141146   5.647   0.060   2.894 -0.7084 -2.0036 -2.0896
 6577TIP3    H241147   5.508   0.057   2.954 -0.0576 -1.3150 -0.4924
 6578TIP3   OH241148   5.914   4.238  12.305  0.2731  0.5038 -0.0747
 6578TIP3    H141149   5.981   4.217  12.241 -0.4528  1.7087 -1.2944
 6578TIP3    H241150   5.942   4.322  12.343  0.2369  0.2460  0.5349
 6579TIP3   OH241151   5.575   0.332   4.754  0.2981  0.4223 -0.1942
 6579TIP3    H141152   5.658   0.315   4.799  0.0912 -0.0773  0.0177
 6579TIP3    H241153   5.542   0.412   4.794 -0.5846 -0.7694  1.6276
 6580TIP3   OH241154   3.853   6.011   5.697  0.4583 -0.0929 -0.2592
 6580TIP3    H141155   3.797   6.004   5.774 -0.0215  0.1545 -0.5875
 6580TIP3    H241156   3.883   6.102   5.696  1.5566 -0.4227  0.3890
 6581TIP3   OH241157   0.811   1.748  15.440  0.1745  0.1257  0.1192
 6581TIP3    H141158   0.869   1.758  15.364 -0.0595  0.8765  0.0333
 6581TIP3    H241159   0.753   1.824  15.436  0.5373  0.4868  1.3805
 6582TIP3   OH241160   5.391   1.234  16.406  0.3947 -0.0886  0.3600
 6582TIP3    H141161   5.396   1.199  16.495  2.3930  1.0866  0.7741
 6582TIP3    H241162   5.482   1.250  16.382 -0.2127  1.1718 -1.2575
 6583TIP3   OH241163   4.345   5.765   6.120  0.0889 -0.1236  0.0257
 6583TIP3    H141164   4.357   5.683   6.167  0.9583 -0.2596 -0.4275
 6583TIP3    H241165   4.433   5.800   6.108 -0.0449 -0.3160 -1.9036
 6584TIP3   OH241166   5.778   5.954   2.802  0.0523  0.2739  0.1158
 6584TIP3    H141167   5.782   5.870   2.846 -0.1753 -0.1994 -0.7563
 6584TIP3    H241168   5.685   5.970   2.789  0.1265  0.2341 -0.5103
 6585TIP3   OH241169   6.028   3.234   5.640  0.0354 -0.4215  0.0552
 6585TIP3    H141170   6.108   3.186   5.660 -1.2460 -2.5716  0.3284
 6585TIP3    H241171   6.022   3.301   5.708  2.4026  0.8895 -0.9340
 6586TIP3   OH241172   2.005   0.928   0.242 -0.6451  0.7167 -0.3101
 6586TIP3    H141173   2.055   1.009   0.242  0.3546  0.1160  0.0337
 6586TIP3    H241174   2.067   0.861   0.269 -1.1179 -0.3867 -1.8261
 6587TIP3   OH241175   6.453   6.336  15.093  0.6437 -0.6722 -0.8667
 6587TIP3    H141176   6.373   6.321  15.041  0.3068 -1.4628 -0.1501
 6587TIP3    H241177   6.489   6.249  15.106 -0.0888 -0.6960  1.4672
 6588TIP3   OH241178   2.859   1.337  16.398 -0.3834  0.0650 -0.2050
 6588TIP3    H141179   2.932   1.279  16.421  0.6173  2.0615  2.0141
 6588TIP3    H241180   2.785   1.277  16.386  0.7379 -1.7632  1.2739
 6589TIP3   OH241181   5.196   4.237   0.056 -0.5053  0.0492  0.0197
 6589TIP3    H141182   5.253   4.165   0.081  0.3024  0.7012  0.1202
 6589TIP3    H241183   5.113   4.220   0.100  0.6347  0.7884  2.6258
 6590TIP3   OH241184   5.670   0.073  14.941 -0.3895  0.2339  0.5361
 6590TIP3    H141185   5.626   0.080  15.026 -0.6652 -2.5347  0.7390
 6590TIP3    H241186   5.752   0.121  14.952 -1.1205  1.2470  1.8170
 6591TIP3   OH241187   0.602   6.678   0.228  0.7669 -0.1376 -0.3567
 6591TIP3    H141188   0.657   6.609   0.264  1.9401  0.5101 -0.8469
 6591TIP3    H241189   0.658   6.756   0.228  0.4012  0.1891 -2.3261
 6592TIP3   OH241190   4.729   3.581  13.333  0.0413 -0.4112 -0.2237
 6592TIP3    H141191   4.641   3.603  13.303  0.7997  1.4189 -1.2745
 6592TIP3    H241192   4.743   3.492  13.300 -2.3870 -1.9406  2.4283
 6593TIP3   OH241193   3.842   2.041   1.492 -0.6288  0.0140 -0.3382
 6593TIP3    H141194   3.922   2.092   1.481 -0.9793  0.3706 -1.3716
 6593TIP3    H241195   3.837   1.986   1.415 -1.8825  0.7351 -0.8109
 6594TIP3   OH241196   4.331   1.742   2.835  0.1372 -0.5160  0.8063
 6594TIP3    H141197   4.277   1.714   2.909 -0.9213 -1.4012 -0.2570
 6594TIP3    H241198   4.306   1.683   2.764  3.0833 -1.5121  0.4537
 6595TIP3   OH241199   2.479   1.768   5.734  0.3211 -0.1191 -0.1935
 6595TIP3    H141200   2.554   1.716   5.705  0.5312 -1.0532  1.8773
 6595TIP3    H241201   2.516   1.851   5.763  0.5247 -0.4534  0.5160
 6596TIP3   OH241202   1.956   5.745   5.365 -0.1808 -0.4699  1.0270
 6596TIP3    H141203   2.033   5.775   5.317  1.3581 -0.3761  3.3772
 6596TIP3    H241204   1.905   5.696   5.301  2.5823 -1.8445 -0.2700
 6597TIP3   OH241205   4.368   6.102  13.724  0.1838  0.2958  0.0155
 6597TIP3    H141206   4.385   6.091  13.631  1.6835  0.9570  0.1756
 6597TIP3    H241207   4.305   6.174  13.729 -0.5017 -0.2681 -0.5158
 6598TIP3   OH241208   3.194   1.816   3.118 -0.0506  0.6782  0.3880
 6598TIP3    H141209   3.287   1.827   3.098  0.1678  0.7480  1.4011
 6598TIP3    H241210   3.186   1.843   3.210 -0.8166 -0.6215  0.7276
 6599TIP3   OH241211   4.009   3.256  15.680  0.5533  0.0971 -0.0001
 6599TIP3    H141212   3.943   3.225  15.741  1.5258 -0.2011  0.9219
 6599TIP3    H241213   3.959   3.288  15.605 -0.6218 -0.2437  0.6188
 6600TIP3   OH241214   4.540   4.710  11.873  0.3517 -0.2416  0.0659
 6600TIP3    H141215   4.611   4.650  11.851  2.5528  1.6334  1.5377
 6600TIP3    H241216   4.529   4.701  11.968 -0.5960  0.3139  0.0267
 6601TIP3   OH241217   3.457   6.212  11.946 -0.0260  0.1736  0.0719
 6601TIP3    H141218   3.392   6.247  11.885  1.3224  0.0111 -1.5169
 6601TIP3    H241219   3.415   6.134  11.983 -0.0783 -1.0277 -2.3488
 6602TIP3   OH241220   4.549   4.365   2.268 -0.0587 -0.0593  0.7408
 6602TIP3    H141221   4.629   4.375   2.216 -0.5217  0.2171  0.0567
 6602TIP3    H241222   4.486   4.423   2.225 -0.5110  0.0345  1.5162
 6603TIP3   OH241223   1.813   2.152   5.100 -0.0447  0.0857  0.5957
 6603TIP3    H141224   1.760   2.076   5.075  2.1284 -1.5099  0.4536
 6603TIP3    H241225   1.883   2.154   5.034 -0.4498  2.7232  0.1591
 6604TIP3   OH241226   0.633   1.397   4.070 -0.3047 -0.1978  0.3020
 6604TIP3    H141227   0.625   1.454   3.994 -1.4170 -1.6166 -0.6853
 6604TIP3    H241228   0.719   1.419   4.107 -0.1208  1.1394 -0.8201
 6605TIP3   OH241229   4.794   2.535  14.341  0.5842 -0.1056 -0.0793
 6605TIP3    H141230   4.848   2.615  14.338  1.5321 -0.7452 -1.9527
 6605TIP3    H241231   4.814   2.496  14.425  2.5643  0.0592 -0.4120
 6606TIP3   OH241232   0.910   3.267   2.791 -0.6279 -0.5481  0.0598
 6606TIP3    H141233   0.980   3.226   2.841  1.3161 -0.3057 -2.2758
 6606TIP3    H241234   0.955   3.319   2.724 -3.0477  1.0189 -0.4867
 6607TIP3   OH241235   6.631   0.679  11.198  0.7550 -0.0928 -0.5119
 6607TIP3    H141236   6.596   0.648  11.281  0.8471 -0.2513 -0.5337
 6607TIP3    H241237   6.720   0.709  11.218  0.2668  1.2762 -0.2358
 6608TIP3   OH241238   5.061   4.912  14.160 -0.2265 -0.0041 -0.1615
 6608TIP3    H141239   5.007   4.869  14.227 -1.1203  3.2355  1.3680
 6608TIP3    H241240   5.005   4.914  14.082 -0.8144 -0.0858  0.2511
 6609TIP3   OH241241   6.692   0.377   4.020 -0.1880  0.0570 -0.0559
 6609TIP3    H141242   6.656   0.411   3.939  0.5106 -0.2677 -0.5163
 6609TIP3    H241243   6.782   0.411   4.023 -0.1814 -0.0005  0.5332
 6610TIP3   OH241244   2.314   0.443  13.152  0.6459  0.5837  0.0121
 6610TIP3    H141245   2.322   0.374  13.085  0.6852  0.6546 -0.0567
 6610TIP3    H241246   2.398   0.441  13.198  1.0674  1.3126 -0.6914
 6611TIP3   OH241247   4.425   3.967  11.437 -0.9014  0.2179 -0.0328
 6611TIP3    H141248   4.496   3.916  11.475 -1.6202 -2.0780 -1.5858
 6611TIP3    H241249   4.388   4.015  11.511  2.4645  1.8779  0.7573
 6612TIP3   OH241250   1.222   0.562  12.005 -0.3116 -0.0853 -0.0702
 6612TIP3    H141251   1.223   0.648  12.047  0.8877 -0.4964  0.8224
 6612TIP3    H241252   1.305   0.521  12.033 -1.3497 -1.9606  0.4592
 6613TIP3   OH241253   5.879   1.279   4.805  0.7057  0.3060  0.1577
 6613TIP3    H141254   5.871   1.266   4.711  1.0935 -0.4554  0.2186
 6613TIP3    H241255   5.944   1.348   4.815 -0.4647  1.4911 -0.1558
 6614TIP3   OH241256   3.803   4.644   2.574 -0.1671 -0.4855  0.0035
 6614TIP3    H141257   3.798   4.583   2.499  1.1094 -2.7935  1.6518
 6614TIP3    H241258   3.887   4.688   2.562  0.1479 -1.0266  0.1725
 6615TIP3   OH241259   5.229   5.507   4.906  0.7196 -0.4620 -0.0556
 6615TIP3    H141260   5.321   5.513   4.881  0.7746 -0.0903  0.2140
 6615TIP3    H241261   5.183   5.558   4.839  0.8762  0.6027  0.6089
 6616TIP3   OH241262   6.181   3.257   1.898 -0.1478 -0.5081  0.0456
 6616TIP3    H141263   6.174   3.288   1.807  0.0675  1.6652  0.7209
 6616TIP3    H241264   6.094   3.269   1.934  0.5663  2.1023  1.1057
 6617TIP3   OH241265   2.118   6.248  15.801  0.7204  0.2937 -0.7172
 6617TIP3    H141266   2.075   6.168  15.772 -1.5082  1.0830  0.2306
 6617TIP3    H241267   2.117   6.243  15.896  0.4952  1.4727 -0.6417
 6618TIP3   OH241268   3.429   3.262  14.862  0.4347  0.0431  0.3762
 6618TIP3    H141269   3.337   3.249  14.838 -0.4401  0.5130  3.1510
 6618TIP3    H241270   3.447   3.353  14.836 -0.1292  0.1985  0.4967
 6619TIP3   OH241271   5.678   0.474  12.141  0.0044 -0.3965 -0.0462
 6619TIP3    H141272   5.704   0.435  12.058 -1.0706 -0.2982 -0.4494
 6619TIP3    H241273   5.658   0.565  12.120  2.6218  0.4817  0.9112
 6620TIP3   OH241274   0.497   3.995  15.373  0.0562  0.6286  0.0967
 6620TIP3    H141275   0.419   3.988  15.318 -0.0147 -0.8501  0.3269
 6620TIP3    H241276   0.464   3.995  15.462  0.3293 -1.6464  0.2607
 6621TIP3   OH241277   2.313   3.966  15.247  0.2273  0.5576 -0.1523
 6621TIP3    H141278   2.387   3.951  15.190  1.9049  3.8805  0.8709
 6621TIP3    H241279   2.237   3.965  15.189  1.0973 -1.9948 -1.3749
 6622TIP3   OH241280   3.225   2.164   0.026 -0.3900  0.2173 -0.2188
 6622TIP3    H141281   3.299   2.104   0.023 -1.9794 -1.8805 -0.0409
 6622TIP3    H241282   3.200   2.176  -0.065  0.2168  1.0287 -0.2878
 6623TIP3   OH241283   4.277   0.837  11.849  0.0437 -0.5271  0.2704
 6623TIP3    H141284   4.195   0.845  11.800  0.6379 -0.7114 -0.7909
 6623TIP3    H241285   4.334   0.903  11.809  0.4912 -0.5659  0.8412
 6624TIP3   OH241286   3.440   3.690  16.889  0.3467  0.3108 -0.0125
 6624TIP3    H141287   3.490   3.666  16.811  1.0339  0.8654  0.2336
 6624TIP3    H241288   3.424   3.607  16.934  1.9216  0.1838  0.3935
 6625TIP3   OH241289   2.483   5.586  15.581  0.1253  0.2710 -0.3453
 6625TIP3    H141290   2.495   5.658  15.520 -0.6342  0.3328 -0.4318
 6625TIP3    H241291   2.396   5.551  15.561  0.5622 -0.8097 -0.4550
 6626TIP3   OH241292   3.402   4.507  15.342 -0.5576 -0.7723  0.1445
 6626TIP3    H141293   3.381   4.486  15.251  0.5941 -0.9314 -0.0982
 6626TIP3    H241294   3.376   4.598  15.353  1.3311 -0.0471 -1.0201
 6627TIP3   OH241295   2.947   0.798   2.911 -0.2527 -0.0429  0.2707
 6627TIP3    H141296   2.955   0.791   2.815 -0.3299 -0.2810  0.2815
 6627TIP3    H241297   2.986   0.717   2.944  0.6994  0.4823  0.4909
 6628TIP3   OH241298   4.289   4.390   4.435 -0.1771 -0.2153  0.4027
 6628TIP3    H141299   4.219   4.443   4.472 -1.4264 -1.5998  0.1297
 6628TIP3    H241300   4.289   4.310   4.488  0.0162 -0.9627 -0.6876
 6629TIP3   OH241301   0.999   3.827   5.221 -0.1255 -0.1425  0.4159
 6629TIP3    H141302   1.021   3.859   5.309  0.7039  0.9194 -0.1568
 6629TIP3    H241303   1.019   3.733   5.224  2.4373  0.3237  0.6161
 6630TIP3   OH241304   0.279   1.684   5.424 -0.7161  0.1311  0.0433
 6630TIP3    H141305   0.350   1.681   5.488 -0.6854  0.5539  0.0366
 6630TIP3    H241306   0.230   1.764   5.447 -0.2521  0.7051 -0.9286
 6631TIP3   OH241307   4.921   3.346   5.148  0.6424 -0.6714 -0.0274
 6631TIP3    H141308   4.970   3.266   5.130 -0.0230 -0.8861 -0.9259
 6631TIP3    H241309   4.830   3.318   5.155  0.5848 -0.2450  1.4049
 6632TIP3   OH241310   1.972   4.551  14.479  0.1954 -0.1806  0.3240
 6632TIP3    H141311   1.908   4.621  14.494 -0.6946 -1.2441  1.7227
 6632TIP3    H241312   2.057   4.592  14.500 -0.4177  0.2182  2.2782
 6633TIP3   OH241313   5.649   3.140  14.566 -0.5391  0.0909 -0.1906
 6633TIP3    H141314   5.647   3.187  14.483 -1.4078 -0.8488 -0.7268
 6633TIP3    H241315   5.569   3.088  14.566 -0.3412 -0.2462  1.0503
 6634TIP3   OH241316   5.468   4.912   5.705 -0.5217  0.2429  0.4904
 6634TIP3    H141317   5.527   4.925   5.779 -2.4633  0.6426  2.0484
 6634TIP3    H241318   5.464   4.997   5.662  1.0679 -0.1384 -0.4847
 6635TIP3   OH241319   1.554   1.411  13.006  0.1820  0.7773 -0.0223
 6635TIP3    H141320   1.571   1.427  13.099 -1.4346  0.1374  0.4177
 6635TIP3    H241321   1.544   1.498  12.968 -0.7715  1.0240  0.7470
 6636TIP3   OH241322   3.783   0.415  11.103 -0.0204 -0.3049  0.2319
 6636TIP3    H141323   3.770   0.336  11.052  0.0936  1.1012 -2.1438
 6636TIP3    H241324   3.724   0.479  11.063  2.6045  1.8491 -0.5230
 6637TIP3   OH241325   4.121   6.405  12.221  0.0569  0.1979 -0.1382
 6637TIP3    H141326   4.208   6.417  12.182 -0.5142 -0.4654 -1.6810
 6637TIP3    H241327   4.060   6.415  12.148 -1.3256  2.3075  1.1868
 6638TIP3   OH241328   2.074   1.181  10.786 -0.1555 -0.3870 -0.1736
 6638TIP3    H141329   2.114   1.158  10.702  0.1976  2.4074 -0.8651
 6638TIP3    H241330   2.142   1.231  10.832 -1.2200  0.3034  0.6894
 6639TIP3   OH241331   2.737   6.146  14.684  0.2119  0.5463 -0.1612
 6639TIP3    H141332   2.703   6.217  14.739 -0.3759 -0.0698  0.2926
 6639TIP3    H241333   2.659   6.097  14.657  0.4835  0.8746 -1.6278
 6640TIP3   OH241334   1.578   3.178   0.536 -0.7526  0.0242  0.2931
 6640TIP3    H141335   1.665   3.217   0.534 -0.9023  0.4711  1.6598
 6640TIP3    H241336   1.520   3.250   0.560 -1.5885 -0.1567 -1.0296
 6641TIP3   OH241337   3.683   0.027   1.606  0.2314 -0.0757  0.1725
 6641TIP3    H141338   3.594  -0.008   1.612  0.3534 -0.1891  1.7357
 6641TIP3    H241339   3.732  -0.041   1.558 -0.3922 -0.2561 -0.2216
 6642TIP3   OH241340   1.829   1.952  10.903 -0.2517  0.3776 -0.4893
 6642TIP3    H141341   1.828   1.990  10.815 -1.6958  0.3518 -0.5150
 6642TIP3    H241342   1.903   1.892  10.903 -0.4518  0.0964 -1.8219
 6643TIP3   OH241343   3.801   5.470   5.348 -0.2467  0.1532  0.2980
 6643TIP3    H141344   3.733   5.535   5.366 -0.6654 -0.1644 -0.1235
 6643TIP3    H241345   3.760   5.386   5.368 -0.3945 -0.1356 -1.1189
 6644TIP3   OH241346   5.655   5.334  11.051 -0.6643  0.7031  0.0113
 6644TIP3    H141347   5.661   5.298  10.962 -0.4130  0.7032  0.0290
 6644TIP3    H241348   5.704   5.272  11.105 -2.7818 -0.6218  0.5565
 6645TIP3   OH241349   5.934   3.959   5.575 -0.2539 -0.1104 -0.2072
 6645TIP3    H141350   5.947   3.864   5.582 -1.9592 -0.5101 -1.7862
 6645TIP3    H241351   5.926   3.989   5.666  2.2578 -1.1175  0.4427
 6646TIP3   OH241352   3.281   0.748  16.462  0.1694  0.0433 -0.1021
 6646TIP3    H141353   3.302   0.793  16.544  0.8005 -1.4854  0.6269
 6646TIP3    H241354   3.305   0.656  16.478 -1.8392 -0.7395 -1.2284
 6647TIP3   OH241355   1.018   3.085   4.775 -0.2354 -0.9837 -0.2211
 6647TIP3    H141356   1.052   3.122   4.693 -0.2034  0.1229  0.2680
 6647TIP3    H241357   1.096   3.056   4.822 -0.0978 -0.1531  0.0905
 6648TIP3   OH241358   2.613   2.853   2.694 -0.0816 -0.3539 -0.5015
 6648TIP3    H141359   2.663   2.905   2.756 -0.0830 -1.3130  0.3238
 6648TIP3    H241360   2.531   2.902   2.683  0.4608  0.5019 -0.7874
 6649TIP3   OH241361   0.825   0.420  14.220  0.1799  0.3030 -0.4673
 6649TIP3    H141362   0.892   0.432  14.153  0.6360  0.1913 -0.0295
 6649TIP3    H241363   0.815   0.325  14.227  1.3707  0.2555  0.8502
 6650TIP3   OH241364   6.302   5.672  13.104 -0.1863  0.3577 -0.1821
 6650TIP3    H141365   6.344   5.727  13.038  1.1909 -0.0409  0.3046
 6650TIP3    H241366   6.328   5.712  13.188  1.0711 -1.1363  0.1912
 6651TIP3   OH241367   2.267   2.018  15.776 -0.2742  0.1887  0.3109
 6651TIP3    H141368   2.315   1.937  15.763 -0.4809  0.3407 -1.6944
 6651TIP3    H241369   2.312   2.082  15.721 -0.9692  1.0804  0.7450
 6652TIP3   OH241370   2.428   2.300  15.164  0.0104 -0.0812 -0.0385
 6652TIP3    H141371   2.458   2.352  15.238 -0.6068  0.6073 -0.2478
 6652TIP3    H241372   2.333   2.297  15.174 -0.0100 -0.6661 -0.3654
 6653TIP3   OH241373   4.000   6.768  15.237 -0.1052 -0.4257  0.3262
 6653TIP3    H141374   4.073   6.825  15.263  0.2369 -0.5863 -0.2766
 6653TIP3    H241375   3.967   6.807  15.156  1.7184 -2.4349 -1.5256
 6654TIP3   OH241376   3.967   5.487  12.365 -0.5908  0.4758 -0.2168
 6654TIP3    H141377   4.061   5.502  12.378 -0.2873 -1.1704 -0.2640
 6654TIP3    H241378   3.963   5.433  12.285 -1.5866  0.6546 -0.2950
 6655TIP3   OH241379   2.611   0.290  12.476  0.0031  0.0475 -0.6268
 6655TIP3    H141380   2.667   0.234  12.422  1.1542 -0.0966  0.6725
 6655TIP3    H241381   2.547   0.326  12.414 -1.1187 -3.0473 -1.4271
 6656TIP3   OH241382   0.525   2.903  12.936  0.3875  0.3066  0.0385
 6656TIP3    H141383   0.437   2.866  12.942 -0.0167  1.0072 -1.1829
 6656TIP3    H241384   0.582   2.836  12.973 -0.7075  0.0940  1.4492
 6657TIP3   OH241385   4.569   1.149  16.730  0.2310 -0.5759 -0.8506
 6657TIP3    H141386   4.505   1.106  16.786  0.7743 -0.2794  0.0135
 6657TIP3    H241387   4.536   1.238  16.717  0.4364 -0.4367 -0.4407
 6658TIP3   OH241388   5.526   4.242   5.008  0.1441 -0.0633 -0.8826
 6658TIP3    H141389   5.563   4.261   5.094  0.6028 -1.4994 -0.7242
 6658TIP3    H241390   5.600   4.246   4.948 -0.1201  0.6310 -1.1726
 6659TIP3   OH241391   4.821   1.427  16.284  0.1433 -0.1407 -0.3929
 6659TIP3    H141392   4.730   1.456  16.285  0.8976  2.5599  0.6915
 6659TIP3    H241393   4.857   1.466  16.204  0.5190 -0.5848 -0.4428
 6660TIP3   OH241394   4.426   3.864   5.451  0.2796 -0.8114 -0.5877
 6660TIP3    H141395   4.492   3.807   5.411  1.1416 -0.2077 -0.0447
 6660TIP3    H241396   4.357   3.803   5.478  1.0490 -1.5835 -0.2840
 6661TIP3   OH241397   0.225   3.360   1.834  0.3167  0.2705  0.3344
 6661TIP3    H141398   0.313   3.328   1.812  0.3791  1.1232 -0.7344
 6661TIP3    H241399   0.166   3.307   1.781  0.2438  0.2384  0.4478
 6662TIP3   OH241400   3.561   6.645   4.011  0.4845 -0.4308  0.6536
 6662TIP3    H141401   3.509   6.628   4.089  0.5287  0.1619  0.8183
 6662TIP3    H241402   3.652   6.632   4.038  0.8072  2.7941  1.6280
 6663TIP3   OH241403   5.557   3.404   4.065 -0.3253  0.1641 -0.3622
 6663TIP3    H141404   5.479   3.366   4.106 -0.8239 -1.5820 -2.6995
 6663TIP3    H241405   5.630   3.372   4.118 -1.0733  2.4038  2.3063
 6664TIP3   OH241406   5.511   5.424  14.961 -0.3939 -0.1294 -0.0447
 6664TIP3    H141407   5.505   5.453  14.870  1.8112 -0.8440 -0.4724
 6664TIP3    H241408   5.590   5.465  14.995  1.3566 -3.2916  0.1348
 6665TIP3   OH241409   0.700   3.435   3.788 -0.7545 -0.0616 -0.3207
 6665TIP3    H141410   0.689   3.518   3.835 -2.1247 -1.0228  1.2129
 6665TIP3    H241411   0.719   3.460   3.698  0.5495  1.8914  0.4330
 6666TIP3   OH241412   0.896   5.044  16.387  0.1335 -0.2023  0.3370
 6666TIP3    H141413   0.969   4.984  16.401 -0.8340 -1.2662  1.0485
 6666TIP3    H241414   0.937   5.126  16.359  1.6693 -0.3921  1.8599
 6667TIP3   OH241415   4.220   2.831  14.975 -0.4617  0.4144  0.1683
 6667TIP3    H141416   4.271   2.825  14.894  0.9036  1.7965  0.8794
 6667TIP3    H241417   4.158   2.902  14.959 -1.3724 -0.4569 -0.2575
 6668TIP3   OH241418   0.406   5.014  15.542  0.4813  0.1407  0.5798
 6668TIP3    H141419   0.435   4.979  15.458  0.8617  2.1535 -0.1830
 6668TIP3    H241420   0.486   5.016  15.596  0.9375  1.7512 -0.1016
 6669TIP3   OH241421   0.126   2.935   5.624  0.4457  0.3753  0.1670
 6669TIP3    H141422   0.192   2.887   5.573  0.3746 -1.9005  2.0493
 6669TIP3    H241423   0.171   3.017   5.648  1.1932  0.5815 -1.7085
 6670TIP3   OH241424   2.081   1.534  13.441 -0.4224  1.0099 -0.2841
 6670TIP3    H141425   2.175   1.515  13.435 -0.0048  2.0467  1.9408
 6670TIP3    H241426   2.047   1.516  13.353  2.3308  3.2402 -1.9718
 6671TIP3   OH241427   2.981   2.143   3.271  0.1725 -0.0989 -0.2675
 6671TIP3    H141428   2.968   2.223   3.321 -0.8835 -1.1512  1.2030
 6671TIP3    H241429   3.075   2.141   3.253  0.4053  0.8490  0.7477
 6672TIP3   OH241430   4.178   5.477  14.975  0.1394 -0.0236  0.0405
 6672TIP3    H141431   4.198   5.561  14.933  0.3267 -0.4553 -0.7470
 6672TIP3    H241432   4.240   5.415  14.935 -0.2341 -0.6078  0.3614
 6673TIP3   OH241433   3.695   3.451  11.307 -0.2415 -0.0669  0.1891
 6673TIP3    H141434   3.743   3.530  11.285  1.1311 -0.9142  0.0281
 6673TIP3    H241435   3.736   3.419  11.387 -1.4232 -0.1068  0.8007
 6674TIP3   OH241436   4.695   4.338   3.960 -0.0049  0.1051 -0.0235
 6674TIP3    H141437   4.614   4.289   3.947 -0.8670  0.3377  3.3809
 6674TIP3    H241438   4.673   4.428   3.937 -0.6708  0.1159  0.6174
 6675TIP3   OH241439   1.794   3.554   1.431 -0.7424 -0.0561  0.4290
 6675TIP3    H141440   1.773   3.640   1.395 -1.1190 -0.3744 -0.1304
 6675TIP3    H241441   1.710   3.509   1.436 -0.4669 -0.6177  0.1091
 6676TIP3   OH241442   2.104   5.880   4.971 -0.2795  0.0687 -0.7958
 6676TIP3    H141443   2.170   5.935   4.929 -1.1057  0.5215 -1.5300
 6676TIP3    H241444   2.038   5.865   4.903 -0.9644 -0.3327 -0.0627
 6677TIP3   OH241445   3.836   1.360  11.372  0.7967  0.8911 -0.2191
 6677TIP3    H141446   3.817   1.351  11.466  0.8196  1.0560 -0.1974
 6677TIP3    H241447   3.757   1.399  11.335  0.7914  0.8350 -0.2660
 6678TIP3   OH241448   1.337   0.864  14.766 -0.2631 -0.0887 -0.1964
 6678TIP3    H141449   1.409   0.843  14.706  0.1508  0.7174  0.0080
 6678TIP3    H241450   1.374   0.854  14.853  0.3822  2.7304 -0.0610
 6679TIP3   OH241451   1.773   2.902   3.310  0.2022  0.0319  0.3866
 6679TIP3    H141452   1.821   2.979   3.341  0.5238 -0.0913  0.2090
 6679TIP3    H241453   1.707   2.885   3.377 -0.6928  1.2089 -0.1707
 6680TIP3   OH241454   6.018   1.171  16.664 -0.0396 -0.3132  0.0121
 6680TIP3    H141455   6.050   1.217  16.587  1.1972  2.8089  2.1662
 6680TIP3    H241456   5.928   1.148  16.643 -0.3048  1.9988 -1.7693
 6681TIP3   OH241457   3.251   5.069  12.027 -0.1218  0.1156  0.5099
 6681TIP3    H141458   3.205   5.025  12.099  1.2366  1.0135  1.9691
 6681TIP3    H241459   3.274   5.155  12.062  1.5963  0.1369 -0.5898
 6682TIP3   OH241460   0.678   4.829  14.636  0.2603 -0.4376  0.1723
 6682TIP3    H141461   0.658   4.778  14.714 -0.5131 -1.4561 -0.6552
 6682TIP3    H241462   0.718   4.766  14.576 -0.9858 -0.1592 -0.9874
 6683TIP3   OH241463   3.088   5.360   1.776 -0.2577 -0.3162 -0.2427
 6683TIP3    H141464   2.997   5.339   1.755 -0.5293  0.0959  0.4953
 6683TIP3    H241465   3.136   5.279   1.759 -0.9646 -0.9242  0.5815
 6684TIP3   OH241466   1.507   6.737   1.694 -0.3082  0.3021 -0.1097
 6684TIP3    H141467   1.516   6.681   1.771 -0.2809  1.6956  0.9388
 6684TIP3    H241468   1.563   6.696   1.628  1.2497  0.1627  1.2449
 6685TIP3   OH241469   5.310   5.848  10.800 -0.0565  0.6857  0.0200
 6685TIP3    H141470   5.258   5.783  10.753  1.6470 -0.1627 -0.7715
 6685TIP3    H241471   5.339   5.909  10.733  1.1020  0.3526  0.1985
 6686TIP3   OH241472   4.144   5.327   0.722 -0.0269 -0.1943  0.0964
 6686TIP3    H141473   4.208   5.383   0.767 -1.1341  0.8742  0.3971
 6686TIP3    H241474   4.078   5.308   0.789 -0.0888 -1.1841 -0.2397
 6687TIP3   OH241475   2.870   5.384  10.993  0.6398 -0.4266 -0.0674
 6687TIP3    H141476   2.899   5.421  10.910 -0.2455  0.3822 -0.0363
 6687TIP3    H241477   2.823   5.456  11.036  1.3772 -0.7172  1.2886
 6688TIP3   OH241478   5.500   3.289  13.067 -0.1191  0.1705  0.4438
 6688TIP3    H141479   5.540   3.204  13.049 -2.0704 -0.5263 -0.9739
 6688TIP3    H241480   5.512   3.339  12.986 -0.5162  0.6046  0.6456
 6689TIP3   OH241481   6.012   5.477  12.657 -0.8995  0.7644 -0.6164
 6689TIP3    H141482   5.953   5.423  12.709  1.2341 -2.4731 -1.2563
 6689TIP3    H241483   6.045   5.543  12.718 -2.9811  0.8964  0.4397
 6690TIP3   OH241484   0.013   2.664  14.068  0.0775  0.2544  0.0746
 6690TIP3    H141485  -0.061   2.620  14.111  1.1739 -0.3731  1.3972
 6690TIP3    H241486   0.080   2.669  14.136  0.8418  1.8717 -0.7611
 6691TIP3   OH241487   6.741   4.285   3.601  0.5084 -0.6211  0.4073
 6691TIP3    H141488   6.649   4.277   3.626  0.8513 -0.5756  1.7417
 6691TIP3    H241489   6.744   4.251   3.511 -0.6914 -1.2828  0.5909
 6692TIP3   OH241490   1.361   0.728  13.571  0.7671  0.5338 -0.1658
 6692TIP3    H141491   1.268   0.735  13.594  0.0401 -2.0757 -1.8388
 6692TIP3    H241492   1.367   0.768  13.484  0.7642 -0.8593 -0.8448
 6693TIP3   OH241493   6.306   5.159   1.767 -0.4053 -0.6308 -0.0041
 6693TIP3    H141494   6.362   5.121   1.699  0.6259  1.1212 -0.2008
 6693TIP3    H241495   6.367   5.205   1.825 -1.3555 -1.4095  1.6670
 6694TIP3   OH241496   3.227   5.919  12.727 -0.0480  0.0083  0.6408
 6694TIP3    H141497   3.196   5.882  12.644  0.0330 -0.0298  0.6270
 6694TIP3    H241498   3.276   5.997  12.702 -2.0858  1.4100  0.8228
 6695TIP3   OH241499   3.517   1.131  14.787  0.4580  0.1117  0.1005
 6695TIP3    H141500   3.523   1.081  14.868 -0.7867  0.4325  0.4150
 6695TIP3    H241501   3.516   1.065  14.718  1.4860 -0.1648  0.3259
 6696TIP3   OH241502   1.141   1.651  14.788  0.4937 -0.5706  0.1658
 6696TIP3    H141503   1.184   1.568  14.810 -0.5608 -1.2042 -0.0515
 6696TIP3    H241504   1.108   1.637  14.699 -1.1194 -0.5479  0.7233
 6697TIP3   OH241505   2.102   5.787  14.552  0.0289  0.1317 -0.0673
 6697TIP3    H141506   2.017   5.820  14.583 -1.0777 -1.3136 -1.4195
 6697TIP3    H241507   2.117   5.834  14.470 -0.0188 -0.4124 -0.3928
 6698TIP3   OH241508   3.915   3.524   0.689 -0.2577  0.3581 -0.8270
 6698TIP3    H141509   3.844   3.496   0.747  0.0868  1.0310 -0.0534
 6698TIP3    H241510   3.872   3.575   0.621 -0.5425  0.6505 -0.4334
 6699TIP3   OH241511   1.310   2.407   1.513 -0.6356  0.1028  0.5002
 6699TIP3    H141512   1.329   2.499   1.498 -0.1713 -0.0664  0.0341
 6699TIP3    H241513   1.223   2.407   1.554 -1.4860  0.6305 -1.2288
 6700TIP3   OH241514   0.497   0.121  16.494 -0.0407  0.1075  0.2056
 6700TIP3    H141515   0.458   0.060  16.556  1.0806 -0.6994  0.1455
 6700TIP3    H241516   0.501   0.204  16.541  0.0241 -0.2937  0.9249
 6701TIP3   OH241517   2.649   2.873  14.172  0.5549  0.1676 -0.1313
 6701TIP3    H141518   2.722   2.923  14.136  2.6540 -2.5862  0.0312
 6701TIP3    H241519   2.647   2.898  14.265  0.8153  0.7517 -0.2737
 6702TIP3   OH241520   0.890   3.589  16.425 -0.2534  0.3583  0.0238
 6702TIP3    H141521   0.868   3.559  16.513 -0.6066 -0.6712 -0.3979
 6702TIP3    H241522   0.875   3.684  16.427 -0.5307  0.2974  0.9893
 6703TIP3   OH241523   4.475   5.941  16.263 -0.5182  0.3812 -0.1389
 6703TIP3    H141524   4.440   5.964  16.349 -0.6525  1.9231 -0.5795
 6703TIP3    H241525   4.522   6.020  16.234  0.4577 -0.4879 -1.0147
 6704TIP3   OH241526   0.329   6.772  11.135  0.3434 -0.5271 -0.1715
 6704TIP3    H141527   0.367   6.795  11.050 -0.9954  0.3861 -0.5498
 6704TIP3    H241528   0.253   6.829  11.144  1.1619  0.3189  2.2227
 6705TIP3   OH241529   4.535   5.884  15.936  0.0217 -0.3994  0.7769
 6705TIP3    H141530   4.538   5.923  15.848 -1.5570  0.0606  0.8868
 6705TIP3    H241531   4.626   5.862  15.956  0.6006  0.7770 -0.4020
 6706TIP3   OH241532   2.317   0.470   5.952 -0.0531 -0.4263 -0.1667
 6706TIP3    H141533   2.332   0.383   5.915  0.5807 -0.2715 -0.2909
 6706TIP3    H241534   2.379   0.527   5.906 -0.2928  0.0448  0.0850
 6707TIP3   OH241535   3.280   5.482  13.846  0.1590 -0.3233 -0.2975
 6707TIP3    H141536   3.268   5.415  13.913 -0.2415  0.5768  0.5463
 6707TIP3    H241537   3.251   5.439  13.765 -2.0368 -0.5445  0.5312
 6708TIP3   OH241538   4.617   6.519   2.530 -0.0343 -0.6433 -0.2390
 6708TIP3    H141539   4.553   6.550   2.467 -1.0487  0.1865  1.1512
 6708TIP3    H241540   4.645   6.598   2.577  2.1949 -0.9325 -0.9254
 6709TIP3   OH241541   1.652   1.381  16.237  0.0536 -0.6686  0.0411
 6709TIP3    H141542   1.557   1.386  16.237  0.0533 -0.6118  0.7259
 6709TIP3    H241543   1.680   1.445  16.302  0.4439 -2.5612  1.8441
 6710TIP3   OH241544   0.349   1.497  11.366  0.7029  0.1385  0.7747
 6710TIP3    H141545   0.376   1.504  11.457 -0.8532  1.1221  1.2102
 6710TIP3    H241546   0.317   1.585  11.343 -0.1615 -0.4208 -0.2859
 6711TIP3   OH241547   0.404   5.965   3.077  0.2563  0.1320 -0.3951
 6711TIP3    H141548   0.415   5.938   2.986  0.1578 -2.3250  0.2524
 6711TIP3    H241549   0.488   5.944   3.118  0.4754  1.6849  0.0155
 6712TIP3   OH241550   4.119   0.540   3.907 -0.0635  0.1205 -0.2253
 6712TIP3    H141551   4.090   0.453   3.934 -0.6989  0.0324 -1.1495
 6712TIP3    H241552   4.150   0.528   3.818 -1.0130  1.0038 -0.6964
 6713TIP3   OH241553   0.956   4.673   5.008  0.2694  0.9944  0.0667
 6713TIP3    H141554   1.047   4.648   5.025  0.6110  0.3200 -2.3612
 6713TIP3    H241555   0.915   4.594   4.973 -0.8916  1.6610 -0.1546
 6714TIP3   OH241556   5.807   3.713  11.265 -0.0533 -0.3164  0.3983
 6714TIP3    H141557   5.815   3.621  11.238 -0.6005 -0.5448  0.9840
 6714TIP3    H241558   5.854   3.718  11.348 -0.1708 -0.1125  0.4529
 6715TIP3   OH241559   0.825   3.160  12.230 -0.0393  0.3632 -0.3832
 6715TIP3    H141560   0.857   3.112  12.154  0.8583 -2.0281  1.3622
 6715TIP3    H241561   0.903   3.177  12.283 -0.8926 -0.2525  1.1432
 6716TIP3   OH241562   3.499   2.400  11.931 -0.4519 -0.6652 -0.1093
 6716TIP3    H141563   3.516   2.363  11.845  1.2842  0.6539 -0.4085
 6716TIP3    H241564   3.586   2.418  11.967 -1.1492  0.8560  0.9658
 6717TIP3   OH241565   1.050   0.722  14.570 -0.1685  0.2473  0.4155
 6717TIP3    H141566   1.042   0.789  14.638 -3.1992 -0.9318  1.3933
 6717TIP3    H241567   1.081   0.644  14.617 -1.2592 -0.2865  0.2715
 6718TIP3   OH241568   0.300   3.322   0.512 -0.4511  0.5433 -0.3391
 6718TIP3    H141569   0.293   3.318   0.608 -1.1469 -0.9141 -0.4194
 6718TIP3    H241570   0.290   3.415   0.492 -1.6470  0.7399  0.9305
 6719TIP3   OH241571   0.020   4.562   1.026  0.1317  0.0629 -0.1652
 6719TIP3    H141572   0.113   4.580   1.016  0.2929 -0.9817 -0.5681
 6719TIP3    H241573   0.014   4.501   1.099 -0.2217 -0.0586 -0.2924
 6720TIP3   OH241574   0.217   3.381   5.915  0.7072 -0.0915  0.1454
 6720TIP3    H141575   0.137   3.362   5.866 -0.1132 -1.5949  1.9239
 6720TIP3    H241576   0.212   3.474   5.934  0.6468  0.3642 -1.8404
 6721TIP3   OH241577   0.279   6.042   1.449  0.1516  0.5757 -0.2476
 6721TIP3    H141578   0.333   6.116   1.422 -0.6283  1.1294 -0.3434
 6721TIP3    H241579   0.302   6.028   1.541 -0.6073  1.7976  0.1633
 6722TIP3   OH241580   1.987   1.767  16.361 -0.0271  0.1016  0.3353
 6722TIP3    H141581   1.928   1.693  16.369 -1.7699  1.3961  0.0339
 6722TIP3    H241582   2.029   1.755  16.275 -0.5802 -0.3469  0.1240
 6723TIP3   OH241583   2.400   6.486  13.542 -0.2273 -0.2023 -0.3046
 6723TIP3    H141584   2.441   6.443  13.617  0.4772  0.1339 -0.4856
 6723TIP3    H241585   2.328   6.428  13.518  0.7857 -1.3671 -0.6277
 6724TIP3   OH241586   0.550   6.630  11.246  0.3445  0.0592  0.7024
 6724TIP3    H141587   0.557   6.612  11.152  0.9991  0.9363  0.5759
 6724TIP3    H241588   0.487   6.703  11.251 -0.5436 -0.7036  1.0413
 6725TIP3   OH241589   6.002   3.735   4.878  0.3047  0.0211  0.6722
 6725TIP3    H141590   5.920   3.782   4.895  1.2365  2.0831 -0.1754
 6725TIP3    H241591   6.007   3.730   4.782  1.8107  1.2518  0.6448
 6726TIP3   OH241592   6.049   4.074   2.101  0.3489 -0.2440 -0.1977
 6726TIP3    H141593   5.978   4.115   2.051  2.0083 -0.0213 -2.5223
 6726TIP3    H241594   6.125   4.130   2.085  1.9993 -2.5789 -1.0565
 6727TIP3   OH241595   4.902   1.314   3.622  0.5124 -1.1089 -0.1564
 6727TIP3    H141596   4.983   1.365   3.629  0.9043 -1.8376  0.9825
 6727TIP3    H241597   4.843   1.355   3.686 -0.5876  0.3405 -1.9916
 6728TIP3   OH241598   5.788   1.523   5.768 -0.1338 -0.1634  0.2151
 6728TIP3    H141599   5.779   1.617   5.779  0.5287 -0.0205 -0.3832
 6728TIP3    H241600   5.706   1.496   5.726 -0.0218  0.2633 -0.2869
 6729TIP3   OH241601   1.719   0.138   2.741 -0.3597  0.2004 -0.1496
 6729TIP3    H141602   1.779   0.203   2.706 -1.8293  2.4744  1.3401
 6729TIP3    H241603   1.656   0.123   2.671 -0.1199  0.5208 -0.4375
 6730TIP3   OH241604   5.716   1.829   6.118  0.3707 -0.1068 -0.6028
 6730TIP3    H141605   5.718   1.743   6.160  0.5591 -0.2752 -0.9542
 6730TIP3    H241606   5.680   1.887   6.185 -1.0103 -0.6940 -0.8064
 6731TIP3   OH241607   2.779   2.024   5.312  0.4923 -0.3966  0.1654
 6731TIP3    H141608   2.869   2.053   5.299 -0.1912  0.8750 -2.2080
 6731TIP3    H241609   2.755   2.057   5.399  2.2223 -0.5785  0.7414
 6732TIP3   OH241610   3.911   2.629  14.546 -0.0109  0.2810 -0.3915
 6732TIP3    H141611   3.912   2.559  14.480  0.8990  1.0675 -1.2370
 6732TIP3    H241612   3.822   2.627  14.581  0.0024 -1.3198 -0.3667
 6733TIP3   OH241613   6.452   1.876  15.272 -0.8705 -0.2927  0.2940
 6733TIP3    H141614   6.468   1.946  15.335 -0.8076 -1.2235  1.3588
 6733TIP3    H241615   6.366   1.841  15.296 -1.5608  0.3484 -1.1504
 6734TIP3   OH241616   4.805   4.568  13.714 -0.2331 -0.4781  0.7318
 6734TIP3    H141617   4.803   4.478  13.747 -1.1675 -0.4342  0.8209
 6734TIP3    H241618   4.833   4.559  13.622  2.0110 -0.6328  1.3592
 6735TIP3   OH241619   5.398   6.449  15.768  0.3386  0.4676  0.0667
 6735TIP3    H141620   5.452   6.494  15.833 -0.1429 -0.0409  0.8462
 6735TIP3    H241621   5.378   6.364  15.809  1.0832 -0.3941 -1.2867
 6736TIP3   OH241622   3.774   4.065   3.004 -0.5850  0.1739 -0.3874
 6736TIP3    H141623   3.760   4.116   2.924 -0.1694  0.3126 -0.3727
 6736TIP3    H241624   3.800   3.978   2.972 -1.1901 -0.0034 -0.4105
 6737TIP3   OH241625   1.278   2.623   4.804  0.8902  0.2848  0.4411
 6737TIP3    H141626   1.358   2.652   4.848  1.4628 -0.7580  0.1323
 6737TIP3    H241627   1.307   2.601   4.715 -0.2493  2.4298 -0.5425
 6738TIP3   OH241628   2.770   4.670   1.610 -0.9469  0.0209  0.1754
 6738TIP3    H141629   2.862   4.650   1.622 -1.2475 -1.0572  0.8579
 6738TIP3    H241630   2.754   4.748   1.663 -0.3801  0.3912 -0.1881
 6739TIP3   OH241631   4.051   0.650  13.110  0.0996 -0.0024  0.1607
 6739TIP3    H141632   3.960   0.623  13.123 -0.1664  1.0039  0.5195
 6739TIP3    H241633   4.082   0.673  13.198  0.1131  1.3933 -0.1912
 6740TIP3   OH241634   3.214   4.746   4.333 -0.4630 -0.5822  0.6081
 6740TIP3    H141635   3.185   4.710   4.417  0.7445 -0.3223  1.1481
 6740TIP3    H241636   3.132   4.767   4.287 -1.1500 -1.6122  1.3152
 6741TIP3   OH241637   2.986   3.138  12.141  0.4306 -0.0605  0.0558
 6741TIP3    H141638   2.934   3.069  12.184 -0.3327  0.8837  0.6792
 6741TIP3    H241639   3.076   3.120  12.168  0.2536 -0.8268  0.1841
 6742TIP3   OH241640   5.058   2.064   3.066  0.2738  0.0304  0.4059
 6742TIP3    H141641   4.969   2.101   3.071  0.5865  0.7296  0.9074
 6742TIP3    H241642   5.045   1.970   3.077 -0.5161 -0.0079 -0.6622
 6743TIP3   OH241643   1.326   6.395  15.229 -0.1001 -0.4098  0.2091
 6743TIP3    H141644   1.289   6.473  15.271  3.2212  0.7974  1.1564
 6743TIP3    H241645   1.351   6.339  15.302 -2.0087 -2.2484 -0.4656
 6744TIP3   OH241646   4.009   6.211  14.742  0.2738 -0.1631 -0.2431
 6744TIP3    H141647   3.936   6.216  14.681  0.4272 -0.2359 -0.4319
 6744TIP3    H241648   4.012   6.297  14.784  0.8803  0.2719 -1.1502
 6745TIP3   OH241649   6.337   5.072   3.642  0.0798  0.1328 -0.7564
 6745TIP3    H141650   6.264   5.098   3.697 -0.3793 -1.2902 -0.6659
 6745TIP3    H241651   6.397   5.147   3.646 -0.5678  0.6235  0.5575
 6746TIP3   OH241652   2.001   5.582  15.457  0.1454  0.1449 -0.3838
 6746TIP3    H141653   2.010   5.490  15.436 -0.1714  0.2983 -1.2125
 6746TIP3    H241654   1.935   5.615  15.396 -1.5767  0.3766  1.4925
 6747TIP3   OH241655   3.912   3.629  12.629 -0.1997 -0.1104 -0.1326
 6747TIP3    H141656   4.002   3.637  12.597 -0.5205 -0.2386 -1.1211
 6747TIP3    H241657   3.921   3.621  12.724  0.7220  1.6078 -0.0362
 6748TIP3   OH241658   4.225   0.217   3.670 -0.0994 -0.6533  0.1024
 6748TIP3    H141659   4.147   0.223   3.726  0.0675 -4.0771  0.9416
 6748TIP3    H241660   4.190   0.193   3.584 -0.0947  0.3697 -0.1937
 6749TIP3   OH241661   3.943   3.787   5.660  0.2278  0.0460  0.2541
 6749TIP3    H141662   3.877   3.778   5.729  1.9139 -0.5378  1.8641
 6749TIP3    H241663   3.914   3.727   5.591 -0.5096 -0.7916  1.2568
 6750TIP3   OH241664   4.710   1.256   3.105 -0.4258  0.2425  0.3471
 6750TIP3    H141665   4.802   1.251   3.083 -0.6793 -0.9791 -0.5440
 6750TIP3    H241666   4.707   1.243   3.200  0.3231  0.4794  0.4025
 6751TIP3   OH241667   4.717   3.004  16.233 -0.0175 -0.1547  0.3893
 6751TIP3    H141668   4.666   3.009  16.152 -0.0342 -2.8022  0.1771
 6751TIP3    H241669   4.806   3.024  16.205 -0.3150  0.9046  0.1186
 6752TIP3   OH241670   2.806   4.593  15.951 -0.1925 -0.8130 -0.7592
 6752TIP3    H141671   2.872   4.656  15.922 -1.7681  0.2614 -2.1779
 6752TIP3    H241672   2.828   4.512  15.905  0.7659 -0.8082 -0.3468
 6753TIP3   OH241673   5.725   2.279   1.935  0.4327 -0.1483 -0.2697
 6753TIP3    H141674   5.689   2.275   1.846  1.9740 -0.8240 -0.8874
 6753TIP3    H241675   5.657   2.240   1.990 -0.6996  0.6210 -1.0689
 6754TIP3   OH241676   2.052   3.406   1.351  0.0052  0.2174  0.1807
 6754TIP3    H141677   2.003   3.339   1.303 -0.0788  1.5833 -1.7488
 6754TIP3    H241678   1.985   3.456   1.398 -0.4306  1.5017 -1.7155
 6755TIP3   OH241679   4.601   0.939  12.700  0.8323  0.1054 -0.5007
 6755TIP3    H141680   4.536   0.875  12.672  0.2738  0.9145 -1.0717
 6755TIP3    H241681   4.596   0.938  12.796 -0.5057  0.6611 -0.5556
 6756TIP3   OH241682   2.234   1.900  11.022  0.0250  0.9234  0.0186
 6756TIP3    H141683   2.162   1.854  10.979  1.1098 -1.3386  0.4741
 6756TIP3    H241684   2.256   1.972  10.963 -0.5322 -0.2649 -1.6923
 6757TIP3   OH241685   5.778   1.070   5.766  0.2426  0.2649 -0.2628
 6757TIP3    H141686   5.688   1.083   5.739  0.8561  0.3998 -2.4487
 6757TIP3    H241687   5.791   0.975   5.764  0.3718  0.2887 -0.8356
 6758TIP3   OH241688   5.860   0.307   2.196  0.2916 -0.0411 -0.6534
 6758TIP3    H141689   5.838   0.214   2.205 -0.3472  0.2177  0.8513
 6758TIP3    H241690   5.918   0.324   2.270 -0.1233  0.9051 -0.5408
 6759TIP3   OH241691   1.140   3.599   0.564 -0.3310  0.5146  0.2911
 6759TIP3    H141692   1.129   3.520   0.510  2.2957 -0.2273  0.6761
 6759TIP3    H241693   1.184   3.661   0.506  1.8470 -0.0319  1.2440
 6760TIP3   OH241694   6.690   3.653  15.118  1.3138  0.6713  0.5593
 6760TIP3    H141695   6.681   3.563  15.149  0.2463  0.0490 -1.3422
 6760TIP3    H241696   6.627   3.703  15.170 -0.1990 -0.2705 -0.2721
 6761TIP3   OH241697   6.292   2.938   0.280 -0.4157 -0.5132 -0.3624
 6761TIP3    H141698   6.371   2.899   0.317  1.8669  3.2494 -0.7453
 6761TIP3    H241699   6.225   2.928   0.348  0.8735 -2.2159  0.7202
 6762TIP3   OH241700   2.867   0.618  12.033  0.4147  0.3089 -0.2471
 6762TIP3    H141701   2.911   0.667  12.103  1.3827 -0.2200 -0.4636
 6762TIP3    H241702   2.867   0.679  11.958  2.6871 -0.3686 -0.8803
 6763TIP3   OH241703   2.930   5.177   2.134  0.1889  0.3248 -0.4660
 6763TIP3    H141704   3.003   5.131   2.174 -0.5185 -0.0538  0.4115
 6763TIP3    H241705   2.903   5.241   2.200 -3.1114 -2.4814  1.1947
 6764TIP3   OH241706   3.670   0.255   3.145  0.4492 -0.0571 -0.0563
 6764TIP3    H141707   3.633   0.229   3.230  1.5278 -2.3319 -0.1897
 6764TIP3    H241708   3.751   0.299   3.167 -0.1598  1.0044  0.1173
 6765TIP3   OH241709   2.121   6.735   3.176  0.3934  0.2525  0.2824
 6765TIP3    H141710   2.098   6.730   3.083  1.2123  1.7143 -0.0249
 6765TIP3    H241711   2.111   6.645   3.208 -1.0744 -0.0528 -0.9204
 6766TIP3   OH241712   6.130   2.270   0.353  0.1803 -0.4467  0.1444
 6766TIP3    H141713   6.209   2.248   0.302  0.4978  0.6923  0.1247
 6766TIP3    H241714   6.153   2.351   0.399 -0.5412 -0.7906  1.1383
 6767TIP3   OH241715   5.699   6.602  14.667  0.6219  0.6967  0.0050
 6767TIP3    H141716   5.626   6.544  14.688 -0.6827  2.5131  0.7895
 6767TIP3    H241717   5.735   6.627  14.752  0.5667  1.7119 -0.2479
 6768TIP3   OH241718   1.568   6.739   6.014  0.3059 -0.4193 -0.4302
 6768TIP3    H141719   1.620   6.682   6.071 -0.5819 -2.3332 -1.4081
 6768TIP3    H241720   1.483   6.745   6.057 -0.0600 -1.0729 -1.0285
 6769TIP3   OH241721   0.315   3.352  14.689 -0.0708 -0.1635  0.7730
 6769TIP3    H141722   0.390   3.293  14.679 -0.1809 -0.2258  0.2831
 6769TIP3    H241723   0.274   3.354  14.602 -1.3961 -1.1423  1.3495
 6770TIP3   OH241724   3.142   4.253   0.541  0.0151  0.2048 -0.3495
 6770TIP3    H141725   3.088   4.224   0.614  0.7196  0.1479  0.1649
 6770TIP3    H241726   3.120   4.193   0.469  0.1868 -0.5169  0.1838
 6771TIP3   OH241727   3.585   2.152  11.401 -0.2565 -0.7222 -0.1714
 6771TIP3    H141728   3.549   2.239  11.389  1.2814  0.0181  0.2891
 6771TIP3    H241729   3.674   2.158  11.365 -0.0267 -2.0166  0.1281
 6772TIP3   OH241730   6.726   2.598   6.553 -0.0461 -0.3001 -0.1700
 6772TIP3    H141731   6.776   2.658   6.608  0.7769 -0.1929 -1.0178
 6772TIP3    H241732   6.640   2.593   6.595  0.0767  0.9803  0.2535
 6773TIP3   OH241733   2.907   6.548   1.928 -0.2913 -0.7057 -0.7782
 6773TIP3    H141734   2.955   6.621   1.889 -1.3162 -0.2353 -1.1764
 6773TIP3    H241735   2.973   6.502   1.981  0.2806  0.7059 -0.2258
 6774TIP3   OH241736   5.374   3.110  13.962 -0.3873 -0.2878  0.1068
 6774TIP3    H141737   5.409   3.199  13.958  0.3416 -0.6035 -1.0043
 6774TIP3    H241738   5.451   3.053  13.953 -1.0636 -1.0100 -1.4428
 6775TIP3   OH241739   1.459   5.678  14.360 -0.0076  0.1347 -0.1418
 6775TIP3    H141740   1.520   5.702  14.430  0.3488 -0.0379 -0.3884
 6775TIP3    H241741   1.384   5.640  14.405  0.6149 -0.8321  0.1035
 6776TIP3   OH241742   6.767   2.167   5.206 -0.2730 -0.1860 -0.5223
 6776TIP3    H141743   6.693   2.227   5.218 -0.4752 -0.3497 -0.9285
 6776TIP3    H241744   6.739   2.087   5.251 -0.0925 -0.0470 -0.1635
 6777TIP3   OH241745   3.599   4.769   0.387  0.3657 -0.4219  0.4272
 6777TIP3    H141746   3.660   4.721   0.443  0.5262 -1.2337 -0.4177
 6777TIP3    H241747   3.606   4.860   0.415  2.1047 -0.4718  0.2269
 6778TIP3   OH241748   1.817   0.561  15.976  0.2754  0.0321 -0.4792
 6778TIP3    H141749   1.848   0.647  16.001  0.1580  0.0162 -0.2788
 6778TIP3    H241750   1.895   0.513  15.949  0.4894 -0.1596  0.4570
 6779TIP3   OH241751   6.476   3.035   2.297 -0.3464  1.0705  0.0551
 6779TIP3    H141752   6.549   2.982   2.264 -0.2742  1.2909 -0.1413
 6779TIP3    H241753   6.401   3.008   2.245 -0.5888  0.2529  0.8112
 6780TIP3   OH241754   5.288   2.334   5.413 -0.6298  0.4109 -0.0674
 6780TIP3    H141755   5.229   2.359   5.341 -0.1397  1.2467 -0.1985
 6780TIP3    H241756   5.329   2.253   5.384 -0.3115  0.8276 -0.8164
 6781TIP3   OH241757   2.509   6.006  16.272 -0.2588 -0.0386  0.1106
 6781TIP3    H141758   2.490   6.100  16.266 -0.2247  0.0277  0.9310
 6781TIP3    H241759   2.489   5.972  16.184 -0.3607  0.7157 -0.1690
 6782TIP3   OH241760   2.393   1.277  16.555  0.6871 -0.3822  0.1812
 6782TIP3    H141761   2.377   1.221  16.479  0.5161  1.2979 -1.0843
 6782TIP3    H241762   2.379   1.220  16.631 -0.4425 -1.7720 -1.0240
 6783TIP3   OH241763   5.206   4.272  15.057  0.0237  0.0075  0.2297
 6783TIP3    H141764   5.216   4.196  14.999 -0.7525 -0.6509  0.9494
 6783TIP3    H241765   5.216   4.347  14.998 -1.2470 -0.6416 -0.8670
 6784TIP3   OH241766   1.380   2.621   1.337  0.4564  0.1286 -0.1831
 6784TIP3    H141767   1.426   2.541   1.314  2.0611  0.1213  2.6020
 6784TIP3    H241768   1.411   2.686   1.274  1.1287 -0.8443 -0.8736
 6785TIP3   OH241769   2.057   0.817  13.908 -0.3206 -0.4155  0.1475
 6785TIP3    H141770   2.013   0.736  13.883  1.4390 -1.6675  0.8663
 6785TIP3    H241771   1.989   0.869  13.951 -1.1412 -2.2123  1.1355
 6786TIP3   OH241772   2.291   0.386   3.479 -0.3366 -0.4664 -0.0737
 6786TIP3    H141773   2.237   0.416   3.551  1.6072 -0.0451  1.2711
 6786TIP3    H241774   2.378   0.421   3.497  0.7212 -2.2099 -1.4349
 6787TIP3   OH241775   4.729   2.532   6.406  0.0441  0.0245  0.1760
 6787TIP3    H141776   4.705   2.515   6.497 -2.1401 -0.3389 -0.4055
 6787TIP3    H241777   4.685   2.614   6.385  0.5770  0.1288 -0.5445
 6788TIP3   OH241778   4.497   1.184   4.770  0.3040  0.1235  0.0690
 6788TIP3    H141779   4.482   1.249   4.838 -1.3798  1.7178 -1.6981
 6788TIP3    H241780   4.492   1.100   4.815 -4.0348  0.9298  1.5137
 6789TIP3   OH241781   2.909   1.457   2.282  0.0858 -0.0805  0.0424
 6789TIP3    H141782   2.992   1.415   2.305  0.7170  1.3186  0.4918
 6789TIP3    H241783   2.878   1.495   2.365 -1.1511 -0.8171 -0.0696
 6790TIP3   OH241784   0.522   1.996  12.967  0.2231 -0.6287 -0.0545
 6790TIP3    H141785   0.435   1.971  12.999 -0.0581  1.5282  1.0186
 6790TIP3    H241786   0.577   1.998  13.046  0.8420 -0.4060 -0.4848
 6791TIP3   OH241787   4.992   6.382   0.157 -0.7619  0.0145  0.0176
 6791TIP3    H141788   5.034   6.296   0.152  0.1280  0.3908  0.6745
 6791TIP3    H241789   5.006   6.421   0.071 -1.2452 -0.5194 -0.3116
 6792TIP3   OH241790   2.223   4.348  10.512  0.1553  0.6164 -0.3650
 6792TIP3    H141791   2.318   4.355  10.503  0.0935  1.7820 -0.1840
 6792TIP3    H241792   2.200   4.415  10.576 -0.7614  0.1580 -0.2042
 6793TIP3   OH241793   6.595   0.507   0.484  0.4019 -1.0277 -0.3065
 6793TIP3    H141794   6.566   0.575   0.423  1.0921  0.1649  0.6402
 6793TIP3    H241795   6.648   0.448   0.431  2.0407  0.6666 -0.6688
 6794TIP3   OH241796   0.675   6.637  11.676  0.3907  0.0722  0.6260
 6794TIP3    H141797   0.678   6.667  11.585  1.5759 -0.0659  0.6005
 6794TIP3    H241798   0.646   6.546  11.670  1.2224 -0.1806  0.3080
 6795TIP3   OH241799   5.807   6.025   4.653 -0.0953 -0.1907 -0.4350
 6795TIP3    H141800   5.731   6.026   4.711 -0.7225  0.0832 -1.2543
 6795TIP3    H241801   5.833   6.116   4.644  1.4451 -0.3891  1.2355
 6796TIP3   OH241802   6.500   1.331   4.452 -0.0363 -0.6842 -0.4912
 6796TIP3    H141803   6.590   1.299   4.460  0.0005 -0.8413 -1.4618
 6796TIP3    H241804   6.506   1.425   4.470  0.4782 -0.5194 -1.4863
 6797TIP3   OH241805   5.198   5.480  17.115  0.2328  0.5472  0.8832
 6797TIP3    H141806   5.178   5.495  17.023 -1.2913  2.4331  1.4526
 6797TIP3    H241807   5.265   5.544  17.136 -0.1303  0.7911  1.3170
 6798TIP3   OH241808   3.115   2.920   1.145 -0.0543 -0.9760 -0.1541
 6798TIP3    H141809   3.144   2.906   1.056 -2.6565 -1.1084 -1.0874
 6798TIP3    H241810   3.095   3.014   1.150 -0.6286 -1.1013  0.0369
 6799TIP3   OH241811   5.238   2.534  16.913 -0.1535 -0.3719  0.1181
 6799TIP3    H141812   5.279   2.611  16.872 -1.2594 -0.4506 -1.2386
 6799TIP3    H241813   5.176   2.571  16.976 -0.5642 -0.1316 -0.4122
 6800TIP3   OH241814   1.835   4.815  12.914 -0.0197 -0.2847  0.4123
 6800TIP3    H141815   1.804   4.904  12.927  1.4157  0.4136 -0.7358
 6800TIP3    H241816   1.913   4.824  12.859  0.3088 -2.2228  0.4927
 6801TIP3   OH241817   6.299   1.535   2.038  0.4830 -0.2068 -0.9043
 6801TIP3    H141818   6.304   1.610   2.096 -1.1739  0.2922 -1.3420
 6801TIP3    H241819   6.248   1.470   2.087  1.4940 -0.8845 -0.7160
 6802TIP3   OH241820   2.946   5.632   2.360 -0.6299 -0.4031 -0.0779
 6802TIP3    H141821   2.852   5.619   2.374 -0.5807 -1.7398 -0.8613
 6802TIP3    H241822   2.955   5.727   2.351 -1.4225  0.1111  3.1432
 6803TIP3   OH241823   3.517   4.447   3.372  0.0427 -0.3690 -0.1857
 6803TIP3    H141824   3.529   4.498   3.451 -0.1092 -0.0595 -0.3604
 6803TIP3    H241825   3.538   4.357   3.397 -1.8776 -0.6045  0.7065
 6804TIP3   OH241826   4.076   6.103  12.281  0.2552  0.0033  0.3338
 6804TIP3    H141827   4.064   6.198  12.292  0.7599 -0.0690  1.7067
 6804TIP3    H241828   4.145   6.095  12.216 -2.0773  0.4978 -2.3900
 6805TIP3   OH241829   2.669   3.466  11.324 -0.2894 -0.7809  0.3619
 6805TIP3    H141830   2.734   3.536  11.310 -0.8094 -0.0298  1.5577
 6805TIP3    H241831   2.634   3.449  11.236 -0.9320  1.2519  0.1732
 6806TIP3   OH241832   0.792   2.837  15.540 -0.5709 -0.2140 -0.6650
 6806TIP3    H141833   0.816   2.925  15.569 -1.2744 -0.4761  0.8205
 6806TIP3    H241834   0.856   2.816  15.472  0.0442  1.1624 -0.5499
 6807TIP3   OH241835   3.806   6.521  14.676  0.5073 -0.1197 -0.1043
 6807TIP3    H141836   3.850   6.604  14.693  0.3422 -0.0750  0.1067
 6807TIP3    H241837   3.840   6.492  14.591 -0.6004  0.9232 -0.9357
 6808TIP3   OH241838   2.771   1.438  15.131 -0.3260 -0.0286 -0.0495
 6808TIP3    H141839   2.838   1.504  15.143 -1.0814  0.6984  0.2381
 6808TIP3    H241840   2.807   1.379  15.064 -0.3262  1.6021 -1.5534
 6809TIP3   OH241841   1.831   4.071  11.252  0.0692  0.2941 -0.3170
 6809TIP3    H141842   1.852   4.161  11.276 -0.6239  0.4308 -0.2124
 6809TIP3    H241843   1.787   4.035  11.329 -0.7722  0.2505 -0.8104
 6810TIP3   OH241844   2.795   4.128  16.564 -0.5504 -0.1118 -0.0644
 6810TIP3    H141845   2.826   4.065  16.629 -1.1731 -1.8753 -1.4106
 6810TIP3    H241846   2.759   4.074  16.493  0.1615  1.7193 -1.9143
 6811TIP3   OH241847   2.532   0.088  16.125 -0.0673 -0.5079  0.1221
 6811TIP3    H141848   2.621   0.110  16.099  0.1597  1.1051  2.0232
 6811TIP3    H241849   2.477   0.126  16.056  0.6515 -3.9371 -2.6406
 6812TIP3   OH241850   5.338   4.504   4.814 -0.1432 -0.3500 -0.0123
 6812TIP3    H141851   5.357   4.411   4.805  1.7276 -0.0557  0.5033
 6812TIP3    H241852   5.372   4.527   4.900  0.5538  1.0649 -0.6365
 6813TIP3   OH241853   5.474   1.456   0.440  0.3139  0.2144 -0.3791
 6813TIP3    H141854   5.485   1.499   0.355  0.1572  0.6513 -0.1839
 6813TIP3    H241855   5.413   1.384   0.423  0.6363  0.0169 -0.7251
 6814TIP3   OH241856   5.962   5.430  16.623 -0.0647  0.8033  0.5290
 6814TIP3    H141857   5.908   5.496  16.579 -0.1854  0.4510  0.1398
 6814TIP3    H241858   6.016   5.480  16.683  0.3192  1.3336 -0.2391
 6815TIP3   OH241859   5.631   6.484   3.435 -0.5943 -0.1469 -0.1729
 6815TIP3    H141860   5.609   6.402   3.391 -0.4005  0.7892 -2.1157
 6815TIP3    H241861   5.547   6.519   3.465 -0.7094 -0.8742  0.3806
 6816TIP3   OH241862   0.250   6.025   5.734 -0.7029  0.4821 -0.0834
 6816TIP3    H141863   0.260   6.118   5.754  1.1880  0.2427  0.2590
 6816TIP3    H241864   0.187   6.023   5.661  0.2908  2.1408 -1.0528
 6817TIP3   OH241865   1.140   1.707   4.331  0.1311 -0.0306 -0.4082
 6817TIP3    H141866   1.163   1.634   4.273 -0.5059  0.0185 -0.7239
 6817TIP3    H241867   1.053   1.685   4.365 -0.1807  0.7052 -0.7160
 6818TIP3   OH241868   6.345   6.512   3.276 -0.1651 -0.1907  0.3156
 6818TIP3    H141869   6.332   6.516   3.182  1.1358  1.4179  0.1580
 6818TIP3    H241870   6.297   6.588   3.311  2.2897  1.3849  0.4940
 6819TIP3   OH241871   6.532   4.574  16.102  0.5266 -0.0843 -0.0845
 6819TIP3    H141872   6.457   4.547  16.048 -0.6156 -1.3169  1.9884
 6819TIP3    H241873   6.608   4.536  16.058 -0.2722 -0.4462 -1.2000
 6820TIP3   OH241874   2.860   1.230  14.314 -0.0450 -0.4894 -0.1734
 6820TIP3    H141875   2.807   1.239  14.235 -0.1348 -0.2212 -0.0851
 6820TIP3    H241876   2.875   1.136  14.322 -0.2750 -0.5438 -0.3535
 6821TIP3   OH241877   2.230   0.638  11.270  0.4303 -0.1596  0.1231
 6821TIP3    H141878   2.298   0.638  11.203  1.5124  2.5206  1.0913
 6821TIP3    H241879   2.199   0.728  11.273 -0.3514 -0.4392  2.4424
 6822TIP3   OH241880   4.071   3.954   3.579  0.3194  0.3125 -0.0055
 6822TIP3    H141881   4.020   4.034   3.582 -1.2502 -0.6458  0.0203
 6822TIP3    H241882   4.124   3.961   3.500 -0.0234  1.2385 -0.1546
 6823TIP3   OH241883   1.838   2.083  10.649 -0.5130 -0.0706 -0.7145
 6823TIP3    H141884   1.761   2.098  10.594 -0.9745 -0.8785 -0.3038
 6823TIP3    H241885   1.860   2.170  10.683 -2.6215 -0.1267  0.9831
 6824TIP3   OH241886   0.218   6.215   3.812  0.3307 -0.3770 -0.2862
 6824TIP3    H141887   0.215   6.289   3.751 -1.0718 -0.7718 -0.7344
 6824TIP3    H241888   0.157   6.238   3.881  0.3814 -0.8294 -0.0870
 6825TIP3   OH241889   5.243   5.380   0.407  0.1248  0.8725 -0.0323
 6825TIP3    H141890   5.301   5.305   0.392 -0.1287  0.3664  1.4159
 6825TIP3    H241891   5.241   5.391   0.502 -0.1500  2.4906 -0.1927
 6826TIP3   OH241892   2.351   4.250  15.059 -0.3570 -0.3662  0.2158
 6826TIP3    H141893   2.290   4.322  15.074 -0.0911 -0.2615  0.8100
 6826TIP3    H241894   2.428   4.291  15.019 -0.2388 -0.3258  0.4784
 6827TIP3   OH241895   3.400   0.323   1.422 -0.5931 -0.3507 -0.5657
 6827TIP3    H141896   3.355   0.238   1.412 -1.2015  0.0278 -1.1369
 6827TIP3    H241897   3.462   0.309   1.494 -1.6481 -0.8858  0.2756
 6828TIP3   OH241898   2.969   1.700   5.069  0.0317 -0.1631  0.1016
 6828TIP3    H141899   2.897   1.761   5.054  0.1225 -0.2596 -0.7610
 6828TIP3    H241900   3.012   1.691   4.984  0.9528 -0.2552  0.5586
 6829TIP3   OH241901   2.101   0.821  12.719 -0.3529  0.0197 -0.1542
 6829TIP3    H141902   2.103   0.917  12.721 -0.4844  0.0190  1.0125
 6829TIP3    H241903   2.100   0.796  12.812  1.7620 -1.1513 -0.3852
 6830TIP3   OH241904   2.808   4.410  15.701 -0.4130 -0.5807  0.5832
 6830TIP3    H141905   2.742   4.451  15.644 -1.4617 -0.6538  1.6966
 6830TIP3    H241906   2.886   4.403  15.646  0.0563  3.4391  0.4743
 6831TIP3   OH241907   2.056   0.065  11.918 -0.0051 -0.3725 -0.7838
 6831TIP3    H141908   2.090  -0.024  11.921 -1.3627 -0.9050 -0.5374
 6831TIP3    H241909   2.045   0.089  12.010 -0.8622 -0.4432 -0.8640
 6832TIP3   OH241910   2.630   0.198  13.451  0.1032  0.2816  0.6709
 6832TIP3    H141911   2.537   0.195  13.432  0.7706 -1.0229 -3.4302
 6832TIP3    H241912   2.654   0.108  13.473  1.0030 -0.6043 -3.2046
 6833TIP3   OH241913   4.449   5.351   3.230  0.7840  0.7459  0.4286
 6833TIP3    H141914   4.450   5.279   3.167  2.1644 -0.1397  1.4132
 6833TIP3    H241915   4.391   5.322   3.300 -2.7953  2.7510 -1.4398
 6834TIP3   OH241916   1.886   5.984   4.372  0.1220  0.1915 -0.1767
 6834TIP3    H141917   1.916   5.949   4.288  0.3525  2.2363 -1.0207
 6834TIP3    H241918   1.791   5.972   4.371 -0.0298  1.2676 -1.3022
 6835TIP3   OH241919   1.665   6.463   3.824 -0.2531 -0.1426  0.2379
 6835TIP3    H141920   1.744   6.490   3.869  0.4936  1.1828 -1.7349
 6835TIP3    H241921   1.694   6.394   3.764 -0.4813  0.6310 -0.7846
 6836TIP3   OH241922   0.164   1.988  10.415 -0.4517 -0.0954  0.1702
 6836TIP3    H141923   0.074   1.954  10.409 -0.2108 -0.5713 -1.0460
 6836TIP3    H241924   0.189   1.974  10.506 -0.7947 -2.0981 -0.0016
 6837TIP3   OH241925   6.801   0.776   4.864 -0.1784  0.2452 -0.8041
 6837TIP3    H141926   6.719   0.746   4.902 -0.5739 -0.0432 -1.8418
 6837TIP3    H241927   6.868   0.746   4.924 -0.7759 -0.2705 -0.3816
 6838TIP3   OH241928   6.350   4.023  10.335 -0.7408 -0.0707 -0.2250
 6838TIP3    H141929   6.372   3.931  10.318 -0.6741 -0.0325 -0.3398
 6838TIP3    H241930   6.254   4.023  10.338 -0.7553 -0.6882  2.6825
 6839TIP3   OH241931   6.589   1.482   0.687 -0.9770  0.1677 -0.0956
 6839TIP3    H141932   6.569   1.457   0.778 -1.4945 -0.3926 -0.3577
 6839TIP3    H241933   6.674   1.441   0.669  0.5659  2.5954  1.0394
 6840TIP3   OH241934   4.231   3.281  12.416 -0.3933  0.4527 -0.7747
 6840TIP3    H141935   4.232   3.345  12.486  0.5708  0.1134 -0.4652
 6840TIP3    H241936   4.276   3.324  12.343  0.4519  0.0633 -0.4941
 6841TIP3   OH241937   2.392   0.048  12.665  0.5128 -0.0945  0.2874
 6841TIP3    H141938   2.429   0.005  12.587 -0.7719 -0.4565 -0.1529
 6841TIP3    H241939   2.468   0.083  12.711  1.3736 -0.5583 -0.7223
 6842TIP3   OH241940   0.513   2.777   3.212 -0.5171  0.2023  0.0392
 6842TIP3    H141941   0.514   2.756   3.305  1.9189  0.7604  0.2022
 6842TIP3    H241942   0.462   2.858   3.207 -1.2055 -0.1653  0.7747
 6843TIP3   OH241943   2.935   6.674  13.776  0.2463 -0.0710  0.4848
 6843TIP3    H141944   3.008   6.639  13.827  0.3821 -0.6478 -0.0899
 6843TIP3    H241945   2.970   6.754  13.737  0.7513 -0.6199 -0.2106
 6844TIP3   OH241946   1.000   4.226   1.119  0.0817  0.2384 -0.4142
 6844TIP3    H141947   1.015   4.147   1.171 -0.4325  0.9286  0.8331
 6844TIP3    H241948   0.910   4.251   1.138  0.0956  0.8844 -1.1313
 6845TIP3   OH241949   2.618   0.302  14.185 -0.3884  0.0969  0.2616
 6845TIP3    H141950   2.628   0.335  14.095 -1.6251  2.0968  0.8097
 6845TIP3    H241951   2.691   0.342  14.233 -0.2659 -0.2382  0.3589
 6846TIP3   OH241952   0.979   2.820  16.627 -0.3104  0.7259  0.2108
 6846TIP3    H141953   1.070   2.850  16.633 -1.1081  3.4271  0.2627
 6846TIP3    H241954   0.948   2.820  16.718 -1.1741  2.8624 -0.0217
 6847TIP3   OH241955   5.284   0.348  16.643 -0.4636 -0.0164 -0.2016
 6847TIP3    H141956   5.350   0.399  16.595 -1.2615  0.7586 -0.5028
 6847TIP3    H241957   5.297   0.373  16.735 -0.5955  0.4502 -0.3030
 6848TIP3   OH241958   1.504   4.365   5.609  0.1215 -0.0282 -0.1098
 6848TIP3    H141959   1.551   4.446   5.587  0.6606 -0.3121 -0.0242
 6848TIP3    H241960   1.541   4.299   5.550  1.1118 -0.6469  1.1506
 6849TIP3   OH241961   4.017   2.335  15.997 -0.4705 -0.3223  0.2243
 6849TIP3    H141962   3.974   2.306  16.077  3.9963 -2.1559  2.3456
 6849TIP3    H241963   4.058   2.418  16.020  0.8127 -0.8417 -0.0617
 6850TIP3   OH241964   1.014   3.026  16.407 -0.0175 -0.1653 -0.2153
 6850TIP3    H141965   0.941   2.979  16.367  0.3493 -1.8549  0.9922
 6850TIP3    H241966   0.977   3.111  16.432 -1.3199 -0.6335 -0.4653
 6851TIP3   OH241967   4.792   3.961   5.180  0.1108  0.8295 -0.1549
 6851TIP3    H141968   4.844   4.040   5.186  0.2746  0.7231 -0.1795
 6851TIP3    H241969   4.728   3.979   5.111  0.3184  0.8414 -0.3439
 6852TIP3   OH241970   1.289   5.390  16.848  0.1674 -0.4810 -0.6093
 6852TIP3    H141971   1.332   5.474  16.862  0.2381 -0.7767  1.1916
 6852TIP3    H241972   1.333   5.353  16.772  0.2159  1.0430 -1.3454
 6853TIP3   OH241973   3.436   5.688   1.982  0.6754 -0.3677  0.0339
 6853TIP3    H141974   3.413   5.740   2.059 -1.1874 -1.3057  0.1761
 6853TIP3    H241975   3.458   5.753   1.916  0.5443  0.5260  0.8350
 6854TIP3   OH241976   0.531   6.048  13.450 -0.1697  0.5039 -0.3853
 6854TIP3    H141977   0.510   6.130  13.406  1.2330  1.4748  0.6450
 6854TIP3    H241978   0.447   6.016  13.484 -0.8406  1.1181 -1.4118
 6855TIP3   OH241979   3.479   4.023   3.812 -0.2523 -0.5558 -0.2136
 6855TIP3    H141980   3.570   4.038   3.839 -0.2343  1.3304 -1.1405
 6855TIP3    H241981   3.486   3.986   3.724 -0.3559  1.1562 -0.9752
 6856TIP3   OH241982   0.646   3.397  15.622  0.4788 -0.0641  0.0450
 6856TIP3    H141983   0.684   3.334  15.561  1.9094  1.6140 -0.8825
 6856TIP3    H241984   0.578   3.442  15.571  1.0409  0.7002 -0.0462
 6857TIP3   OH241985   1.876   5.515  15.701 -0.4976 -0.3768  0.4177
 6857TIP3    H141986   1.929   5.543  15.627  1.5919 -1.1425  1.5339
 6857TIP3    H241987   1.844   5.596  15.741  0.2789  0.1320  0.0149
 6858TIP3   OH241988   0.793   0.575   0.981  0.1489  0.0630  0.2108
 6858TIP3    H141989   0.875   0.620   0.959  0.7500 -0.3152  1.5722
 6858TIP3    H241990   0.781   0.591   1.075  0.2511 -2.3520  0.6901
 6859TIP3   OH241991   4.884   1.801   5.244 -0.8001 -0.4766  0.6206
 6859TIP3    H141992   4.813   1.748   5.207 -0.1392 -1.5395  0.8206
 6859TIP3    H241993   4.881   1.783   5.338  0.6698 -1.7614  0.4656
 6860TIP3   OH241994   0.997   0.190   2.317  0.0908 -0.1240  0.5933
 6860TIP3    H141995   0.994   0.146   2.402  0.4708 -0.9107  0.2053
 6860TIP3    H241996   0.951   0.131   2.258 -0.2837  0.4798  0.2648
 6861TIP3   OH241997   5.567   4.962   1.840 -0.4504  0.3408 -0.2913
 6861TIP3    H141998   5.589   4.922   1.756 -0.5828  1.1460 -0.7203
 6861TIP3    H241999   5.472   4.949   1.847 -0.2521 -0.9164  0.3823
 6862TIP3   OH242000   0.447   6.341  11.186  0.0373 -0.0543  0.3307
 6862TIP3    H142001   0.431   6.399  11.112 -3.2047 -0.6379  0.4187
 6862TIP3    H242002   0.421   6.393  11.263  1.3228 -0.1781  0.8726
 6863TIP3   OH242003   5.529   2.196  11.458  0.1006  0.1965  0.3113
 6863TIP3    H142004   5.447   2.244  11.473  0.8687  1.5835  0.2683
 6863TIP3    H242005   5.583   2.216  11.535  0.8555  0.3419 -0.2385
 6864TIP3   OH242006   0.649   0.485  16.395 -0.9194 -0.6574  0.2402
 6864TIP3    H142007   0.563   0.525  16.380 -0.6271  0.6044  1.7178
 6864TIP3    H242008   0.660   0.486  16.490  1.0963  0.0313  0.0461
 6865TIP3   OH242009   2.490   0.163   4.197 -1.3337 -0.1282 -0.5716
 6865TIP3    H142010   2.441   0.164   4.280 -0.2471 -0.4686  0.0888
 6865TIP3    H242011   2.458   0.085   4.152 -1.3303 -0.4118 -0.0970
 6866TIP3   OH242012   4.046   5.878   4.115  0.1912 -0.3852  0.1001
 6866TIP3    H142013   4.135   5.856   4.144  0.3475 -2.0927 -1.4720
 6866TIP3    H242014   4.039   5.973   4.129  2.2324 -0.2145  0.2979
 6867TIP3   OH242015   4.019   3.918   0.100 -0.4724 -0.1177 -0.0384
 6867TIP3    H142016   4.033   4.013   0.097  2.8757 -0.4820  0.7959
 6867TIP3    H242017   3.983   3.902   0.187 -1.5264  0.3680 -0.3555
 6868TIP3   OH242018   0.354   1.603  16.039  0.0884  0.3968  0.2905
 6868TIP3    H142019   0.391   1.580  16.124 -0.0006 -1.0457 -0.0288
 6868TIP3    H242020   0.407   1.676  16.008  0.4027  0.6479  1.3790
 6869TIP3   OH242021   5.070   2.732  14.574  0.1758 -0.3908  0.5581
 6869TIP3    H142022   5.059   2.800  14.640  1.8806  1.3596 -0.7999
 6869TIP3    H242023   4.983   2.720  14.537 -0.1133  1.4523  0.5173
 6870TIP3   OH242024   3.004   4.975   6.128  0.4419  0.2545  0.4222
 6870TIP3    H142025   3.015   4.886   6.094 -3.1336 -0.4127  0.6362
 6870TIP3    H242026   2.982   4.962   6.221  1.9742  1.5595  1.0133
 6871TIP3   OH242027   5.736   4.826  16.384 -0.2441  0.0558 -0.2682
 6871TIP3    H142028   5.792   4.787  16.452 -2.0377  0.8267  1.7633
 6871TIP3    H242029   5.666   4.762  16.371 -0.1717  0.1321 -1.0668
 6872TIP3   OH242030   2.768   4.538   3.573  0.4572 -0.1663 -0.4732
 6872TIP3    H142031   2.829   4.540   3.647 -0.1128 -0.9691  0.0313
 6872TIP3    H242032   2.822   4.559   3.497  1.1273  0.2908  0.1136
 6873TIP3   OH242033   5.715   3.630   5.776 -0.0924  0.4175 -0.1457
 6873TIP3    H142034   5.664   3.706   5.805  0.1048  0.4957 -0.0031
 6873TIP3    H242035   5.689   3.617   5.685  0.4201  1.1120 -0.3950
 6874TIP3   OH242036   5.761   5.307   3.603 -0.2481  0.0186  0.2878
 6874TIP3    H142037   5.744   5.340   3.514  1.0774 -0.3740 -0.1459
 6874TIP3    H242038   5.736   5.215   3.599 -3.8924  0.7887  1.4826
 6875TIP3   OH242039   6.688   2.287  14.095  0.1923  0.3839  0.0711
 6875TIP3    H142040   6.619   2.276  14.030  1.4848 -1.1393 -1.1211
 6875TIP3    H242041   6.708   2.199  14.125  0.3775  0.9694  1.7699
 6876TIP3   OH242042   2.545   2.701   3.968  0.0652 -0.0236  0.1071
 6876TIP3    H142043   2.626   2.690   4.017  1.0763  1.3682 -1.1696
 6876TIP3    H242044   2.557   2.646   3.890 -0.0221  0.5308 -0.3012
 6877TIP3   OH242045   4.210   2.482  16.933  0.4162  0.4309  0.5725
 6877TIP3    H142046   4.129   2.508  16.977 -0.7165  0.4942 -1.4398
 6877TIP3    H242047   4.230   2.555  16.875  2.3510  0.7221  1.5215
 6878TIP3   OH242048   2.447   6.183  15.439  0.2481  0.3454 -0.0026
 6878TIP3    H142049   2.396   6.251  15.483 -0.4315  0.3084 -0.7134
 6878TIP3    H242050   2.403   6.170  15.355  0.9005 -0.3357 -0.2546
 6879TIP3   OH242051   2.419   2.689   5.763  0.2507  0.2906 -0.2337
 6879TIP3    H142052   2.508   2.688   5.797  1.0170 -0.1904 -2.1076
 6879TIP3    H242053   2.365   2.664   5.838  1.7145  0.1758  0.8422
 6880TIP3   OH242054   2.287   1.794  13.960 -0.4281  0.4486 -0.1749
 6880TIP3    H142055   2.299   1.841  14.043 -0.1937  0.7419 -0.3728
 6880TIP3    H242056   2.369   1.746  13.948  0.1161  1.5376 -0.9505
 6881TIP3   OH242057   5.262   0.509   0.833  0.4141 -0.2191  0.3600
 6881TIP3    H142058   5.343   0.484   0.788 -0.2135  0.4054 -1.2163
 6881TIP3    H242059   5.202   0.436   0.816 -0.3785  0.7532 -1.4348
 6882TIP3   OH242060   6.180   5.284   5.716  0.2384  0.2946 -0.0382
 6882TIP3    H142061   6.241   5.303   5.645  0.7062 -1.0175 -0.0204
 6882TIP3    H242062   6.104   5.246   5.673  0.7306 -0.9829  0.1789
 6883TIP3   OH242063   0.489   4.118  12.052 -0.2687  0.3429 -0.0133
 6883TIP3    H142064   0.503   4.085  11.963  0.7906  1.4475 -0.2823
 6883TIP3    H242065   0.519   4.047  12.109  1.0566  0.4196 -0.5737
 6884TIP3   OH242066   2.875   0.974   5.621  0.0670  0.0292  0.6768
 6884TIP3    H142067   2.847   0.945   5.534  1.1115  1.2057 -0.0873
 6884TIP3    H242068   2.832   1.058   5.634 -0.5290 -0.3878  1.5701
 6885TIP3   OH242069   3.583   5.659  12.284 -0.1906 -0.0918  0.1130
 6885TIP3    H142070   3.624   5.614  12.357  0.3821  1.1333  0.5681
 6885TIP3    H242071   3.522   5.721  12.324  0.3018  0.7645 -0.4109
 6886TIP3   OH242072   6.553   0.130  12.590 -0.0304 -0.6254  0.4313
 6886TIP3    H142073   6.609   0.128  12.668 -0.9248  0.2854  1.1312
 6886TIP3    H242074   6.464   0.118  12.625 -0.4985  0.3917 -0.3670
 6887TIP3   OH242075   2.080   1.297   3.643 -0.2538  0.5591  0.5835
 6887TIP3    H142076   2.121   1.377   3.610 -0.0022  0.4760  0.6950
 6887TIP3    H242077   2.111   1.289   3.733  1.5600 -0.8640 -0.0980
 6888TIP3   OH242078   3.465   6.786  11.667  0.0203 -0.4872  0.4956
 6888TIP3    H142079   3.391   6.734  11.698 -0.2459 -0.9897 -0.9230
 6888TIP3    H242080   3.466   6.773  11.572 -0.0740  2.1207  0.0642
 6889TIP3   OH242081   6.792   0.010   1.147  0.3271 -0.2080  0.0187
 6889TIP3    H142082   6.749   0.093   1.169  1.6401  0.7893 -1.0002
 6889TIP3    H242083   6.782   0.002   1.052  1.6050 -0.3883 -0.1182
 6890TIP3   OH242084   4.950   3.924   4.319 -0.1913  0.1238 -1.1481
 6890TIP3    H142085   5.043   3.924   4.343  0.3654  2.0842 -2.9429
 6890TIP3    H242086   4.936   3.838   4.281 -0.0160 -1.4117  1.9961
 6891TIP3   OH242087   0.204   5.459   6.299  0.2150  0.1896 -0.2152
 6891TIP3    H142088   0.164   5.504   6.373  0.6776 -0.4135  0.4137
 6891TIP3    H242089   0.292   5.437   6.328 -0.3534 -2.1156 -0.0345
 6892TIP3   OH242090   3.189   5.546  16.747 -0.1943 -0.5745  0.7788
 6892TIP3    H142091   3.158   5.613  16.809 -1.8928 -0.7602  0.2000
 6892TIP3    H242092   3.129   5.473  16.760 -2.5738  0.4056 -2.9843
 6893TIP3   OH242093   2.337   2.613   0.734 -0.2699 -0.7530 -0.0476
 6893TIP3    H142094   2.394   2.683   0.703 -0.1156 -0.7546  0.2324
 6893TIP3    H242095   2.368   2.534   0.689  1.7543 -1.3220  2.1256
 6894TIP3   OH242096   1.715   1.082  16.094  0.3197 -0.6979 -0.8853
 6894TIP3    H142097   1.650   1.124  16.151 -0.8961 -0.5509 -2.2890
 6894TIP3    H242098   1.703   1.126  16.009  1.1036 -1.8374 -1.6093
 6895TIP3   OH242099   4.304   2.731  13.908  0.1224  0.0198  0.5111
 6895TIP3    H142100   4.300   2.768  13.820 -1.9069  0.0003  0.5694
 6895TIP3    H242101   4.356   2.651  13.897  0.4032  0.3259 -0.5284
 6896TIP3   OH242102   3.002   4.499  17.062  0.1390 -0.1332  0.1108
 6896TIP3    H142103   3.077   4.491  17.119  0.9853 -1.1770 -1.0949
 6896TIP3    H242104   2.953   4.417  17.074  0.6105 -0.6043 -1.0019
 6897TIP3   OH242105   4.498   0.682   3.642  0.4663 -0.4059  0.2293
 6897TIP3    H142106   4.440   0.757   3.652  1.3181  0.2653  0.2610
 6897TIP3    H242107   4.440   0.610   3.617 -0.2734  0.4286 -0.5215
 6898TIP3   OH242108   4.099   6.548   3.897  0.2668 -0.0876 -0.0976
 6898TIP3    H142109   4.122   6.635   3.930  0.3833 -0.4510  0.8169
 6898TIP3    H242110   4.150   6.538   3.817 -0.3097  0.9703 -0.6076
 6899TIP3   OH242111   6.141   6.432  16.711  0.5186  0.4739 -0.3258
 6899TIP3    H142112   6.206   6.495  16.679  0.7586  0.9339  0.9939
 6899TIP3    H242113   6.104   6.393  16.631  1.6998  0.9182 -1.1240
 6900TIP3   OH242114   4.249   0.013  16.410 -0.4387 -0.1997  0.4784
 6900TIP3    H142115   4.336  -0.025  16.418  0.0919  0.7553 -0.5546
 6900TIP3    H242116   4.251   0.091  16.465 -0.4971  0.0715  0.0972
 6901TIP3   OH242117   1.450   5.474   1.762  0.4150 -0.3821 -0.2895
 6901TIP3    H142118   1.492   5.556   1.737  0.7408 -0.5725 -0.3713
 6901TIP3    H242119   1.520   5.422   1.802  0.1401 -0.4991  0.0508
 6902TIP3   OH242120   4.336   3.485   0.523 -0.3339  0.4673  0.2257
 6902TIP3    H142121   4.408   3.445   0.571  1.2856  2.2570 -0.5931
 6902TIP3    H242122   4.350   3.459   0.432  0.2569  2.1243 -0.1853
 6903TIP3   OH242123   6.437   4.799  12.504 -0.4172 -0.2930 -0.0974
 6903TIP3    H142124   6.510   4.758  12.457 -0.3866  0.1670 -0.4497
 6903TIP3    H242125   6.415   4.876  12.452 -0.6297  0.0112  0.4370
 6904TIP3   OH242126   3.924   4.884  13.689 -0.4306 -0.1083 -0.1975
 6904TIP3    H142127   3.915   4.824  13.615 -2.5725  0.0455 -0.1132
 6904TIP3    H242128   3.885   4.837  13.762  0.2712  0.3677  0.4939
 6905TIP3   OH242129   1.952   1.245  16.882 -0.4417  0.0978 -0.3718
 6905TIP3    H142130   1.903   1.182  16.934  0.1866  0.2899  0.4709
 6905TIP3    H242131   1.945   1.213  16.792 -1.9557  0.0262 -0.2535
 6906TIP3   OH242132   1.378   0.637  13.926 -0.3232 -0.1304  0.1719
 6906TIP3    H142133   1.292   0.678  13.939 -0.6914 -0.3776 -1.2204
 6906TIP3    H242134   1.406   0.670  13.840 -0.3807 -2.2942 -0.7454
 6907TIP3   OH242135   6.122   3.333   2.174 -0.5088  0.0985 -0.6082
 6907TIP3    H142136   6.190   3.393   2.206 -0.7479 -0.4643  1.0563
 6907TIP3    H242137   6.167   3.274   2.114  0.2080  0.5050 -0.4745
 6908TIP3   OH242138   0.646   4.775   4.973 -0.1309 -0.5869 -0.0454
 6908TIP3    H142139   0.610   4.751   4.888  1.1925  0.6274 -0.9794
 6908TIP3    H242140   0.570   4.775   5.032 -1.2613 -0.3640 -1.4604
 6909TIP3   OH242141   2.041   2.026  14.970 -0.3414 -0.3227 -0.6392
 6909TIP3    H142142   2.118   2.008  14.917 -0.2073  0.8883 -0.8807
 6909TIP3    H242143   2.074   2.029  15.060 -0.0593  0.4359 -0.7651
 6910TIP3   OH242144   2.664   1.141  11.168 -0.0254 -0.2110  0.4624
 6910TIP3    H142145   2.693   1.050  11.159  0.6686 -0.2007  2.2372
 6910TIP3    H242146   2.593   1.149  11.105  1.9045 -1.0710 -2.0063
 6911TIP3   OH242147   4.129   3.719  15.903 -0.2597 -0.1589 -0.0960
 6911TIP3    H142148   4.076   3.725  15.982  1.9026  2.1838  1.3288
 6911TIP3    H242149   4.196   3.654  15.924  1.1935  1.5061  0.6677
 6912TIP3   OH242150   4.648   1.390  12.573 -0.3126 -0.0476  1.0264
 6912TIP3    H142151   4.662   1.299  12.547 -2.6859  0.3477 -2.2739
 6912TIP3    H242152   4.724   1.437  12.538  0.0018 -0.4991  1.1002
 6913TIP3   OH242153   1.104   4.672  16.075 -0.1246  0.4677 -0.0843
 6913TIP3    H142154   1.151   4.621  16.009 -0.5233 -0.4511  0.3301
 6913TIP3    H242155   1.142   4.760  16.068  0.0807  0.3100 -1.2920
 6914TIP3   OH242156   1.057   3.023   5.482 -0.2898 -0.5283 -0.1271
 6914TIP3    H142157   0.983   3.015   5.421 -0.7730 -0.9217  0.4996
 6914TIP3    H242158   1.111   3.093   5.445  0.1939 -1.7170 -1.8118
 6915TIP3   OH242159   5.520   4.314  15.242  0.3719 -0.7189  0.3601
 6915TIP3    H142160   5.531   4.227  15.203 -0.8016 -0.1696 -1.2634
 6915TIP3    H242161   5.493   4.370  15.170  2.6996  1.4188  1.0068
 6916TIP3   OH242162   2.907   4.253  15.175 -1.0240  0.1434 -0.1021
 6916TIP3    H142163   2.868   4.339  15.158  0.2746  0.7726 -0.0746
 6916TIP3    H242164   2.871   4.197  15.107 -2.6182  0.4596  0.4465
 6917TIP3   OH242165   5.895   1.532  15.528 -0.3162  0.2521  0.2533
 6917TIP3    H142166   5.965   1.577  15.574  0.7678 -1.1387  0.0327
 6917TIP3    H242167   5.902   1.562  15.438  0.3880 -0.3266  0.1089
 6918TIP3   OH242168   0.302   3.215  12.142 -0.3799  0.1750 -0.4161
 6918TIP3    H142169   0.390   3.242  12.115 -0.7771  0.7235 -1.2104
 6918TIP3    H242170   0.317   3.157  12.216  0.6808 -0.0926 -0.8118
 6919TIP3   OH242171   3.699   6.330  11.978 -0.1853 -0.5282  0.0602
 6919TIP3    H142172   3.695   6.414  11.932 -0.0383 -0.6675 -0.2117
 6919TIP3    H242173   3.612   6.291  11.965  0.1734 -1.0264 -0.9950
 6920TIP3   OH242174   5.038   4.433   5.401  0.0671  0.1988  0.2571
 6920TIP3    H142175   4.957   4.421   5.450 -0.0045  1.4099  0.4744
 6920TIP3    H242176   5.085   4.350   5.412 -1.6097 -0.9640 -0.8084
 6921TIP3   OH242177   5.621   4.035   4.311 -0.1307 -0.1189 -0.3736
 6921TIP3    H142178   5.596   4.056   4.401 -0.9964  0.0072 -0.6306
 6921TIP3    H242179   5.541   3.999   4.272  1.0723 -3.3875 -0.1561
 6922TIP3   OH242180   6.273   4.086   4.882  0.1955 -0.8408  0.0990
 6922TIP3    H142181   6.195   4.121   4.926  1.5297 -0.4166  2.2731
 6922TIP3    H242182   6.267   3.991   4.895 -0.1064 -0.8324  0.0197
 6923TIP3   OH242183   1.148   6.122   3.249  0.1845  0.0958 -0.3830
 6923TIP3    H142184   1.056   6.135   3.225 -0.1034 -3.8744 -2.2225
 6923TIP3    H242185   1.196   6.166   3.179 -0.3854  0.4125 -0.5853
 6924TIP3   OH242186   5.380   6.453  16.660  0.3175 -0.0453  0.2110
 6924TIP3    H142187   5.325   6.517  16.705 -0.5493 -0.8095  0.2827
 6924TIP3    H242188   5.368   6.473  16.567  0.7497  0.4535  0.2625
 6925TIP3   OH242189   2.206   5.988   4.658 -0.6820 -0.3371  0.3588
 6925TIP3    H142190   2.163   6.073   4.653 -0.2893 -0.0202  1.9440
 6925TIP3    H242191   2.297   6.008   4.679 -0.5689 -1.1475  0.6711
 6926TIP3   OH242192   3.056   1.193   6.169  0.1972  0.6189  0.1539
 6926TIP3    H142193   3.005   1.199   6.250  0.7299 -2.0437  0.7704
 6926TIP3    H242194   3.147   1.192   6.198  0.4064 -0.0700 -0.5009
 6927TIP3   OH242195   5.525   2.385  11.082  0.3455  0.1861  0.0800
 6927TIP3    H142196   5.582   2.457  11.108  2.0527 -1.2359  0.5150
 6927TIP3    H242197   5.552   2.365  10.992  1.2135 -1.0401  0.5722
 6928TIP3   OH242198   5.872   4.600  16.229  0.1785  0.0808  0.3834
 6928TIP3    H142199   5.881   4.571  16.138 -1.2903  0.0513  0.2237
 6928TIP3    H242200   5.909   4.689  16.230 -1.7254  0.9551 -0.7751
 6929TIP3   OH242201   3.438   0.277   0.754  0.1101 -0.0930 -0.4912
 6929TIP3    H142202   3.467   0.263   0.844  0.1114 -0.4958 -0.5508
 6929TIP3    H242203   3.343   0.267   0.757  0.3232 -3.1132 -1.0308
 6930TIP3   OH242204   5.215   2.562  11.291 -0.6037  0.6496  0.1791
 6930TIP3    H142205   5.134   2.580  11.339 -1.7431 -0.6671 -1.1461
 6930TIP3    H242206   5.209   2.617  11.213  0.0211  0.9078  0.3099
 6931TIP3   OH242207   1.145   5.315   1.337 -1.0352  0.9772 -0.2544
 6931TIP3    H142208   1.084   5.246   1.310 -0.3226  0.7953 -1.5118
 6931TIP3    H242209   1.231   5.283   1.307 -0.5060  1.7962  0.3602
 6932TIP3   OH242210   5.469   1.399   3.216 -0.2398 -0.4428 -0.0750
 6932TIP3    H142211   5.416   1.325   3.186 -0.3199 -0.2692 -0.3669
 6932TIP3    H242212   5.513   1.367   3.294  0.4447 -1.1065 -0.7196
 6933TIP3   OH242213   3.337   1.917   5.071 -0.4347 -0.4908  0.3903
 6933TIP3    H142214   3.414   1.971   5.059  0.6511 -2.2972 -1.3849
 6933TIP3    H242215   3.264   1.972   5.044  0.1193  1.3103  2.2851
 6934TIP3   OH242216   5.095   5.361  12.194  0.1619 -0.5867  0.4102
 6934TIP3    H142217   5.014   5.360  12.245 -0.1726 -2.2691 -0.0957
 6934TIP3    H242218   5.067   5.354  12.103  0.8430  0.2422  0.1143
 6935TIP3   OH242219   0.205   1.773  14.020  0.2627 -0.0296  0.3277
 6935TIP3    H142220   0.113   1.752  14.038  0.1789 -2.0786 -1.9412
 6935TIP3    H242221   0.250   1.753  14.102 -0.8933 -2.4537  0.4901
 6936TIP3   OH242222   4.907   6.087   3.025 -0.1746 -0.0204 -0.3026
 6936TIP3    H142223   4.843   6.097   2.955 -2.8563 -1.0575  1.8086
 6936TIP3    H242224   4.916   5.992   3.037 -0.0394  0.1269  0.9409
 6937TIP3   OH242225   3.692   5.813  13.092 -0.2241  0.1405  0.2243
 6937TIP3    H142226   3.752   5.887  13.088  2.0686 -1.5959  0.1585
 6937TIP3    H242227   3.616   5.841  13.042  1.0725  1.9959 -0.8460
 6938TIP3   OH242228   1.426   3.063  13.600  0.3348 -0.3325  0.0909
 6938TIP3    H142229   1.347   3.013  13.622  0.0534 -0.0080 -0.1774
 6938TIP3    H242230   1.496   3.020  13.650 -0.0698 -0.4032  0.6034
 6939TIP3   OH242231   0.510   6.462  15.529  0.1778  0.5432 -0.2989
 6939TIP3    H142232   0.603   6.438  15.535 -0.1870 -1.1514 -0.9661
 6939TIP3    H242233   0.470   6.422  15.606  0.4722  4.1486  1.9762
 6940TIP3   OH242234   6.195   0.514  13.977 -0.2061  0.1268  0.1582
 6940TIP3    H142235   6.256   0.507  13.904  1.2678  1.1870  1.2391
 6940TIP3    H242236   6.109   0.500  13.937  0.7255 -1.7208 -1.3502
 6941TIP3   OH242237   0.955   1.683  12.540 -0.0097  0.7830  0.2790
 6941TIP3    H142238   0.943   1.613  12.476 -0.4434  0.0648  1.1284
 6941TIP3    H242239   0.870   1.728  12.544 -0.2375  0.3009  0.9518
 6942TIP3   OH242240   5.129   3.396  13.119 -0.5192 -0.1513 -0.0636
 6942TIP3    H142241   5.134   3.403  13.214 -0.5919  1.5059 -0.1662
 6942TIP3    H242242   5.085   3.312  13.104 -0.2593 -0.5613  1.3514
 6943TIP3   OH242243   3.620   3.375   0.702 -0.9332 -0.5785 -0.0033
 6943TIP3    H142244   3.634   3.447   0.640 -0.8915 -0.0590  0.6067
 6943TIP3    H242245   3.535   3.393   0.741 -0.1270  0.1422  1.4725
 6944TIP3   OH242246   1.782   3.671  16.386 -0.3834 -0.1907  0.8508
 6944TIP3    H142247   1.744   3.626  16.460  1.4501 -0.9575  1.3932
 6944TIP3    H242248   1.874   3.643  16.385  0.0924  1.2196 -0.6014
 6945TIP3   OH242249   5.979   4.381  11.791 -0.1585  0.0560  0.3795
 6945TIP3    H142250   5.945   4.382  11.881 -0.8631 -1.9041  0.1627
 6945TIP3    H242251   5.948   4.299  11.754  1.0114  0.3411 -1.3384
 6946TIP3   OH242252   1.620   4.036   4.835  0.0118  0.1568  0.1838
 6946TIP3    H142253   1.590   3.962   4.783  0.0087  0.0827  0.2907
 6946TIP3    H242254   1.704   4.061   4.797 -0.1907  0.3711 -0.1248
 6947TIP3   OH242255   5.622   1.916  17.118 -0.1223 -0.2308 -0.6578
 6947TIP3    H142256   5.637   2.005  17.087 -0.0183  0.0163  0.0831
 6947TIP3    H242257   5.605   1.865  17.039 -0.4332  0.4958 -1.0597
 6948TIP3   OH242258   2.867   6.158   0.717 -0.1507 -0.3661  0.3736
 6948TIP3    H142259   2.876   6.223   0.787  1.2445 -0.5580  0.4073
 6948TIP3    H242260   2.836   6.080   0.762  2.0728 -0.9187  1.0993
 6949TIP3   OH242261   3.111   0.532  12.338 -0.1984 -0.0237 -0.7600
 6949TIP3    H142262   3.144   0.456  12.385  0.4823  1.3542  1.1049
 6949TIP3    H242263   3.190   0.575  12.304 -0.6184 -0.4555 -2.3821
 6950TIP3   OH242264   2.365   2.502  15.871  0.0560  0.6981  0.2053
 6950TIP3    H142265   2.387   2.567  15.805 -0.2915  0.1661 -0.4475
 6950TIP3    H242266   2.421   2.427  15.851 -0.0614  0.5264  0.5029
 6951TIP3   OH242267   6.148   6.243  15.663  0.2225 -0.6154  0.0844
 6951TIP3    H142268   6.108   6.288  15.737 -0.7930 -0.2953 -0.6237
 6951TIP3    H242269   6.237   6.224  15.691 -0.4034 -1.3239  1.7280
 6952TIP3   OH242270   6.062   0.440  14.610 -0.1330 -0.0056 -0.0088
 6952TIP3    H142271   6.051   0.453  14.516 -0.2705 -0.9411 -0.1356
 6952TIP3    H242272   5.979   0.401  14.639 -0.7123  1.7160  0.8067
 6953TIP3   OH242273   6.779   6.142  15.285 -0.4314  0.4425  0.3315
 6953TIP3    H142274   6.726   6.066  15.260 -2.0323  1.3790  0.7727
 6953TIP3    H242275   6.864   6.104  15.310 -0.2336 -0.9328 -2.0611
 6954TIP3   OH242276   5.468   2.065   3.240  0.1387 -0.2224  0.1209
 6954TIP3    H142277   5.467   2.051   3.145 -1.1388 -0.4961  0.1640
 6954TIP3    H242278   5.394   2.122   3.257 -0.4427 -1.2229  1.1047
 6955TIP3   OH242279   0.676   5.781   5.336 -0.0185 -0.6626  0.2785
 6955TIP3    H142280   0.634   5.844   5.395  0.5235 -0.8907  0.9102
 6955TIP3    H242281   0.613   5.709   5.331 -0.4032 -0.3129 -0.0273
 6956TIP3   OH242282   4.257   3.278  11.698 -0.5533 -0.1372  0.8043
 6956TIP3    H142283   4.192   3.231  11.749 -2.0661  0.0974 -0.8286
 6956TIP3    H242284   4.234   3.370  11.709 -0.5842 -0.0594  0.1094
 6957TIP3   OH242285   3.895   5.000   0.001 -0.4374  0.0690 -1.0281
 6957TIP3    H142286   3.842   5.020  -0.077  0.5523 -0.0329 -1.7498
 6957TIP3    H242287   3.985   5.020  -0.026 -0.0538 -0.2284  0.0097
 6958TIP3   OH242288   2.086   0.373  16.289 -0.5239  0.1731 -0.2929
 6958TIP3    H142289   2.180   0.361  16.300 -0.8216 -2.0628  0.3162
 6958TIP3    H242290   2.076   0.398  16.197  0.8359  3.6508  0.3512
 6959TIP3   OH242291   0.477   1.217   3.352 -0.3849  0.3700 -0.1254
 6959TIP3    H142292   0.388   1.240   3.324 -0.8482 -1.0053  0.1428
 6959TIP3    H242293   0.483   1.123   3.338  0.3435  0.0985  1.7560
 6960TIP3   OH242294   3.652   4.952   3.397 -0.0615 -0.0737 -0.3039
 6960TIP3    H142295   3.740   4.979   3.371 -0.0417 -0.1599 -0.3293
 6960TIP3    H242296   3.647   4.860   3.369  0.1318 -0.3160  0.4251
 6961TIP3   OH242297   0.696   4.944   4.351 -0.1281  0.1911  0.6740
 6961TIP3    H142298   0.706   4.878   4.419 -2.9667 -0.2739  0.7596
 6961TIP3    H242299   0.644   4.902   4.283  1.7755  0.9746 -1.3883
 6962TIP3   OH242300   6.576   0.500  13.163 -0.3976  0.0195 -0.1090
 6962TIP3    H142301   6.487   0.465  13.163 -0.5490  0.3985  0.4965
 6962TIP3    H242302   6.631   0.423  13.149 -0.8584 -0.0737 -1.5990
 6963TIP3   OH242303   1.826   2.033   1.570  0.1672  0.4793 -0.3101
 6963TIP3    H142304   1.911   2.073   1.553 -0.1172  0.8442 -0.8966
 6963TIP3    H242305   1.765   2.106   1.573 -0.3539  0.1167 -1.3697
 6964TIP3   OH242306   3.670   1.102  11.456 -0.0498 -0.2021  0.2028
 6964TIP3    H142307   3.654   1.144  11.372 -1.4255 -0.6324  0.2325
 6964TIP3    H242308   3.585   1.101  11.500  0.0721 -2.3675  0.4984
 6965TIP3   OH242309   6.068   3.623   1.758  0.0986 -0.6082 -0.0441
 6965TIP3    H142310   6.062   3.689   1.827 -1.3116 -1.0222  0.2702
 6965TIP3    H242311   6.033   3.544   1.798 -0.1383 -1.0191 -1.0244
 6966TIP3   OH242312   5.980   0.550  14.373 -0.0987 -0.0294  0.3315
 6966TIP3    H142313   5.922   0.518  14.304 -1.7654 -1.9209  2.4497
 6966TIP3    H242314   5.928   0.617  14.419  0.0718 -0.4329  1.1291
 6967TIP3   OH242315   2.450   1.506   3.285  0.0178 -0.1690 -0.0582
 6967TIP3    H142316   2.453   1.536   3.194 -0.3056 -2.1193 -0.7619
 6967TIP3    H242317   2.516   1.437   3.290 -0.5227 -0.6425  0.9494
 6968TIP3   OH242318   2.828   3.711   3.638  0.1618 -0.0864 -0.5826
 6968TIP3    H142319   2.792   3.623   3.647 -0.0527 -0.0844 -1.3501
 6968TIP3    H242320   2.783   3.748   3.562  0.0320  0.7920 -0.0989
 6969TIP3   OH242321   2.873   6.566   2.487  0.5479 -0.0343  0.6042
 6969TIP3    H142322   2.847   6.474   2.486  0.2035  0.0618  0.3959
 6969TIP3    H242323   2.964   6.566   2.459  0.1715 -0.2053 -0.7229
 6970TIP3   OH242324   5.535   1.886   4.097  0.2421  0.3316 -0.0629
 6970TIP3    H142325   5.569   1.888   4.187 -1.4496 -0.0704  0.6245
 6970TIP3    H242326   5.544   1.977   4.067 -2.0481  1.2550  1.7057
 6971TIP3   OH242327   1.857   5.743  11.001  0.3382 -0.4688  0.7701
 6971TIP3    H142328   1.915   5.685  10.951  1.6202 -0.3865  2.1083
 6971TIP3    H242329   1.829   5.809  10.937  3.2960  0.6424  0.4643
 6972TIP3   OH242330   0.796   0.226  16.967  0.0364 -0.6532 -0.4425
 6972TIP3    H142331   0.851   0.253  17.041 -0.9901 -0.8573  0.4129
 6972TIP3    H242332   0.709   0.261  16.988  0.0642  0.7268 -2.3596
 6973TIP3   OH242333   3.480   4.044  13.960 -0.0573 -0.1021 -0.3438
 6973TIP3    H142334   3.488   4.065  13.867  0.1714  3.0333  0.2824
 6973TIP3    H242335   3.568   4.055  13.995  0.3987 -3.5871 -0.0491
 6974TIP3   OH242336   2.696   0.503   3.383  0.1682 -0.2801 -0.0209
 6974TIP3    H142337   2.768   0.440   3.392  1.0240  0.5735 -0.6803
 6974TIP3    H242338   2.739   0.588   3.384 -0.5382  0.2041 -2.9184
 6975TIP3   OH242339   2.262   3.897   5.360  0.2313 -0.3101 -0.2092
 6975TIP3    H142340   2.315   3.835   5.410  2.1002  1.7142  0.4446
 6975TIP3    H242341   2.190   3.920   5.418 -1.7029 -3.2967 -1.2047
 6976TIP3   OH242342   6.285   6.147  16.606 -0.0984 -0.1261 -0.1810
 6976TIP3    H142343   6.249   6.158  16.694  1.6600 -1.0648  0.7131
 6976TIP3    H242344   6.357   6.210  16.602 -0.4417  0.2204 -1.1404
 6977TIP3   OH242345   5.460   1.507   4.113 -0.3271 -0.4126 -0.3184
 6977TIP3    H142346   5.398   1.578   4.093  0.0498  0.0131 -0.0079
 6977TIP3    H242347   5.442   1.485   4.205 -0.0785 -0.3472 -0.2540
 6978TIP3   OH242348   4.204   1.356  13.669  0.5490 -0.5342 -0.5392
 6978TIP3    H142349   4.284   1.334  13.622  1.0423  0.8303 -0.3804
 6978TIP3    H242350   4.147   1.394  13.602  0.6328 -0.0861 -0.3594
 6979TIP3   OH242351   2.200   0.206   5.263 -0.0783  0.1031 -0.4371
 6979TIP3    H142352   2.184   0.190   5.356 -0.4280 -0.0975 -0.5329
 6979TIP3    H242353   2.201   0.301   5.255 -2.9931  0.1991 -0.7248
 6980TIP3   OH242354   2.136   4.808   3.010  0.1978 -0.4499  0.6498
 6980TIP3    H142355   2.104   4.882   3.062  0.9355 -0.1147  0.6299
 6980TIP3    H242356   2.086   4.733   3.043 -1.0164  0.1445  0.2428
 6981TIP3   OH242357   3.126   3.214   0.048 -0.3189  0.1853  0.5375
 6981TIP3    H142358   3.170   3.269   0.113 -0.7941 -0.1474  1.1548
 6981TIP3    H242359   3.195   3.155   0.017  0.6285  2.1595 -1.3638
 6982TIP3   OH242360   0.123   5.682  14.513  0.2458  0.1739  0.2598
 6982TIP3    H142361   0.128   5.652  14.604 -0.8459  0.8390  0.5554
 6982TIP3    H242362   0.202   5.736  14.503  0.7131 -0.4312  0.6048
 6983TIP3   OH242363   5.712   4.944   2.403  0.8800 -0.1323  0.4226
 6983TIP3    H142364   5.712   5.037   2.429  0.7660 -0.2461  0.8360
 6983TIP3    H242365   5.650   4.940   2.331  1.1899  0.1864  0.1284
 6984TIP3   OH242366   4.840   6.092  15.983 -0.2187  0.2932 -0.8787
 6984TIP3    H142367   4.764   6.092  16.042  0.2761  2.6289 -0.1415
 6984TIP3    H242368   4.841   6.004  15.945 -1.6398 -0.6905  1.1949
 6985TIP3   OH242369   1.039   3.197  12.463  0.1548 -0.3031  0.0061
 6985TIP3    H142370   1.076   3.117  12.499  0.7426  0.3482  0.9134
 6985TIP3    H242371   1.112   3.241  12.420 -0.3548 -0.6525 -1.2526
 6986TIP3   OH242372   5.639   0.117  12.897  0.0524  0.1939 -0.0232
 6986TIP3    H142373   5.572   0.101  12.964  0.8841  1.3688  1.1439
 6986TIP3    H242374   5.667   0.029  12.870  0.5512 -0.3383  2.0635
 6987TIP3   OH242375   5.606   3.757   3.113  0.1260 -0.1203  0.2907
 6987TIP3    H142376   5.552   3.823   3.070 -0.3140 -1.4879 -1.3662
 6987TIP3    H242377   5.678   3.807   3.153  0.2348  1.3172 -1.5644
 6988TIP3   OH242378   5.090   5.804  14.319 -0.2591 -0.6393  0.0497
 6988TIP3    H142379   5.178   5.799  14.283  0.3901 -0.6222  1.5696
 6988TIP3    H242380   5.040   5.737  14.273  0.2938 -0.0584 -1.4535
 6989TIP3   OH242381   6.153   4.638  16.027  1.1065 -0.1179 -0.3813
 6989TIP3    H142382   6.126   4.709  16.086 -0.5629 -2.1426  1.4840
 6989TIP3    H242383   6.076   4.621  15.973  1.1531 -1.1223 -0.1411
 6990TIP3   OH242384   4.003   1.279  12.152  0.0042  0.0250  0.1720
 6990TIP3    H142385   4.074   1.235  12.105 -0.4773  0.1684 -0.7286
 6990TIP3    H242386   4.039   1.364  12.177  0.6922 -0.5587  1.2508
 6991TIP3   OH242387   0.112   6.007  15.895  0.6275  0.6311 -0.2951
 6991TIP3    H142388   0.150   5.919  15.900 -0.6440  0.1228  2.1942
 6991TIP3    H242389   0.131   6.037  15.806  0.8117 -2.2889 -1.3362
 6992TIP3   OH242390   4.448   0.268  13.319  0.0126  0.4730  0.0213
 6992TIP3    H142391   4.478   0.211  13.248  0.5632 -1.7505  1.9162
 6992TIP3    H242392   4.370   0.311  13.284 -0.9955 -2.1804 -1.2608
 6993TIP3   OH242393   4.508   6.207   2.326 -0.9083  0.4471 -0.3467
 6993TIP3    H142394   4.450   6.150   2.276 -0.8644 -0.3307  0.4485
 6993TIP3    H242395   4.451   6.248   2.391 -0.3858 -1.6860  1.6318
 6994TIP3   OH242396   6.358   4.981   1.330 -0.0665  0.0026 -0.6481
 6994TIP3    H142397   6.265   5.003   1.339 -0.5226 -2.3307  1.4554
 6994TIP3    H242398   6.370   4.967   1.236 -3.0003 -3.5925 -0.7508
 6995TIP3   OH242399   6.228   5.950   5.764 -0.6316 -0.3607 -0.1562
 6995TIP3    H142400   6.244   5.945   5.859 -0.3908  0.1552 -0.1639
 6995TIP3    H242401   6.160   6.016   5.755 -0.0214  0.2495 -0.4016
 6996TIP3   OH242402   1.890   6.518   5.747 -0.6550 -0.2194  0.3747
 6996TIP3    H142403   1.816   6.475   5.704  0.0275  0.4080 -1.5200
 6996TIP3    H242404   1.870   6.611   5.742  0.2088 -0.0442 -0.1126
 6997TIP3   OH242405   4.597   3.214   1.853 -0.6337 -0.0330  0.5976
 6997TIP3    H142406   4.677   3.259   1.881 -0.7736  0.2212  0.5984
 6997TIP3    H242407   4.579   3.151   1.923 -0.4192 -0.1108  0.5839
 6998TIP3   OH242408   1.968   4.878  13.356 -0.1704 -0.0328  0.5625
 6998TIP3    H142409   2.004   4.926  13.282  0.2909  0.5811  1.1742
 6998TIP3    H242410   1.894   4.830  13.320 -0.5187  0.9849 -0.0995
 6999TIP3   OH242411   4.074   6.453   0.956  0.1362 -0.4284 -0.5365
 6999TIP3    H142412   4.020   6.506   1.014 -0.5783 -1.0514 -0.6195
 6999TIP3    H242413   4.146   6.511   0.931 -0.6286  0.4983 -0.6447
 7000TIP3   OH242414   1.388   3.297  16.940 -0.3405  0.3836  0.7153
 7000TIP3    H142415   1.435   3.373  16.974  0.6306 -0.6033  1.6922
 7000TIP3    H242416   1.323   3.276  17.007  0.5530 -0.6547  1.2919
 7001TIP3   OH242417   5.792   6.430  16.221 -0.6168  0.2284  0.2563
 7001TIP3    H142418   5.844   6.451  16.144 -0.2224  2.8405  1.1417
 7001TIP3    H242419   5.805   6.336  16.234  1.6218  0.2597 -1.1899
 7002TIP3   OH242420   5.867   6.269   0.623 -0.1032  0.2257 -0.2067
 7002TIP3    H142421   5.889   6.206   0.691 -0.7442  1.4081  1.1523
 7002TIP3    H242422   5.804   6.223   0.567  0.3256 -0.7182  0.0652
 7003TIP3   OH242423   2.980   3.763  12.934  0.3499 -0.0208  0.0417
 7003TIP3    H142424   2.963   3.791  13.024 -0.3795 -0.3049 -0.0088
 7003TIP3    H242425   3.070   3.730  12.936  0.1247 -0.6208  0.8169
 7004TIP3   OH242426   0.866   0.803   3.853 -0.5597 -0.0234 -0.2675
 7004TIP3    H142427   0.943   0.759   3.816 -1.9384 -1.7351 -1.2169
 7004TIP3    H242428   0.839   0.864   3.785  0.6486  1.5210  0.5744
 7005TIP3   OH242429   0.157   0.007  10.835 -0.0446 -0.1722  0.1101
 7005TIP3    H142430   0.099   0.040  10.767  2.4312 -0.3148 -2.2418
 7005TIP3    H242431   0.206   0.083  10.864  1.0961 -0.5963 -0.6071
 7006TIP3   OH242432   1.747   5.293  13.633  0.5776  0.4541 -0.0181
 7006TIP3    H142433   1.782   5.215  13.589  0.4974  0.6330 -0.4029
 7006TIP3    H242434   1.764   5.278  13.726 -0.1582 -0.3946 -0.0018
 7007TIP3   OH242435   1.852   1.216  14.344  0.5205 -0.5425  0.5809
 7007TIP3    H142436   1.865   1.124  14.321 -0.1489 -0.6834  0.7563
 7007TIP3    H242437   1.864   1.219  14.439  2.4693 -0.1015  0.3697
 7008TIP3   OH242438   6.309   5.487  16.764 -0.8603 -0.6169  0.0706
 7008TIP3    H142439   6.341   5.527  16.683  0.9211 -0.7222  0.6699
 7008TIP3    H242440   6.258   5.557  16.806 -2.6098 -0.8526 -1.5156
 7009TIP3   OH242441   0.401   2.827  15.826 -0.5054  0.1259 -0.7077
 7009TIP3    H142442   0.307   2.831  15.841 -0.5245  1.0638 -0.9851
 7009TIP3    H242443   0.410   2.815  15.732 -0.3478 -1.0708 -0.5528
 7010TIP3   OH242444   2.076   4.287   4.377  0.7445 -0.1919  0.3455
 7010TIP3    H142445   2.146   4.329   4.326  2.4423 -2.2119  0.8361
 7010TIP3    H242446   2.118   4.210   4.415 -1.3930 -0.6498  1.9622
 7011TIP3   OH242447   0.844   3.812   1.927  0.4699 -0.3804 -0.3637
 7011TIP3    H142448   0.806   3.900   1.930  1.0792 -0.1252  0.6366
 7011TIP3    H242449   0.791   3.765   1.863 -1.3870  0.0123  0.7869
 7012TIP3   OH242450   2.456   2.457  14.376  0.1671 -0.2628 -0.2646
 7012TIP3    H142451   2.385   2.434  14.436  0.1320  1.5153  0.4237
 7012TIP3    H242452   2.414   2.466  14.291 -0.1805 -0.6196 -0.1317
 7013TIP3   OH242453   1.219   3.285  14.249  0.6855  0.2688  0.1422
 7013TIP3    H142454   1.306   3.263  14.282  0.5579 -1.0294 -0.3455
 7013TIP3    H242455   1.201   3.219  14.182 -0.2078  1.2036 -0.5763
 7014TIP3   OH242456   4.845   4.889   2.491  0.1690 -0.2146  0.3476
 7014TIP3    H142457   4.761   4.871   2.449 -1.2978  1.5337  2.2771
 7014TIP3    H242458   4.868   4.977   2.462  0.3713  0.0390  1.2255
 7015TIP3   OH242459   1.573   1.434  13.297 -0.6292 -0.1072 -0.6658
 7015TIP3    H142460   1.485   1.398  13.293 -0.6660  0.0449 -1.2978
 7015TIP3    H242461   1.563   1.514  13.350 -0.5111 -1.0818  0.8930
 7016TIP3   OH242462   3.333   3.482  13.207 -0.1766 -0.1554 -0.1859
 7016TIP3    H142463   3.298   3.490  13.296  0.8988  2.5976  0.0840
 7016TIP3    H242464   3.419   3.444  13.218 -0.5080 -0.9219 -0.1921
 7017TIP3   OH242465   4.587   0.879   0.215 -0.5382  0.1477  0.2024
 7017TIP3    H142466   4.674   0.887   0.256 -1.0718  1.3182  1.1642
 7017TIP3    H242467   4.537   0.827   0.278 -0.4947 -0.6722 -0.4337
 7018TIP3   OH242468   1.447   2.619   3.570  0.0600  0.6601  0.1330
 7018TIP3    H142469   1.371   2.573   3.536 -0.7669  0.2358  2.3754
 7018TIP3    H242470   1.411   2.691   3.622  1.1459  0.4637  1.2304
 7019TIP3   OH242471   4.697   4.990  10.927  0.0260  0.4244 -0.2969
 7019TIP3    H142472   4.778   5.005  10.878 -0.5238 -0.6116 -1.5744
 7019TIP3    H242473   4.627   5.020  10.869 -0.5640  0.5441  0.4614
 7020TIP3   OH242474   2.847   1.749   1.794 -0.6380 -0.3042  0.7497
 7020TIP3    H142475   2.922   1.698   1.763  0.9050  1.7349  0.9542
 7020TIP3    H242476   2.772   1.690   1.780  0.9213 -2.3338  0.3309
 7021TIP3   OH242477   4.791   4.052   3.590 -0.1940 -0.1257  0.5926
 7021TIP3    H142478   4.835   3.969   3.572  0.0505  0.3677 -1.3711
 7021TIP3    H242479   4.705   4.043   3.549  0.5973  1.2830 -1.5954
 7022TIP3   OH242480   2.594   0.691  13.470 -0.1249  0.4924 -0.4115
 7022TIP3    H142481   2.588   0.672  13.563  1.3884 -0.0486 -0.4014
 7022TIP3    H242482   2.629   0.780  13.465 -0.4061  0.6030 -0.4779
 7023TIP3   OH242483   2.095   1.451   2.340 -0.3056 -0.0711 -0.0104
 7023TIP3    H142484   2.059   1.487   2.422  1.6019  0.1337  0.7895
 7023TIP3    H242485   2.093   1.356   2.353 -0.7096 -0.0724 -0.0567
 7024TIP3   OH242486   2.334   2.479  16.711 -0.3815 -0.0984 -1.0000
 7024TIP3    H142487   2.414   2.437  16.680 -0.1174  1.2512 -2.2444
 7024TIP3    H242488   2.275   2.476  16.636 -0.7236  0.8025 -0.7821
 7025TIP3   OH242489   4.249   2.192   2.034 -0.0043  0.0059 -0.2778
 7025TIP3    H142490   4.244   2.260   2.101  1.3108 -0.5457  0.4214
 7025TIP3    H242491   4.161   2.155   2.030 -0.2458  0.4547  0.7275
 7026TIP3   OH242492   3.863   0.696   3.641  0.1230 -0.2972  0.1868
 7026TIP3    H142493   3.934   0.753   3.670 -0.6831  0.7517  0.2015
 7026TIP3    H242494   3.783   0.746   3.661 -0.5590 -0.6850 -1.4093
 7027TIP3   OH242495   0.483   0.207   0.129  0.5291  0.0785 -0.1185
 7027TIP3    H142496   0.401   0.198   0.080  1.0623  0.1209 -1.0520
 7027TIP3    H242497   0.510   0.117   0.147  0.5174  0.0538 -0.2232
 7028TIP3   OH242498   3.452   3.069  15.992  0.6821 -0.5423 -0.4859
 7028TIP3    H142499   3.471   3.159  16.018  0.5073 -0.8149  0.6620
 7028TIP3    H242500   3.513   3.051  15.921  1.6814  0.0318  0.2003
 7029TIP3   OH242501   1.731   5.152  15.956  0.3791 -0.3874 -0.6216
 7029TIP3    H142502   1.665   5.220  15.947  0.2351 -0.3872  0.3417
 7029TIP3    H242503   1.796   5.172  15.888 -1.0923 -0.9855 -2.2900
 7030TIP3   OH242504   3.075   3.279   1.216  0.2918 -0.2817  0.7560
 7030TIP3    H142505   2.981   3.278   1.202  0.4368 -1.5990 -0.3831
 7030TIP3    H242506   3.111   3.318   1.136  0.6485  2.1507  2.0179
 7031TIP3   OH242507   0.282   4.618   3.702 -0.2164 -0.2031  0.7723
 7031TIP3    H142508   0.266   4.630   3.608 -0.4736 -1.6588  0.6170
 7031TIP3    H242509   0.294   4.524   3.713  1.6263  0.1207  1.9283
 7032TIP3   OH242510   0.195   2.822  16.155 -0.2122  0.7937 -0.1601
 7032TIP3    H142511   0.128   2.810  16.222  1.1062  1.1783  1.2551
 7032TIP3    H242512   0.243   2.740  16.153 -0.9460  0.3489 -1.5023
 7033TIP3   OH242513   6.200   6.143  16.864 -0.4824 -0.1092 -0.6908
 7033TIP3    H142514   6.117   6.189  16.854 -1.0108 -1.4077 -2.8603
 7033TIP3    H242515   6.256   6.205  16.911 -2.2618  1.2938 -0.3019
 7034TIP3   OH242516   2.821   1.370  17.133 -0.8294 -0.0169  0.1644
 7034TIP3    H142517   2.787   1.459  17.146 -0.3570 -0.1302  2.6782
 7034TIP3    H242518   2.742   1.316  17.121 -1.0971  0.7831 -2.5472
 7035TIP3   OH242519   3.911   4.435  16.203 -0.6764  0.3504  0.0093
 7035TIP3    H142520   3.864   4.369  16.152 -2.3450  0.4237  1.3523
 7035TIP3    H242521   3.912   4.513  16.147  0.4233 -0.4871 -1.1839
 7036TIP3   OH242522   6.742   1.955   1.342 -0.1405  0.4565  0.0266
 7036TIP3    H142523   6.766   1.997   1.425  1.4177 -0.0144 -0.1594
 7036TIP3    H242524   6.711   1.869   1.368 -0.5465  0.6466  0.1838
 7037TIP3   OH242525   2.770   4.424   1.893  0.3737 -0.2231  0.3054
 7037TIP3    H142526   2.764   4.329   1.888  1.1510 -0.3072  0.8822
 7037TIP3    H242527   2.860   4.444   1.865  0.4124  0.2922  0.7918
 7038TIP3   OH242528   5.313   1.182   3.158 -0.2086 -0.3132 -0.3091
 7038TIP3    H142529   5.347   1.115   3.218  0.8998  0.5008  0.0121
 7038TIP3    H242530   5.226   1.203   3.193  0.1343 -0.3626  0.6214
 7039TIP3   OH242531   0.392   3.693  16.643 -0.4949 -0.8234  0.2535
 7039TIP3    H142532   0.330   3.741  16.588  0.8710  0.1224 -0.5323
 7039TIP3    H242533   0.377   3.601  16.622  0.3070 -0.4897 -2.1639
 7040TIP3   OH242534   3.010   4.460   5.214 -0.2078 -0.3438 -0.2706
 7040TIP3    H142535   2.930   4.419   5.247  0.0716 -1.4162 -0.8440
 7040TIP3    H242536   3.045   4.395   5.152 -0.1223  1.0963 -1.7889
 7041TIP3   OH242537   5.716   1.934  12.040  0.1069  0.4049 -0.1649
 7041TIP3    H142538   5.810   1.916  12.040  0.0075 -0.5363 -2.5363
 7041TIP3    H242539   5.710   2.028  12.054  1.4038  0.4870  0.0087
 7042TIP3   OH242540   6.550   6.792  15.814  0.1785 -0.0067 -0.1212
 7042TIP3    H142541   6.524   6.808  15.905 -1.0097 -1.1354 -0.2351
 7042TIP3    H242542   6.495   6.852  15.763 -0.9846 -1.1283 -0.2381
 7043TIP3   OH242543   4.463   4.830   2.663 -0.4339  0.4895 -0.4864
 7043TIP3    H142544   4.512   4.763   2.710 -1.2099  0.7333  0.7306
 7043TIP3    H242545   4.521   4.858   2.593  1.0475  0.5841  0.7406
 7044TIP3   OH242546   0.624   5.811  16.586  0.2228 -0.1902 -0.6540
 7044TIP3    H142547   0.563   5.776  16.652 -0.9904 -0.6019 -1.9439
 7044TIP3    H242548   0.603   5.904  16.581  0.1813 -0.1962 -0.6008
 7045TIP3   OH242549   1.440   6.730  14.646  0.0873  0.1182  0.6294
 7045TIP3    H142550   1.493   6.810  14.638  0.7035 -0.4412 -1.5110
 7045TIP3    H242551   1.410   6.712  14.557 -0.2400 -1.9314  1.1066
 7046TIP3   OH242552   1.676   2.150  12.617 -0.3083  0.2402  0.0497
 7046TIP3    H142553   1.688   2.058  12.592  1.2304  0.6890 -1.0607
 7046TIP3    H242554   1.715   2.157  12.704 -0.1911 -0.1249  0.0272
 7047TIP3   OH242555   6.010   2.618   5.333 -0.4402 -0.2328  0.2854
 7047TIP3    H142556   6.083   2.679   5.324  0.1139 -0.9879 -0.5123
 7047TIP3    H242557   6.010   2.568   5.251 -1.2668 -0.8876  0.6650
 7048TIP3   OH242558   0.396   3.199   4.604 -0.1814 -0.4171 -0.4838
 7048TIP3    H142559   0.350   3.278   4.631  1.5979  0.6972 -0.5548
 7048TIP3    H242560   0.395   3.203   4.508  2.7631  1.3714 -0.5510
 7049TIP3   OH242561   4.607   5.689  14.849 -0.1603 -1.1783 -0.6412
 7049TIP3    H142562   4.622   5.674  14.942  0.4113 -1.5972 -0.7921
 7049TIP3    H242563   4.681   5.743  14.822 -1.7617  1.3464 -0.2722
 7050TIP3   OH242564   4.192   3.788  16.665  0.5710 -0.1042  0.1325
 7050TIP3    H142565   4.258   3.846  16.703  0.8514 -1.4819  1.8971
 7050TIP3    H242566   4.241   3.731  16.606  0.5595  0.3381 -0.3166
 7051TIP3   OH242567   0.481   6.274  13.280  0.2443  0.0591 -0.2224
 7051TIP3    H142568   0.418   6.317  13.338  1.9145  0.5362  1.3248
 7051TIP3    H242569   0.551   6.338  13.267 -0.0731  0.0106 -2.9001
 7052TIP3   OH242570   5.761   6.001  16.888  0.0351  0.3215  0.2275
 7052TIP3    H142571   5.691   5.978  16.827  1.1934  0.7170 -1.3161
 7052TIP3    H242572   5.841   5.991  16.837  0.9785  1.8032  1.3414
 7053TIP3   OH242573   6.565   6.616  12.049  0.0704  0.2959  0.1874
 7053TIP3    H142574   6.474   6.607  12.075  0.1415  1.2512  0.8113
 7053TIP3    H242575   6.615   6.596  12.129  0.3379  1.5957  0.3702
 7054TIP3   OH242576   2.351   4.470  16.175  0.0127 -0.0583 -0.4257
 7054TIP3    H142577   2.282   4.536  16.170  0.7658  0.7631 -0.4146
 7054TIP3    H242578   2.313   4.397  16.223 -0.9091  0.2812 -0.6273
 7055TIP3   OH242579   1.092   1.860   6.289  0.0658 -0.2301  0.3930
 7055TIP3    H142580   1.004   1.849   6.325  0.4497 -2.5141  0.7813
 7055TIP3    H242581   1.130   1.772   6.289  1.9555  0.4994 -0.8329
 7056TIP3   OH242582   2.587   3.888  14.963  0.0861 -0.8026  0.4570
 7056TIP3    H142583   2.502   3.932  14.960  0.2685 -0.4703  0.1208
 7056TIP3    H242584   2.576   3.811  14.907 -0.8871 -2.3863  2.6551
 7057TIP3   OH242585   4.268   3.996   0.211  0.2316 -0.0004  0.0760
 7057TIP3    H142586   4.287   4.065   0.148 -0.2556 -0.2123 -0.2989
 7057TIP3    H242587   4.320   4.020   0.288 -1.7133  2.0927  0.8523
 7058TIP3   OH242588   4.957   6.764   0.224  0.1462  0.3526 -0.2207
 7058TIP3    H142589   5.039   6.725   0.193  0.3051 -0.5030  1.1879
 7058TIP3    H242590   4.958   6.750   0.318 -0.0928  3.2801  0.3006
 7059TIP3   OH242591   5.639   4.583  14.162 -0.3363  0.4844  0.4661
 7059TIP3    H142592   5.691   4.598  14.083 -0.1959  0.6071  0.5816
 7059TIP3    H242593   5.551   4.566  14.130 -0.4059  1.1240  0.3120
 7060TIP3   OH242594   4.754   3.425   2.236  0.0639  0.3838 -0.5843
 7060TIP3    H142595   4.797   3.483   2.172  1.3523  4.0167  3.1141
 7060TIP3    H242596   4.663   3.452   2.234  0.4313  1.7970  0.2453
 7061TIP3   OH242597   1.988   3.508   2.636  0.0541  0.2074  0.6902
 7061TIP3    H142598   2.050   3.574   2.603  0.2834  0.0070  0.7190
 7061TIP3    H242599   2.042   3.448   2.687 -0.1784  0.0747  0.7782
 7062TIP3   OH242600   0.986   1.899   1.138 -0.4985  0.0754 -0.0144
 7062TIP3    H142601   1.033   1.972   1.098 -0.9287  0.5896  0.3929
 7062TIP3    H242602   0.908   1.888   1.085 -0.2047 -0.4022 -0.3529
 7063TIP3   OH242603   6.262   4.858  12.153 -0.1234 -0.1010 -0.3042
 7063TIP3    H142604   6.189   4.851  12.091  1.5656 -0.3519 -2.3630
 7063TIP3    H242605   6.339   4.835  12.102  1.3124 -0.8610  2.0805
 7064TIP3   OH242606   5.781   4.944  11.646  0.2070  0.0513 -0.4603
 7064TIP3    H142607   5.835   4.976  11.574 -1.5058  1.0570 -1.3709
 7064TIP3    H242608   5.693   4.939  11.609 -0.8048  0.9744  1.6609
 7065TIP3   OH242609   2.503   4.747  14.681  0.3580  0.0542 -0.6857
 7065TIP3    H142610   2.450   4.673  14.653 -0.3771  0.6713 -0.9666
 7065TIP3    H242611   2.513   4.736  14.775  0.9023 -0.8085 -0.8397
 7066TIP3   OH242612   2.256   5.649  13.394  0.1075 -0.1586 -0.2918
 7066TIP3    H142613   2.193   5.720  13.379 -2.2027 -1.6209  1.7097
 7066TIP3    H242614   2.256   5.600  13.312  0.5413  1.2323 -1.1551
 7067TIP3   OH242615   3.450   3.950   1.840 -0.5081 -0.1855 -0.4167
 7067TIP3    H142616   3.379   3.887   1.826  1.0335 -1.9633 -0.5296
 7067TIP3    H242617   3.504   3.910   1.909 -0.1815  1.6470  0.4474
 7068TIP3   OH242618   5.474   1.490   0.108 -0.1512 -0.5211  0.2791
 7068TIP3    H142619   5.439   1.453   0.027  0.1717  0.3026 -0.2472
 7068TIP3    H242620   5.434   1.577   0.114 -0.9748 -0.9554  1.5452
 7069TIP3   OH242621   3.964   5.883   4.388  0.1525  0.0538 -0.2558
 7069TIP3    H142622   3.930   5.935   4.461  2.1744  1.1711 -0.0140
 7069TIP3    H242623   3.905   5.901   4.315 -0.4689  0.9351  0.4438
 7070TIP3   OH242624   2.293   5.943  15.224 -0.0136  0.3776 -0.0108
 7070TIP3    H142625   2.198   5.945  15.209 -0.1919  1.1489  1.0326
 7070TIP3    H242626   2.323   6.029  15.194  0.3113  0.2436 -0.0686
 7071TIP3   OH242627   4.417   5.475   5.526  0.1789 -0.1646  0.6521
 7071TIP3    H142628   4.447   5.442   5.441 -2.2574 -1.5606  0.2579
 7071TIP3    H242629   4.497   5.477   5.579  1.2993 -2.1699 -0.7762
 7072TIP3   OH242630   6.060   3.061   3.589 -0.0624  0.3616 -0.5616
 7072TIP3    H142631   6.040   2.978   3.631  2.4147 -0.4192 -0.7404
 7072TIP3    H242632   6.100   3.114   3.658 -0.3970  0.9056 -0.7768
 7073TIP3   OH242633   0.499   0.575  15.241 -0.4103  0.1576  0.2718
 7073TIP3    H142634   0.447   0.587  15.320  0.2911  0.2561  0.7247
 7073TIP3    H242635   0.438   0.537  15.178 -0.7757 -0.6522  1.0952
 7074TIP3   OH242636   1.864   4.608   0.044 -0.0035  0.1872 -0.4237
 7074TIP3    H142637   1.783   4.619  -0.005  0.1584 -0.2542 -0.8040
 7074TIP3    H242638   1.849   4.531   0.099 -0.0747  0.4997  0.0003
 7075TIP3   OH242639   3.695   2.163  11.024  0.1466  0.4056  0.9463
 7075TIP3    H142640   3.670   2.253  11.003  0.5138  0.4239  0.5763
 7075TIP3    H242641   3.785   2.155  10.992 -0.2991 -0.4627 -0.1647
 7076TIP3   OH242642   1.012   0.092  15.313 -0.5342 -0.2972  0.0255
 7076TIP3    H142643   0.971   0.036  15.379 -1.9289  0.1221 -0.4409
 7076TIP3    H242644   1.021   0.035  15.236 -0.2615 -0.3788  0.1164
 7077TIP3   OH242645   0.817   3.459  14.288 -0.0405  0.0627 -0.6341
 7077TIP3    H142646   0.883   3.392  14.308  1.3731  0.2576 -4.1092
 7077TIP3    H242647   0.853   3.540  14.324  0.1158 -0.3430  0.1505
 7078TIP3   OH242648   4.052   5.045  14.213  0.2752 -0.4545  0.2703
 7078TIP3    H142649   4.137   5.073  14.179  0.5337 -1.5693 -0.0402
 7078TIP3    H242650   3.999   5.026  14.135  0.4490 -1.7898  0.4583
 7079TIP3   OH242651   3.813   5.482  16.022 -0.0302  0.0936 -0.4165
 7079TIP3    H142652   3.822   5.573  15.996  0.4437 -0.0414 -0.7308
 7079TIP3    H242653   3.740   5.482  16.084  0.4000  0.7965  0.1158
 7080TIP3   OH242654   1.114   0.119   3.392  0.6391  0.2687  0.3210
 7080TIP3    H142655   1.153   0.041   3.431 -0.2120 -1.0729 -1.3611
 7080TIP3    H242656   1.153   0.125   3.306 -0.6904  0.5852 -0.2882
 7081TIP3   OH242657   6.057   0.134   0.044  0.3219 -0.1289  0.3795
 7081TIP3    H142658   5.994   0.172   0.105  0.3010  0.3317  0.0756
 7081TIP3    H242659   6.004   0.086  -0.019  0.2012  0.9825 -0.3874
 7082TIP3   OH242660   5.421   0.630   5.883 -0.2398 -0.2071  0.6001
 7082TIP3    H142661   5.348   0.571   5.861 -1.7720  1.8274 -0.0141
 7082TIP3    H242662   5.419   0.636   5.979 -1.1716  0.1552  0.5665
 7083TIP3   OH242663   2.078   2.444   2.888 -0.3245 -0.1103 -0.3061
 7083TIP3    H142664   2.153   2.423   2.944  0.1702  0.2738 -0.8158
 7083TIP3    H242665   2.083   2.539   2.877 -0.2180 -0.2229 -1.2883
 7084TIP3   OH242666   1.477   6.650   3.644  0.0306 -0.3375  0.1717
 7084TIP3    H142667   1.440   6.669   3.730  0.2877  1.4876 -0.0829
 7084TIP3    H242668   1.562   6.611   3.663 -0.6378 -1.6153  0.7260
 7085TIP3   OH242669   4.469   2.251  13.271  0.2187  0.3478 -0.9125
 7085TIP3    H142670   4.434   2.184  13.331  0.5942  3.1735  2.8542
 7085TIP3    H242671   4.564   2.235  13.272  0.1517 -0.1026 -1.4450
 7086TIP3   OH242672   6.551   2.178   1.538 -0.4566  0.6420 -0.4016
 7086TIP3    H142673   6.543   2.231   1.458 -0.9348 -0.1545 -0.9008
 7086TIP3    H242674   6.645   2.161   1.546 -0.3952  0.8028 -0.7487
 7087TIP3   OH242675   2.062   2.271   0.529 -0.4265  0.3679 -0.1229
 7087TIP3    H142676   2.117   2.334   0.481 -0.4016  0.6431  0.2660
 7087TIP3    H242677   2.114   2.191   0.532 -0.9823 -0.1090 -1.7761
 7088TIP3   OH242678   6.612   2.810  16.597 -0.0313 -0.4656  0.0908
 7088TIP3    H142679   6.553   2.738  16.620 -0.9530 -0.4180 -1.9154
 7088TIP3    H242680   6.575   2.847  16.517  1.5397  0.9843 -0.0279
 7089TIP3   OH242681   6.163   1.322  12.077  0.2519  0.2653 -0.0140
 7089TIP3    H142682   6.166   1.309  11.983 -1.3687  0.9758 -0.1972
 7089TIP3    H242683   6.172   1.234  12.113  1.2413  0.0294 -0.8092
 7090TIP3   OH242684   4.423   1.036  15.324 -0.3878  0.2453  0.2067
 7090TIP3    H142685   4.456   1.003  15.407 -0.4308 -0.1366  0.0762
 7090TIP3    H242686   4.495   1.087  15.287 -0.0652 -0.2965  0.0819
 7091TIP3   OH242687   1.212   5.310   2.113 -0.2812 -0.1361 -0.2744
 7091TIP3    H142688   1.170   5.351   2.038 -1.7786  0.0704  0.6312
 7091TIP3    H242689   1.145   5.311   2.182  1.2802  0.3787  1.3162
 7092TIP3   OH242690   4.723   3.996  11.782 -0.2485 -0.0217  0.3353
 7092TIP3    H142691   4.778   3.921  11.805  0.8425  0.0573 -1.7812
 7092TIP3    H242692   4.653   3.958  11.729 -0.8999  0.2028  1.0210
 7093TIP3   OH242693   1.319   5.821   4.413  0.1155  0.1939  0.1112
 7093TIP3    H142694   1.388   5.791   4.355  0.0045  2.1578 -1.0905
 7093TIP3    H242695   1.261   5.744   4.423  0.8688 -0.5785 -1.2404
 7094TIP3   OH242696   1.686   2.736  11.518 -0.1336  0.0104 -0.6602
 7094TIP3    H142697   1.642   2.785  11.449 -1.1842  1.1740  0.7626
 7094TIP3    H242698   1.629   2.746  11.595  0.7005 -1.6954  0.2437
 7095TIP3   OH242699   6.012   0.654  11.529 -0.2135  0.3254  0.6115
 7095TIP3    H142700   5.973   0.593  11.592  0.5709 -0.7121  0.1193
 7095TIP3    H242701   6.106   0.641  11.537 -0.0265  1.4693  0.4657
 7096TIP3   OH242702   4.494   1.905  12.476 -0.2595 -0.3919 -0.1662
 7096TIP3    H142703   4.400   1.890  12.483 -0.4097  0.2719 -0.6162
 7096TIP3    H242704   4.522   1.853  12.401 -0.6133  0.8032 -1.1675
 7097TIP3   OH242705   0.523   2.465   2.572  0.0973  0.2633 -0.1773
 7097TIP3    H142706   0.598   2.459   2.631 -0.7724 -1.0817  0.8596
 7097TIP3    H242707   0.541   2.401   2.503 -0.1845 -0.2302  0.1992
 7098TIP3   OH242708   3.972   3.719  16.125  0.4425  0.1195  0.4373
 7098TIP3    H142709   3.890   3.691  16.083  0.6235 -1.4008  1.0377
 7098TIP3    H242710   3.945   3.783  16.191 -0.2966 -0.5595  0.8011
 7099TIP3   OH242711   2.900   3.860   2.796 -0.0635  0.2809 -0.0382
 7099TIP3    H142712   2.901   3.916   2.717  0.7552  0.6641  0.2327
 7099TIP3    H242713   2.906   3.922   2.869 -1.5974 -0.0202  0.3756
 7100TIP3   OH242714   5.784   1.893   1.620  0.1517  0.3178 -0.1438
 7100TIP3    H142715   5.804   1.913   1.529  1.4296  0.2411  0.0894
 7100TIP3    H242716   5.826   1.809   1.636  3.0203  1.8651  1.3972
 7101TIP3   OH242717   4.615   5.194   1.374  0.2867  0.1288 -0.2894
 7101TIP3    H142718   4.664   5.112   1.366  1.1614  0.6773 -0.6884
 7101TIP3    H242719   4.539   5.181   1.317  0.4890 -0.3490 -0.4604
 7102TIP3   OH242720   2.749   1.521   1.178 -0.1241  0.1016 -0.1270
 7102TIP3    H142721   2.657   1.533   1.155 -0.6670  1.1267  2.2777
 7102TIP3    H242722   2.750   1.438   1.226  0.4606 -0.5399 -1.2142
 7103TIP3   OH242723   6.655   1.298  12.136 -0.7574  0.2134 -0.1863
 7103TIP3    H142724   6.669   1.236  12.207 -1.8031 -0.7536 -0.7797
 7103TIP3    H242725   6.742   1.310  12.097 -0.3883 -0.1782  0.5016
 7104TIP3   OH242726   0.932   1.452  12.384 -0.1393 -0.2148 -0.0223
 7104TIP3    H142727   0.863   1.386  12.378  0.0978 -0.5168  0.4606
 7104TIP3    H242728   1.004   1.417  12.331 -1.1416  1.1603 -2.4531
 7105TIP3   OH242729   1.659   0.903  13.205 -0.0025  0.3425  0.1600
 7105TIP3    H142730   1.603   0.972  13.170 -2.9157 -1.2033  1.4535
 7105TIP3    H242731   1.685   0.935  13.292 -3.6621 -1.1048  1.9915
 7106TIP3   OH242732   5.955   5.023   4.785 -0.4882 -0.2709  0.2756
 7106TIP3    H142733   6.033   5.073   4.759  0.1860 -1.5006 -0.1175
 7106TIP3    H242734   5.959   5.020   4.880 -0.7295  0.6989  0.3340
 7107TIP3   OH242735   4.717   3.596  14.460 -0.3390  0.3295 -0.4336
 7107TIP3    H142736   4.730   3.652  14.536  1.2668  0.3970 -0.7277
 7107TIP3    H242737   4.702   3.509  14.497 -3.0153  0.9092  0.0280
 7108TIP3   OH242738   6.276   3.077  14.606  0.5440  0.4600  0.3153
 7108TIP3    H142739   6.364   3.109  14.625  1.1117 -1.6279  1.4500
 7108TIP3    H242740   6.287   3.024  14.527  0.4503 -0.2956  0.7999
 7109TIP3   OH242741   0.526   0.991  12.544  0.6910  0.1370 -0.4530
 7109TIP3    H142742   0.477   0.951  12.616  0.5903  0.2795 -0.4406
 7109TIP3    H242743   0.605   0.938  12.536  1.0867  0.6043  0.2839
 7110TIP3   OH242744   2.078   3.622   1.181  0.9045  0.2606 -0.1914
 7110TIP3    H142745   2.064   3.563   1.255  1.0706 -0.3897 -0.6806
 7110TIP3    H242746   2.172   3.618   1.163  0.5596 -1.4113 -1.9292
 7111TIP3   OH242747   3.648   2.628  12.819 -0.1851 -0.1691 -0.0220
 7111TIP3    H142748   3.685   2.714  12.840 -1.4114  0.5496 -0.6979
 7111TIP3    H242749   3.711   2.565  12.855 -0.5661  0.9584  2.9743
 7112TIP3   OH242750   5.614   2.505  13.816 -0.8986 -0.0902  0.0861
 7112TIP3    H142751   5.584   2.428  13.865 -0.7770 -0.2728 -0.1279
 7112TIP3    H242752   5.606   2.480  13.724 -2.3962  0.7231 -0.0387
 7113TIP3   OH242753   5.847   0.420  11.279  0.4210 -0.5235 -0.4522
 7113TIP3    H142754   5.837   0.381  11.366 -1.5579  0.3598 -0.2412
 7113TIP3    H242755   5.824   0.349  11.219  0.7485 -0.8250 -0.2305
 7114TIP3   OH242756   1.561   5.682   3.529  0.1334 -0.0693 -0.7558
 7114TIP3    H142757   1.485   5.646   3.481  0.1270  3.0568 -3.4240
 7114TIP3    H242758   1.637   5.651   3.479  0.2076  1.8250 -1.9200
 7115TIP3   OH242759   2.418   2.445   5.079  0.2950 -0.3940 -0.2831
 7115TIP3    H142760   2.345   2.392   5.049  0.0056 -0.1586  0.0024
 7115TIP3    H242761   2.386   2.488   5.158 -0.3631  2.2188 -1.8639
 7116TIP3   OH242762   4.984   2.422   3.749  0.0976 -0.0665  0.2937
 7116TIP3    H142763   5.013   2.493   3.807  0.0447  0.3814 -0.2297
 7116TIP3    H242764   4.900   2.394   3.786 -0.1332  0.4910  0.2018
 7117TIP3   OH242765   5.550   4.470  12.456  0.1378  0.3124  0.2177
 7117TIP3    H142766   5.490   4.400  12.484  0.5482  0.3932  1.3472
 7117TIP3    H242767   5.500   4.520  12.391 -0.6646 -0.1942  0.4310
 7118TIP3   OH242768   2.328   1.303  12.170  0.2783 -0.0983 -0.0260
 7118TIP3    H142769   2.250   1.304  12.225 -1.1897  0.2806 -1.9898
 7118TIP3    H242770   2.373   1.222  12.191 -0.7089 -0.3719  1.0711
 7119TIP3   OH242771   4.709   5.507  13.551 -0.3265 -0.9538 -0.3482
 7119TIP3    H142772   4.626   5.460  13.542 -1.9687  1.8496 -1.3436
 7119TIP3    H242773   4.690   5.574  13.617  1.1707 -0.3237 -0.5347
 7120TIP3   OH242774   2.824   6.749  15.765 -0.3348  0.8341  0.3713
 7120TIP3    H142775   2.912   6.712  15.772 -0.7388 -1.2892 -3.3342
 7120TIP3    H242776   2.838   6.842  15.745  1.0386  0.5560 -0.0278
 7121TIP3   OH242777   2.638   0.222   0.593  0.4024 -0.2724 -0.4431
 7121TIP3    H142778   2.652   0.301   0.541 -1.9571 -0.4841 -1.5357
 7121TIP3    H242779   2.603   0.253   0.676 -1.2756 -0.1403 -1.1604
 7122TIP3   OH242780   4.474   4.587  10.678 -0.4408  1.0456 -0.3128
 7122TIP3    H142781   4.489   4.514  10.618  2.8888  1.5669 -0.2939
 7122TIP3    H242782   4.390   4.624  10.649 -2.2543 -2.6099 -0.3605
 7123TIP3   OH242783   5.062   3.473  16.329  0.2383  0.5212  0.0364
 7123TIP3    H142784   5.017   3.514  16.403  0.8621  2.2899 -0.5194
 7123TIP3    H242785   4.996   3.471  16.260  0.5673  1.8949 -0.3563
 7124TIP3   OH242786   1.223   6.582  15.654 -0.3149 -0.1144 -0.0719
 7124TIP3    H142787   1.228   6.659  15.597  0.4456  0.6164  0.9265
 7124TIP3    H242788   1.311   6.544  15.651 -0.7733 -1.1426 -0.8006
 7125TIP3   OH242789   6.261   1.905   0.375 -0.3589  0.2488  0.1482
 7125TIP3    H142790   6.225   1.895   0.287 -0.6235  0.5334  0.2223
 7125TIP3    H242791   6.191   1.877   0.433  0.0599 -0.6168  0.2552
 7126TIP3   OH242792   3.698   0.532  12.957 -0.1669 -0.3352  0.2743
 7126TIP3    H142793   3.687   0.476  12.881 -1.1436 -0.6977  0.6660
 7126TIP3    H242794   3.685   0.474  13.032  0.3580  0.1025  0.7068
 7127TIP3   OH242795   1.539   2.863   5.612 -0.2720  0.4824  0.4004
 7127TIP3    H142796   1.564   2.875   5.703  1.2724  1.5588 -0.1276
 7127TIP3    H242797   1.615   2.822   5.571 -0.4000  1.2958 -0.6935
 7128TIP3   OH242798   3.801   0.500  17.015  0.4557  0.1828 -0.3864
 7128TIP3    H142799   3.721   0.482  17.063  0.0770 -0.8553 -1.3675
 7128TIP3    H242800   3.863   0.530  17.082 -1.0402  2.0611  0.2221
 7129TIP3   OH242801   0.805   4.748  16.540 -0.5312  0.6872  0.1479
 7129TIP3    H142802   0.750   4.670  16.534  0.1755 -0.0597  2.3598
 7129TIP3    H242803   0.893   4.718  16.518 -0.2678  0.8409  0.9334
 7130TIP3   OH242804   2.093   2.108  14.638 -0.1996 -0.3159 -0.2376
 7130TIP3    H142805   2.028   2.155  14.691  0.0262  1.4792 -1.4982
 7130TIP3    H242806   2.041   2.049  14.584 -0.6231 -0.2918  0.1322
 7131TIP3   OH242807   0.682   3.311  11.053  0.2714  0.8692 -0.6066
 7131TIP3    H142808   0.616   3.336  10.989  1.6621  0.5148 -2.2428
 7131TIP3    H242809   0.748   3.379  11.048  1.4459 -0.2634 -1.1512
 7132TIP3   OH242810   4.462   6.455  13.915 -0.3128 -0.1287  0.4287
 7132TIP3    H142811   4.385   6.410  13.951 -1.7320  1.6005 -0.2939
 7132TIP3    H242812   4.440   6.470  13.824  0.5534  1.1131  0.4039
 7133TIP3   OH242813   3.575   2.067   1.993 -0.2735  0.1063 -0.0079
 7133TIP3    H142814   3.636   2.001   1.960  1.3002  1.1777  0.6376
 7133TIP3    H242815   3.597   2.075   2.086 -1.7443  0.1961  0.3584
 7134TIP3   OH242816   3.939   6.051  13.181  0.2198 -0.2633  0.2979
 7134TIP3    H142817   3.868   6.024  13.240  0.4940 -1.1118  0.2606
 7134TIP3    H242818   3.976   6.129  13.222  0.1675 -0.6300  1.0603
 7135TIP3   OH242819   2.425   2.859   3.723  0.9157 -0.0424 -0.2309
 7135TIP3    H142820   2.491   2.795   3.747 -2.3584 -4.0630 -0.7596
 7135TIP3    H242821   2.427   2.861   3.627  0.7595  0.3681 -0.2262
 7136TIP3   OH242822   1.860   5.214   2.805  0.6685  0.4467  0.3908
 7136TIP3    H142823   1.780   5.169   2.777  0.3666  0.5205  1.1073
 7136TIP3    H242824   1.919   5.206   2.731 -0.1664  0.7916 -0.3326
 7137TIP3   OH242825   2.095   4.292  12.082  0.2014  0.2307  0.2254
 7137TIP3    H142826   2.096   4.380  12.046 -2.4567  1.4726  2.8473
 7137TIP3    H242827   2.160   4.294  12.153  0.6003 -0.1592 -0.1193
 7138TIP3   OH242828   3.399   0.263  16.291  0.5088  0.1638 -0.3155
 7138TIP3    H142829   3.473   0.272  16.351  0.7979 -0.7388 -0.5114
 7138TIP3    H242830   3.419   0.184  16.240 -1.2232 -0.8759  0.5138
 7139TIP3   OH242831   3.300   2.700   1.209 -0.2906  0.7116 -0.3226
 7139TIP3    H142832   3.284   2.789   1.240  0.1416  0.7180 -0.0997
 7139TIP3    H242833   3.214   2.666   1.187 -0.4529  1.2064 -0.4633
 7140TIP3   OH242834   3.176   0.775   3.535 -0.3277  0.0119 -0.2807
 7140TIP3    H142835   3.166   0.866   3.508  0.4345 -0.2858 -1.6752
 7140TIP3    H242836   3.106   0.761   3.599 -0.1025  1.7144  0.3783
 7141TIP3   OH242837   3.927   5.818  15.178 -0.0356 -0.4957 -0.2611
 7141TIP3    H142838   3.896   5.838  15.266 -0.6557 -0.2839 -0.5224
 7141TIP3    H242839   3.947   5.725  15.180 -2.0937 -0.9911 -0.4768
 7142TIP3   OH242840   6.080   5.276  10.531 -0.2315  0.2740  0.2764
 7142TIP3    H142841   6.003   5.248  10.481 -0.8266  2.8297 -0.3871
 7142TIP3    H242842   6.114   5.195  10.571 -1.2146 -1.4839 -2.2015
 7143TIP3   OH242843   0.807   3.502  16.181  0.1195  0.5912  0.1671
 7143TIP3    H142844   0.838   3.572  16.124 -0.0870 -0.1401 -0.8833
 7143TIP3    H242845   0.857   3.513  16.262  1.3416  0.9159 -0.6023
 7144TIP3   OH242846   6.597   4.209   5.417  0.5784 -0.0377  0.7125
 7144TIP3    H142847   6.667   4.259   5.374 -0.5580  0.8028 -0.2077
 7144TIP3    H242848   6.553   4.271   5.474 -1.7032  0.4951 -1.4468
 7145TIP3   OH242849   6.108   2.179   5.699 -0.2202 -0.0220  0.2770
 7145TIP3    H142850   6.150   2.242   5.758 -1.8902 -0.2467  1.7676
 7145TIP3    H242851   6.117   2.095   5.744 -1.6214 -0.1775  0.2870
 7146TIP3   OH242852   4.451   2.530   5.915 -0.4507 -0.0431 -0.0818
 7146TIP3    H142853   4.435   2.483   5.996  1.5378 -2.2402 -0.8548
 7146TIP3    H242854   4.490   2.613   5.942  0.7334 -0.9816  1.2126
 7147TIP3   OH242855   0.686   0.717   0.535 -0.0720  0.5183  0.0470
 7147TIP3    H142856   0.727   0.770   0.604  0.6281 -0.7654  0.6613
 7147TIP3    H242857   0.606   0.683   0.576  1.1216 -1.5254  0.8570
 7148TIP3   OH242858   4.490   6.539   5.705 -0.0286 -0.7854  0.1100
 7148TIP3    H142859   4.419   6.583   5.660  1.5148  2.1709  0.3547
 7148TIP3    H242860   4.560   6.533   5.640  1.1439  0.7848  1.1477
 7149TIP3   OH242861   6.696   3.024   5.249  0.0315  0.5136 -0.0561
 7149TIP3    H142862   6.630   2.979   5.197  0.3340  0.4013 -0.3467
 7149TIP3    H242863   6.694   2.980   5.334 -0.6551  0.8774  0.1192
 7150TIP3   OH242864   6.072   0.299   5.409 -0.5800 -0.3463 -0.2950
 7150TIP3    H142865   6.134   0.250   5.355 -1.6605 -1.6553 -0.4166
 7150TIP3    H242866   5.993   0.304   5.356 -1.0486  0.0114  0.4227
 7151TIP3   OH242867   3.952   2.435  15.750 -0.5094 -0.2129 -0.2741
 7151TIP3    H142868   3.982   2.379  15.822 -1.2537  1.1392  1.1420
 7151TIP3    H242869   4.025   2.437  15.689 -0.0256 -1.7670  0.1907
 7152TIP3   OH242870   4.851   1.139  15.039 -0.4665 -0.3117 -0.4916
 7152TIP3    H142871   4.849   1.228  15.075 -1.8752  0.3618 -2.0541
 7152TIP3    H242872   4.937   1.132  14.997  0.0309 -0.0530  0.4575
 7153TIP3   OH242873   5.016   0.290   5.380  0.2653  0.6322  0.3898
 7153TIP3    H142874   5.005   0.289   5.285  1.2510 -1.5095  0.2277
 7153TIP3    H242875   5.110   0.302   5.392  0.5782 -1.8433  0.9340
 7154TIP3   OH242876   0.178   1.899   5.157  0.3323 -0.0021 -0.2346
 7154TIP3    H142877   0.120   1.835   5.114 -1.5787  2.4738 -1.6174
 7154TIP3    H242878   0.119   1.965   5.192  2.1640  0.3959  2.3417
 7155TIP3   OH242879   0.459   2.761   4.339 -0.5125  0.3667 -0.2705
 7155TIP3    H142880   0.392   2.820   4.373  0.4735  1.3832 -0.0475
 7155TIP3    H242881   0.457   2.774   4.244 -1.0904 -0.1224 -0.3324
 7156TIP3   OH242882   6.545   5.779   5.538  0.4227 -0.1891 -0.5717
 7156TIP3    H142883   6.501   5.864   5.530  0.0101 -0.1380  1.7037
 7156TIP3    H242884   6.601   5.788   5.615  0.8654 -1.7809 -0.6770
 7157TIP3   OH242885   1.221   5.886   0.869  0.0949  0.2458  0.1365
 7157TIP3    H142886   1.273   5.806   0.877 -0.3628 -0.1956 -1.0461
 7157TIP3    H242887   1.170   5.890   0.950  0.2954 -0.5321  0.3041
 7158TIP3   OH242888   5.888   4.081   1.143 -0.5585 -0.3840 -0.1069
 7158TIP3    H142889   5.932   4.100   1.225  0.3703 -0.5936 -0.5384
 7158TIP3    H242890   5.826   4.153   1.131 -0.5233 -0.2243  0.6469
 7159TIP3   OH242891   1.672   6.441   0.876  0.0514  0.3210  0.1023
 7159TIP3    H142892   1.650   6.349   0.892 -0.3922  0.0365 -1.8992
 7159TIP3    H242893   1.593   6.478   0.836 -0.3518  2.0321  2.2304
 7160TIP3   OH242894   0.286   3.806  13.961 -0.5065  0.6036  0.6955
 7160TIP3    H142895   0.320   3.894  13.949 -0.3335  0.5800  1.0181
 7160TIP3    H242896   0.354   3.760  14.010  0.0148 -0.1040 -0.6485
 7161TIP3   OH242897   2.162   1.999  12.708 -0.4257 -0.5806 -0.4476
 7161TIP3    H142898   2.138   2.060  12.638  0.2969  1.1355  0.7326
 7161TIP3    H242899   2.185   2.055  12.782  2.3456 -2.1859  0.0724
 7162TIP3   OH242900   6.073   0.582  12.220  0.0974  0.3641  0.1293
 7162TIP3    H142901   6.050   0.590  12.313 -0.2371  0.7894  0.0132
 7162TIP3    H242902   6.167   0.565  12.220 -0.0560 -0.5384  0.5826
 7163TIP3   OH242903   1.522   1.907  15.387  0.1982  0.3333  0.2423
 7163TIP3    H142904   1.444   1.933  15.339  0.5833  0.1857 -0.4738
 7163TIP3    H242905   1.587   1.974  15.366  0.2075  0.5841  1.0203
 7164TIP3   OH242906   3.069   5.557  12.645 -0.3910  0.2140 -0.0570
 7164TIP3    H142907   3.031   5.531  12.562  2.8748 -0.7515 -1.4241
 7164TIP3    H242908   3.081   5.475  12.693 -2.8079  0.8108  1.7655
 7165TIP3   OH242909   3.880   5.142  14.017 -0.5335 -0.4244 -0.5846
 7165TIP3    H142910   3.789   5.114  14.030 -0.2366 -1.9755 -1.6039
 7165TIP3    H242911   3.873   5.236  13.996 -1.7738 -0.2066  0.6446
 7166TIP3   OH242912   2.150   2.048  11.696 -0.0070 -0.1435 -0.6288
 7166TIP3    H142913   2.058   2.061  11.674  0.1374  0.7825 -0.7533
 7166TIP3    H242914   2.151   1.972  11.753 -0.9592  0.3692  0.1033
 7167TIP3   OH242915   2.549   4.756  12.743 -0.1068 -0.4582 -0.0025
 7167TIP3    H142916   2.457   4.769  12.719 -0.2498  0.4296  0.9374
 7167TIP3    H242917   2.555   4.790  12.832  1.7178  1.9872 -0.9541
 7168TIP3   OH242918   0.438   6.496  16.183  0.2510  0.0223  0.5451
 7168TIP3    H142919   0.447   6.446  16.264  0.7245 -0.9703 -0.1032
 7168TIP3    H242920   0.418   6.431  16.117 -4.6428  1.2140  0.5017
 7169TIP3   OH242921   0.117   3.147   4.225  0.0048 -0.4007 -0.5479
 7169TIP3    H142922   0.084   3.176   4.310  0.6174 -1.0578 -0.0743
 7169TIP3    H242923   0.046   3.167   4.164 -0.6512 -0.3812  0.2012
 7170TIP3   OH242924   6.799   2.049  16.639  0.2723  0.6548  0.2858
 7170TIP3    H142925   6.828   2.014  16.555 -1.0619  2.3799 -0.9858
 7170TIP3    H242926   6.872   2.103  16.669  0.1459  1.3505 -0.6178
 7171TIP3   OH242927   0.135   2.243  17.155  0.5674 -0.5950  0.0560
 7171TIP3    H142928   0.091   2.206  17.079  0.5815 -0.0135 -0.2390
 7171TIP3    H242929   0.132   2.173  17.220 -1.7571 -0.2507  0.4298
 7172TIP3   OH242930   3.267   2.949  11.523 -0.6829  0.1223  0.2605
 7172TIP3    H142931   3.321   2.958  11.445 -0.9884 -2.3421 -0.3350
 7172TIP3    H242932   3.191   3.005  11.507  0.4675  1.6758  0.0088
 7173TIP3   OH242933   4.781   4.605   5.334 -0.1685 -0.0401 -0.9052
 7173TIP3    H142934   4.803   4.555   5.412 -0.0803  0.9458 -0.2828
 7173TIP3    H242935   4.741   4.541   5.275  0.0236 -0.8552 -0.1687
 7174TIP3   OH242936   4.297   5.501   1.169 -0.1533 -0.2571 -0.3482
 7174TIP3    H142937   4.290   5.490   1.075 -2.3798 -0.4650 -0.2104
 7174TIP3    H242938   4.365   5.567   1.181 -0.8510  0.8415 -2.1664
 7175TIP3   OH242939   3.296   5.323  16.250 -0.4226 -0.1043 -0.2595
 7175TIP3    H142940   3.293   5.419  16.255  1.4620 -0.0851  1.5624
 7175TIP3    H242941   3.353   5.305  16.175 -1.4007  0.1476 -1.0941
 7176TIP3   OH242942   4.107   5.299  10.629  0.1873  0.0582 -0.2685
 7176TIP3    H142943   4.049   5.356  10.679  1.3446  0.2286  0.9241
 7176TIP3    H242944   4.108   5.216  10.677  0.0562 -0.3226 -0.9065
 7177TIP3   OH242945   4.657   4.159  16.288  0.3600  0.3899 -0.1396
 7177TIP3    H142946   4.740   4.197  16.318  0.6594 -0.1992 -0.2237
 7177TIP3    H242947   4.590   4.218  16.324  0.7276 -0.0489  1.3489
 7178TIP3   OH242948   2.881   4.295   5.482 -0.2666 -0.0750  0.4329
 7178TIP3    H142949   2.861   4.387   5.500  1.8745  0.8309 -1.2824
 7178TIP3    H242950   2.799   4.259   5.448 -1.8331  0.4699  3.3664
 7179TIP3   OH242951   4.954   1.169   2.386  0.2992 -0.5931 -0.2408
 7179TIP3    H142952   4.883   1.112   2.414 -0.1931  0.0175 -0.2081
 7179TIP3    H242953   5.023   1.110   2.355 -1.1192 -1.1993 -2.4832
 7180TIP3   OH242954   0.935   5.430  13.396 -0.0852 -0.0990  0.1867
 7180TIP3    H142955   1.011   5.425  13.338 -0.4520 -0.1919 -0.2974
 7180TIP3    H242956   0.962   5.387  13.477  0.2197 -0.5530 -0.1547
 7181TIP3   OH242957   6.112   5.938  16.540  0.3588  0.1880  0.1006
 7181TIP3    H142958   6.180   5.996  16.505 -0.0580  0.5069 -0.1921
 7181TIP3    H242959   6.095   5.875  16.469  0.9554 -0.4221  0.4937
 7182TIP3   OH242960   6.771   1.946   4.524  0.2693  0.6877 -0.3044
 7182TIP3    H142961   6.840   1.937   4.458  1.3678  0.8403  0.7640
 7182TIP3    H242962   6.693   1.972   4.475 -0.0337 -2.8993 -2.0305
 7183TIP3   OH242963   4.373   0.665   1.129 -0.2783  0.6769  0.0165
 7183TIP3    H142964   4.367   0.602   1.056  0.4544 -0.2026  0.6909
 7183TIP3    H242965   4.467   0.678   1.142 -0.4181  1.7144  0.0775
 7184TIP3   OH242966   4.760   2.225  13.191  0.2615 -0.2949 -0.4365
 7184TIP3    H142967   4.812   2.266  13.261  1.0391  1.9209 -2.1921
 7184TIP3    H242968   4.808   2.145  13.169 -0.3681 -1.4192  1.9547
 7185TIP3   OH242969   6.186   2.831   5.259 -0.0939 -0.2739  0.3830
 7185TIP3    H142970   6.178   2.906   5.317 -0.1077  0.7408 -0.8945
 7185TIP3    H242971   6.166   2.865   5.172  0.9108 -1.5239 -0.3784
 7186TIP3   OH242972   1.215   1.924   6.536  0.7162 -0.2114  0.4760
 7186TIP3    H142973   1.186   1.894   6.449  0.0071  1.7640 -0.0096
 7186TIP3    H242974   1.161   1.873   6.597 -1.0114  0.5561 -0.3340
 7187TIP3   OH242975   1.539   5.019   4.673 -0.8900 -0.0800  0.5071
 7187TIP3    H142976   1.495   4.963   4.609 -2.0110  0.9915  0.3093
 7187TIP3    H242977   1.573   4.959   4.739 -2.7364 -0.9458  0.7155
 7188TIP3   OH242978   3.444   3.321  14.461  0.4476  0.1273  0.0980
 7188TIP3    H142979   3.444   3.389  14.528 -0.4549  0.4368 -0.1945
 7188TIP3    H242980   3.517   3.264  14.484  1.2980  1.2625  0.2828
 7189TIP3   OH242981   6.646   2.536  14.252 -0.1511 -0.1370 -0.1987
 7189TIP3    H142982   6.591   2.523  14.329 -0.5643 -0.0437 -0.4732
 7189TIP3    H242983   6.687   2.450  14.238  0.6854  0.1053  0.6909
 7190TIP3   OH242984   1.043   0.469   3.266  0.3633 -0.0946 -0.3389
 7190TIP3    H142985   1.023   0.539   3.205 -0.4381  0.0088  0.0362
 7190TIP3    H242986   1.009   0.390   3.224 -1.3607  0.1447  0.5112
 7191TIP3   OH242987   1.684   5.662   0.490  0.7354 -0.1027  0.1560
 7191TIP3    H142988   1.621   5.724   0.527 -0.8611 -0.8055 -1.2646
 7191TIP3    H242989   1.738   5.715   0.432  2.1783  0.6887  2.0932
 7192TIP3   OH242990   3.758   4.519  16.450 -0.0737  0.9159  0.2245
 7192TIP3    H142991   3.777   4.499  16.358  0.2951  1.3864  0.1957
 7192TIP3    H242992   3.692   4.454  16.475  0.1083  0.5320 -0.2598
 7193TIP3   OH242993   6.094   0.959  14.520 -0.3982 -0.1894  0.6947
 7193TIP3    H142994   6.165   0.895  14.521 -2.5419 -2.7076  0.5366
 7193TIP3    H242995   6.105   1.006  14.437  1.1720 -0.3473  0.7811
 7194TIP3   OH242996   5.452   2.359  12.914  0.3085 -0.1969  0.7738
 7194TIP3    H142997   5.504   2.281  12.935 -1.4962 -1.1557  1.9509
 7194TIP3    H242998   5.449   2.361  12.818 -0.1230 -1.9814  0.7061
 7195TIP3   OH242999   3.883   2.359  13.163 -0.1680 -0.3056  0.6189
 7195TIP3    H143000   3.855   2.446  13.136  0.1621 -0.7231 -1.1841
 7195TIP3    H243001   3.912   2.371  13.254 -1.3462  1.1689  0.8458
 7196TIP3   OH243002   2.619   2.977  12.033 -1.0153 -0.2971 -0.2662
 7196TIP3    H143003   2.651   3.068  12.036  0.3394 -0.6710 -1.7627
 7196TIP3    H243004   2.684   2.927  12.083 -1.0692 -0.6101 -0.5059
 7197TIP3   OH243005   6.061   1.058   3.120 -0.5829 -0.1732 -0.4844
 7197TIP3    H143006   6.052   1.036   3.213  0.9646 -2.3331 -0.7792
 7197TIP3    H243007   5.995   1.005   3.076 -0.1816 -0.4590 -0.7511
 7198TIP3   OH243008   2.973   6.720  14.930  0.0111 -0.4232  0.5724
 7198TIP3    H143009   2.946   6.811  14.946  0.6738 -0.1571  0.2364
 7198TIP3    H243010   2.998   6.688  15.017  0.1508 -0.1534  0.6364
 7199TIP3   OH243011   0.857   5.166   1.297 -0.7691  0.2408  0.0456
 7199TIP3    H143012   0.825   5.103   1.233  0.7047 -1.4632  0.8818
 7199TIP3    H243013   0.847   5.251   1.254  0.3977 -0.8387 -2.5904
 7200TIP3   OH243014   2.144   2.008  12.351  0.5415  0.0818  0.2377
 7200TIP3    H143015   2.231   2.029  12.384  0.4255 -0.2639  0.7768
 7200TIP3    H243016   2.086   2.071  12.393  0.4734  0.0339  0.2158
 7201TIP3   OH243017   3.699   2.543   4.717  0.5049  0.0953 -0.1907
 7201TIP3    H143018   3.695   2.536   4.812  1.6070 -0.2237 -0.1471
 7201TIP3    H243019   3.776   2.597   4.700  1.6358 -1.6400 -0.9268
 7202TIP3   OH243020   0.914   3.257  13.835 -0.0163 -0.0816  0.6352
 7202TIP3    H143021   0.879   3.236  13.748  0.8833 -1.6763  0.6263
 7202TIP3    H243022   0.880   3.188  13.892 -0.3953  0.8159  1.5156
 7203TIP3   OH243023   5.343   3.745  16.282  0.0035  0.3975  0.0430
 7203TIP3    H143024   5.437   3.739  16.264  0.3061  0.5034  1.4674
 7203TIP3    H243025   5.332   3.831  16.322 -0.6216  0.1610  0.3830
 7204TIP3   OH243026   6.506   5.330  14.313 -0.3199  0.8081 -0.2834
 7204TIP3    H143027   6.593   5.355  14.344  0.3501 -0.2813 -1.2108
 7204TIP3    H243028   6.474   5.408  14.267  0.0949  1.2725  0.2018
 7205TIP3   OH243029   5.531   6.097   2.316  0.1900  0.7753  0.3665
 7205TIP3    H143030   5.460   6.088   2.379 -1.4051 -0.0645 -1.4367
 7205TIP3    H243031   5.547   6.007   2.286  0.9371  1.1457 -0.3776
 7206TIP3   OH243032   6.345   3.693  12.946 -0.0217 -0.5468  0.3527
 7206TIP3    H143033   6.313   3.602  12.947 -1.6425 -0.0314  1.7585
 7206TIP3    H243034   6.345   3.718  13.038 -0.7372  1.2437 -0.1006
 7207TIP3   OH243035   0.912   3.352   2.366 -0.3600 -0.1878  0.2235
 7207TIP3    H143036   0.838   3.344   2.306 -0.8246 -0.8130  0.8606
 7207TIP3    H243037   0.939   3.261   2.383  1.4035  0.0613 -1.0173
 7208TIP3   OH243038   5.037   1.821   5.688  0.0017  0.2072 -0.2657
 7208TIP3    H143039   5.098   1.807   5.760  0.6605 -0.0302 -0.8605
 7208TIP3    H243040   5.049   1.913   5.664 -1.4883  0.7869  1.0618
 7209TIP3   OH243041   2.643   0.293  17.042  0.0059 -0.1621 -0.3096
 7209TIP3    H143042   2.711   0.256  17.098  1.5490  0.9916 -1.3129
 7209TIP3    H243043   2.591   0.218  17.014  2.6682 -1.6168 -1.8224
 7210TIP3   OH243044   5.185   1.698   0.011 -0.3731 -0.6422 -0.1332
 7210TIP3    H143045   5.152   1.659  -0.070 -1.4848 -2.2889  1.0454
 7210TIP3    H243046   5.141   1.784   0.015 -1.0532 -0.9447 -0.7920
 7211TIP3   OH243047   0.953   6.104  11.282  0.3409  0.7109 -0.4802
 7211TIP3    H143048   0.891   6.162  11.236 -0.7156  0.7597  0.9368
 7211TIP3    H243049   0.933   6.017  11.249 -2.0188  0.4215  1.4648
 7212TIP3   OH243050   1.369   1.187   5.818 -0.2674  0.2171  0.1056
 7212TIP3    H143051   1.445   1.237   5.787 -1.4054  1.4763 -0.7979
 7212TIP3    H243052   1.390   1.096   5.798  0.1473  0.7382 -2.1048
 7213TIP3   OH243053   2.281   3.207  15.838 -0.9815  0.8854  0.1058
 7213TIP3    H143054   2.297   3.115  15.860 -1.4801  0.9178  0.6427
 7213TIP3    H243055   2.347   3.255  15.888  0.5471  0.7228 -1.6667
 7214TIP3   OH243056   1.151   6.667  16.765 -0.7216  0.3989  0.2695
 7214TIP3    H143057   1.160   6.691  16.673  3.3791  1.5342  0.7875
 7214TIP3    H243058   1.087   6.729  16.800 -0.1228  1.9250 -1.2331
 7215TIP3   OH243059   4.072   0.271   4.935  0.4666  0.1994 -0.4362
 7215TIP3    H143060   4.062   0.181   4.967 -2.6734  0.7702  0.4809
 7215TIP3    H243061   4.081   0.261   4.840 -0.8020 -1.1024 -0.4671
 7216TIP3   OH243062   5.013   2.246   1.724  0.7782  0.1163  0.2567
 7216TIP3    H143063   4.976   2.333   1.711  0.0417 -0.4561 -1.6740
 7216TIP3    H243064   5.108   2.259   1.717  0.8342  1.0718  2.1397
 7217TIP3   OH243065   3.221   2.718  14.424  0.4467 -0.4887 -0.0464
 7217TIP3    H143066   3.198   2.636  14.381 -3.5146  1.0733 -1.3203
 7217TIP3    H243067   3.265   2.769  14.356  1.0012 -0.7239  0.1236
 7218TIP3   OH243068   3.770   5.632  13.827  0.3180 -0.6805  0.0337
 7218TIP3    H143069   3.688   5.649  13.781  0.8428 -0.3017 -0.8033
 7218TIP3    H243070   3.833   5.692  13.787  0.6227  0.2974  1.8768
 7219TIP3   OH243071   6.642   2.679   2.627  0.1119  0.2047 -0.5583
 7219TIP3    H143072   6.648   2.588   2.656  1.5676  1.4327  3.8043
 7219TIP3    H243073   6.729   2.698   2.591 -0.1545 -0.0573 -1.3596
 7220TIP3   OH243074   4.934   0.311  11.571 -0.0286 -0.2254  0.6433
 7220TIP3    H143075   4.887   0.228  11.558  0.1212 -0.5097  1.8262
 7220TIP3    H243076   4.967   0.306  11.661 -0.0035  1.1167  0.7208
 7221TIP3   OH243077   2.294   1.610  10.655  0.0173 -0.7507 -0.7692
 7221TIP3    H143078   2.286   1.705  10.639  2.8856  0.0130  1.5004
 7221TIP3    H243079   2.226   1.591  10.720 -0.5863 -0.3078 -1.2479
 7222TIP3   OH243080   0.706   2.793   6.049 -0.2100 -0.1449 -0.2718
 7222TIP3    H143081   0.725   2.800   6.142 -0.9105  0.2860 -0.1528
 7222TIP3    H243082   0.737   2.876   6.011 -1.4783  0.4282 -0.1259
 7223TIP3   OH243083   6.370   1.465  12.240 -0.4498 -0.2674 -0.4466
 7223TIP3    H143084   6.402   1.485  12.151 -2.2025  1.1882 -0.8175
 7223TIP3    H243085   6.315   1.388  12.229  0.2881 -0.8159 -0.3834
 7224TIP3   OH243086   2.931   4.906   1.500 -0.1434  0.0037  0.0007
 7224TIP3    H143087   2.942   4.814   1.526 -0.0928  0.6074  2.3578
 7224TIP3    H243088   2.837   4.920   1.500 -0.1083  0.2750  0.9480
 7225TIP3   OH243089   0.655   5.261  11.958  0.7682 -0.1021 -0.0120
 7225TIP3    H143090   0.735   5.307  11.987  0.6782  0.9759 -1.3458
 7225TIP3    H243091   0.666   5.253  11.863 -0.8534  0.3474 -0.2560
 7226TIP3   OH243092   1.074   2.430   1.684 -0.3120  0.1100  0.1712
 7226TIP3    H143093   1.028   2.415   1.766  1.3026  0.1791  1.1206
 7226TIP3    H243094   1.062   2.349   1.635  1.2540 -1.1513  1.7630
 7227TIP3   OH243095   2.296   5.478  12.869  0.2958  0.5699 -0.0371
 7227TIP3    H143096   2.332   5.558  12.830  4.0010  0.3144  2.3626
 7227TIP3    H243097   2.249   5.510  12.947 -1.6122  0.5985 -1.1422
 7228TIP3   OH243098   2.123   1.387  12.967  0.0920 -0.0663 -0.2481
 7228TIP3    H143099   2.166   1.302  12.957 -1.2709 -0.7946 -0.1428
 7228TIP3    H243100   2.185   1.439  13.019  0.9734 -0.9618 -0.3671
 7229TIP3   OH243101   3.824   4.018   0.899  0.4692  0.4719  0.2286
 7229TIP3    H143102   3.788   3.972   0.823 -0.2886 -0.3725  1.0600
 7229TIP3    H243103   3.916   4.032   0.879  0.1238  0.8871 -1.1255
 7230TIP3   OH243104   2.804   1.627  16.310  0.1439  0.3242  0.2190
 7230TIP3    H143105   2.825   1.544  16.353 -1.6764 -0.6059 -0.5465
 7230TIP3    H243106   2.865   1.632  16.237 -0.8106 -1.2664 -0.7539
 7231TIP3   OH243107   3.452   6.239   2.341  0.4583  0.2427 -1.0428
 7231TIP3    H143108   3.374   6.201   2.380  0.3388  2.4691  1.1903
 7231TIP3    H243109   3.509   6.259   2.416  1.3277  2.4569 -2.1888
 7232TIP3   OH243110   0.292   5.560  16.771  0.9237  0.4856  0.0772
 7232TIP3    H143111   0.258   5.596  16.853  1.2526 -0.1590  0.5012
 7232TIP3    H243112   0.226   5.497  16.743  1.9849 -1.1989  1.2028
 7233TIP3   OH243113   3.529   4.704   2.619  0.0575 -0.5206  0.4051
 7233TIP3    H143114   3.515   4.711   2.713 -0.4720 -1.1965  0.3900
 7233TIP3    H243115   3.623   4.688   2.609 -0.0958 -1.8229  0.9119
 7234TIP3   OH243116   2.623   5.370  11.452 -0.2074 -0.3582  0.2516
 7234TIP3    H143117   2.632   5.287  11.499  0.5974 -0.2836  0.2468
 7234TIP3    H243118   2.689   5.428  11.492  1.4861 -0.7095 -1.8412
 7235TIP3   OH243119   1.897   2.692  16.560 -0.0802 -0.2211  0.4286
 7235TIP3    H143120   1.907   2.788  16.559  0.6043 -0.2864  0.4208
 7235TIP3    H243121   1.879   2.670  16.468  1.7921 -0.2842  0.0463
 7236TIP3   OH243122   5.661   1.507   0.674  0.3913 -0.2545  0.0276
 7236TIP3    H143123   5.676   1.438   0.739 -0.3637  0.3019  0.8108
 7236TIP3    H243124   5.592   1.472   0.617  0.1667 -0.2443  0.2892
 7237TIP3   OH243125   1.865   4.886  15.831  0.4471 -0.0280  0.5934
 7237TIP3    H143126   1.925   4.896  15.757  0.1899 -0.3182  0.3436
 7237TIP3    H243127   1.780   4.912  15.796  0.6414  1.7187  1.3182
 7238TIP3   OH243128   6.568   2.488   5.652 -0.2552 -0.1259  0.1740
 7238TIP3    H143129   6.559   2.569   5.702 -0.0060 -0.4859  0.8054
 7238TIP3    H243130   6.636   2.507   5.587 -1.1505  0.6106 -0.5920
 7239TIP3   OH243131   3.757   4.090  12.648 -0.3867 -0.4479 -0.4847
 7239TIP3    H143132   3.755   4.000  12.679 -2.6249 -0.5374 -0.7504
 7239TIP3    H243133   3.702   4.138  12.710  2.0434  1.1135  0.6050
 7240TIP3   OH243134   1.863   4.256   4.543 -0.3415  0.3477 -0.2039
 7240TIP3    H143135   1.855   4.162   4.531  0.3873  0.4385 -1.7385
 7240TIP3    H243136   1.928   4.283   4.478 -0.9293  1.9784 -0.1724
 7241TIP3   OH243137   2.112   5.036  11.895  0.3763  0.1072  0.4060
 7241TIP3    H143138   2.152   5.121  11.916 -0.1945  0.6736 -0.6980
 7241TIP3    H243139   2.186   4.977  11.882  0.7847  0.4634  1.0545
 7242TIP3   OH243140   2.110   1.850   1.379  0.5757  0.1035 -0.5842
 7242TIP3    H143141   2.202   1.849   1.353  1.5926  0.5017  2.6257
 7242TIP3    H243142   2.104   1.921   1.443 -1.7661 -0.5191 -0.0321
 7243TIP3   OH243143   2.788   4.919   1.767 -0.8048  0.3291  0.3863
 7243TIP3    H143144   2.736   4.987   1.810  0.7202  1.5203  0.4285
 7243TIP3    H243145   2.860   4.901   1.828 -1.9681 -2.4922  1.0975
 7244TIP3   OH243146   6.517   0.858   1.869 -0.2586  0.0997 -0.7972
 7244TIP3    H143147   6.484   0.795   1.806 -1.6395 -2.3207  2.0868
 7244TIP3    H243148   6.446   0.922   1.879 -0.5635 -0.2450 -0.7584
 7245TIP3   OH243149   2.600   1.641  11.901 -0.2948 -0.0298  0.8023
 7245TIP3    H143150   2.513   1.605  11.920 -0.0975 -1.2315 -0.3479
 7245TIP3    H243151   2.631   1.588  11.827  0.6994  1.5272  0.0705
 7246TIP3   OH243152   0.253   4.343  14.315  0.1671 -0.5259 -0.2735
 7246TIP3    H143153   0.331   4.319  14.264 -0.3071 -1.3591 -0.6200
 7246TIP3    H243154   0.185   4.358  14.249 -0.5008 -1.7843  0.0949
 7247TIP3   OH243155   1.916   6.230  11.691 -0.2989  0.5948  0.4778
 7247TIP3    H143156   1.954   6.315  11.711  1.0548  0.8959 -2.7341
 7247TIP3    H243157   1.846   6.249  11.629 -0.2010 -0.5824 -0.0202
 7248TIP3   OH243158   5.972   0.731   0.189  0.0111  0.0935  0.0038
 7248TIP3    H143159   5.998   0.772   0.271 -2.3113  1.9457 -0.1073
 7248TIP3    H243160   6.006   0.790   0.121  1.3682 -1.0964 -0.4066
 7249TIP3   OH243161   0.875   4.382   5.599 -0.4785  0.6747  0.4026
 7249TIP3    H143162   0.842   4.462   5.640 -1.1369  1.2967 -1.2338
 7249TIP3    H243163   0.897   4.324   5.672 -2.0656  1.5236  1.6268
 7250TIP3   OH243164   0.217   4.374  12.503 -0.3002 -0.2723  0.2054
 7250TIP3    H143165   0.240   4.287  12.535  0.7476 -0.1933 -0.3025
 7250TIP3    H243166   0.126   4.386  12.530 -0.3060 -1.3268  0.6990
 7251TIP3   OH243167   2.700   4.604   4.790  0.4687  0.2488 -0.2535
 7251TIP3    H143168   2.669   4.646   4.710  0.7333 -0.1183 -0.5498
 7251TIP3    H243169   2.628   4.547   4.817  0.5721 -0.0018 -0.5039
 7252TIP3   OH243170   3.324   4.391   2.639 -0.1827 -0.0829  0.0608
 7252TIP3    H143171   3.372   4.352   2.712  1.4769  0.5673 -0.6374
 7252TIP3    H243172   3.353   4.482   2.637 -2.7234  0.8134  0.6037
 7253TIP3   OH243173   3.666   4.200   0.448  0.2180 -0.2597  0.1683
 7253TIP3    H143174   3.587   4.230   0.402 -0.7667  0.1209  2.0229
 7253TIP3    H243175   3.721   4.163   0.379 -2.2764 -2.0914 -1.0022
 7254TIP3   OH243176   3.164   0.716  12.632 -0.0834  0.0231 -0.3539
 7254TIP3    H143177   3.086   0.755  12.591 -0.5654  0.2193  0.7103
 7254TIP3    H243178   3.237   0.767  12.597 -0.5178  0.4144 -0.7080
 7255TIP3   OH243179   4.092   0.775   5.147 -0.1067  0.3263  0.3510
 7255TIP3    H143180   4.061   0.704   5.091  1.2312 -0.7671  0.9586
 7255TIP3    H243181   4.116   0.844   5.085  1.7567 -1.0261 -0.5082
 7256TIP3   OH243182   3.213   1.691  14.533 -0.2011 -0.0147  0.1391
 7256TIP3    H143183   3.153   1.711  14.461  1.8389 -0.1958 -1.7112
 7256TIP3    H243184   3.196   1.599  14.553 -1.3661  0.2613  0.5205
 7257TIP3   OH243185   1.342   0.395  13.130  0.6061  0.4911 -0.2424
 7257TIP3    H143186   1.286   0.392  13.208  0.0664  1.4325 -0.5650
 7257TIP3    H243187   1.282   0.382  13.057  0.9170  0.7730 -0.5543
 7258TIP3   OH243188   0.545   4.317  14.467 -0.7519  0.1088 -0.5351
 7258TIP3    H143189   0.517   4.409  14.466 -3.1641 -0.5623 -1.2141
 7258TIP3    H243190   0.560   4.299  14.560  2.0249  1.7409 -0.5625
 7259TIP3   OH243191   5.084   3.719  15.325 -0.2713 -0.4455  0.5788
 7259TIP3    H143192   5.033   3.743  15.247 -0.6459 -1.2709  0.5617
 7259TIP3    H243193   5.052   3.779  15.393  2.2563  2.4945 -0.5818
 7260TIP3   OH243194   5.531   4.650   2.267  0.3117  0.5053  0.4606
 7260TIP3    H143195   5.517   4.623   2.357  1.0182  1.1031  0.7647
 7260TIP3    H243196   5.504   4.575   2.214  1.3663 -0.4591  1.2338
 7261TIP3   OH243197   3.659   3.154   2.157 -0.1531 -0.1118 -0.1299
 7261TIP3    H143198   3.711   3.218   2.108 -0.2717 -0.1131 -0.2609
 7261TIP3    H243199   3.616   3.102   2.089  0.3140 -0.6423 -0.0266
 7262TIP3   OH243200   2.563   3.177  16.689  0.3581 -0.0155 -0.3301
 7262TIP3    H143201   2.523   3.179  16.602 -0.1299  0.3547 -0.1090
 7262TIP3    H243202   2.496   3.215  16.746  1.5950  2.1762 -0.1855
 7263TIP3   OH243203   4.186   5.606  15.800  0.2623  0.4429 -0.3658
 7263TIP3    H143204   4.223   5.695  15.797  0.0996  0.5188 -0.1342
 7263TIP3    H243205   4.156   5.596  15.890  0.0923  0.2277 -0.4468
 7264TIP3   OH243206   3.903   3.305   3.649  0.8630  0.3402  0.9809
 7264TIP3    H143207   3.923   3.216   3.679  0.8913  0.0335  0.0702
 7264TIP3    H243208   3.976   3.358   3.682  0.5271  0.1569  2.0708
 7265TIP3   OH243209   3.248   1.205  11.995  0.2049 -0.5757  1.2476
 7265TIP3    H143210   3.260   1.194  11.900  0.0720  4.2308  0.3920
 7265TIP3    H243211   3.157   1.179  12.010  0.6870 -2.9399  0.4711
 7266TIP3   OH243212   5.738   4.389   2.449  0.0483  0.4465  0.5695
 7266TIP3    H143213   5.822   4.386   2.405 -0.7109  3.0643 -1.3450
 7266TIP3    H243214   5.755   4.435   2.531  0.7996 -0.9484  1.2234
 7267TIP3   OH243215   4.750   0.556   4.169 -0.4062  0.0550  0.0850
 7267TIP3    H143216   4.808   0.596   4.234 -0.3079  1.7303 -0.9663
 7267TIP3    H243217   4.737   0.625   4.103 -0.2339 -1.6870 -1.8572
 7268TIP3   OH243218   3.596   3.774   2.405  0.0570 -0.0542 -0.0645
 7268TIP3    H143219   3.587   3.825   2.485  0.3275  1.3250 -0.8834
 7268TIP3    H243220   3.686   3.791   2.376  0.0699 -0.8149 -0.4776
 7269TIP3   OH243221   1.628   5.205   3.611 -0.7114  0.3280 -0.0060
 7269TIP3    H143222   1.691   5.142   3.575  0.2431  2.2178 -1.9105
 7269TIP3    H243223   1.588   5.160   3.685  0.6319 -2.1091 -0.6554
 7270TIP3   OH243224   3.804   5.209   3.891  0.1320  0.0425 -0.1442
 7270TIP3    H143225   3.893   5.200   3.926  0.2949 -0.0675 -0.5857
 7270TIP3    H243226   3.752   5.147   3.942  0.1182  0.7574  0.7483
 7271TIP3   OH243227   4.336   6.174  17.112  0.3231  1.1085 -0.3762
 7271TIP3    H143228   4.410   6.115  17.126 -0.8180 -0.2186  0.2529
 7271TIP3    H243229   4.374   6.262  17.116  1.5915  0.5294  1.7655
 7272TIP3   OH243230   6.184   0.095   5.862  0.6694 -0.3509  0.0118
 7272TIP3    H143231   6.257   0.079   5.802  0.6554  4.2986 -1.6499
 7272TIP3    H243232   6.222   0.147   5.933 -0.7029  1.1767 -0.2947
 7273TIP3   OH243233   2.784   3.168   6.043  0.8389 -0.9018 -0.1672
 7273TIP3    H143234   2.800   3.103   5.974  1.1616 -0.3316 -0.6337
 7273TIP3    H243235   2.852   3.151   6.108  0.2781 -1.7162  0.2256
 7274TIP3   OH243236   3.141   3.840  11.453  0.2887 -0.3485  0.8596
 7274TIP3    H143237   3.059   3.888  11.466  1.6713  2.6670 -0.6775
 7274TIP3    H243238   3.180   3.833  11.540  0.3224  1.9551  1.0687
 7275TIP3   OH243239   4.865   2.431   3.315 -0.8015 -0.4942 -0.1838
 7275TIP3    H143240   4.883   2.411   3.224 -1.9651 -1.9265 -0.1449
 7275TIP3    H243241   4.784   2.483   3.313 -0.4549  0.0680  0.0113
 7276TIP3   OH243242   3.760   5.907   5.326  0.4914 -0.4531 -0.3517
 7276TIP3    H143243   3.690   5.845   5.346  1.0858 -0.3104  2.7875
 7276TIP3    H243244   3.715   5.985   5.294 -0.8094 -0.5241  1.1768
 7277TIP3   OH243245   1.202   1.190   1.684  0.6188  0.2497 -0.1896
 7277TIP3    H143246   1.289   1.151   1.691  0.8561  0.6867 -0.6031
 7277TIP3    H243247   1.217   1.273   1.639  0.4417  1.8935  2.6171
 7278TIP3   OH243248   3.047   3.588   5.742  0.4131  0.1314  0.2072
 7278TIP3    H143249   3.070   3.648   5.671  0.3586 -1.2444 -1.0111
 7278TIP3    H243250   2.956   3.611   5.764  0.3483  0.3941 -0.3320
 7279TIP3   OH243251   5.312   1.763   2.970  0.5740 -0.2701 -0.0220
 7279TIP3    H143252   5.294   1.709   2.893 -1.5501 -2.0834  1.6046
 7279TIP3    H243253   5.388   1.722   3.011  1.0033  0.0017 -0.5436
 7280TIP3   OH243254   5.196   3.023  16.753  0.4901 -0.3214 -0.4838
 7280TIP3    H143255   5.165   3.108  16.721  0.8177 -0.5894 -1.5199
 7280TIP3    H243256   5.290   3.036  16.767  0.4161 -0.3152  0.0291
 7281TIP3   OH243257   5.036   1.653   1.637  0.7527  0.2000  0.0333
 7281TIP3    H143258   5.081   1.737   1.650 -3.0648  2.2330  1.7149
 7281TIP3    H243259   5.023   1.647   1.542  0.2966  2.0378 -0.0652
 7282TIP3   OH243260   3.114   1.626  11.821 -0.4357 -0.0722 -0.5012
 7282TIP3    H143261   3.091   1.716  11.799 -3.8928 -0.8584 -0.7627
 7282TIP3    H243262   3.115   1.580  11.737 -1.3773 -0.7610 -0.1487
 7283TIP3   OH243263   0.837   2.337   1.824  0.6129 -0.6300 -0.2409
 7283TIP3    H143264   0.747   2.316   1.852  0.1356 -0.7990 -1.8358
 7283TIP3    H243265   0.826   2.382   1.741  1.9930  0.0598 -0.0757
 7284TIP3   OH243266   6.260   3.877  13.319 -1.0192  0.1696 -0.1486
 7284TIP3    H143267   6.170   3.887  13.288 -1.8623 -0.1117  1.9900
 7284TIP3    H243268   6.280   3.784  13.306 -1.7301 -0.1633  0.9604
 7285TIP3   OH243269   6.005   0.243  14.100 -0.3147 -0.0399 -0.3959
 7285TIP3    H143270   6.087   0.286  14.078 -0.1053  0.4005  1.1325
 7285TIP3    H243271   5.991   0.180  14.029  1.4319 -0.2436 -0.5935
 7286TIP3   OH243272   1.500   0.189   3.188 -0.2093  0.2233  0.1977
 7286TIP3    H143273   1.502   0.282   3.167 -0.4012 -0.0215 -0.9848
 7286TIP3    H243274   1.563   0.179   3.259  0.9827  1.0167 -0.6962
 7287TIP3   OH243275   0.889   6.523  11.179  0.8237 -0.1771  0.5740
 7287TIP3    H143276   0.799   6.527  11.212  0.3478 -0.7320 -0.6015
 7287TIP3    H243277   0.903   6.608  11.138  0.6902 -0.2440  0.3905
 7288TIP3   OH243278   6.155   3.465   4.562 -0.0180 -0.2973  0.1816
 7288TIP3    H143279   6.234   3.412   4.576  0.4853  0.0025 -1.2796
 7288TIP3    H243280   6.120   3.433   4.478 -1.8190 -0.8389  1.0928
 7289TIP3   OH243281   6.556   2.798   0.208  0.2533  0.5299 -0.1307
 7289TIP3    H143282   6.626   2.776   0.145 -0.6107  1.0156 -1.2941
 7289TIP3    H243283   6.603   2.814   0.290  1.4796  0.4499 -0.7804
 7290TIP3   OH243284   5.796   3.425   1.649 -0.1870  0.2651 -0.0174
 7290TIP3    H143285   5.875   3.391   1.607  0.5844  0.6938  1.0492
 7290TIP3    H243286   5.725   3.402   1.589  0.8262  0.4700 -1.3348
 7291TIP3   OH243287   1.770   6.126   0.398 -0.2540  0.2109 -0.6914
 7291TIP3    H143288   1.774   6.096   0.488  1.2320  2.5121  0.1119
 7291TIP3    H243289   1.691   6.180   0.394 -0.3934  0.0004 -0.8188
 7292TIP3   OH243290   2.286   6.493   4.345  0.3610 -0.2448 -0.6791
 7292TIP3    H143291   2.309   6.438   4.420  2.3971  0.7704 -0.4824
 7292TIP3    H243292   2.216   6.445   4.301 -0.7792 -0.9632  1.7397
 7293TIP3   OH243293   2.164   1.838  11.907 -0.0609 -0.0334  0.3661
 7293TIP3    H143294   2.216   1.806  11.981 -1.0527 -1.3293  0.5510
 7293TIP3    H243295   2.167   1.766  11.844  0.2252  0.7958 -0.5919
 7294TIP3   OH243296   6.039   2.295  16.493  0.1592  0.1098 -0.9345
 7294TIP3    H143297   6.087   2.325  16.416  0.6728  0.9155 -0.3160
 7294TIP3    H243298   6.107   2.264  16.553 -0.2288 -0.4123 -0.7502
 7295TIP3   OH243299   2.755   3.834  14.045  0.1411 -0.2198  0.0338
 7295TIP3    H143300   2.733   3.926  14.030  1.2638 -0.0668 -0.8012
 7295TIP3    H243301   2.706   3.787  13.978 -2.4372 -0.5326  2.0135
 7296TIP3   OH243302   5.942   2.547  13.884  0.1762  0.4086  0.0974
 7296TIP3    H143303   6.032   2.517  13.889  0.3806  0.9272 -0.3793
 7296TIP3    H243304   5.940   2.628  13.935  0.2614  1.0313 -0.8628
 7297TIP3   OH243305   0.962   0.749   1.996  0.1852 -0.6023 -0.1293
 7297TIP3    H143306   1.045   0.789   2.023 -1.0056  1.0551  1.2689
 7297TIP3    H243307   0.950   0.677   2.059 -0.3744  0.3972  0.9271
 7298TIP3   OH243308   4.687   0.443   2.505  0.1594 -0.4965 -0.3048
 7298TIP3    H143309   4.700   0.401   2.420  0.1181 -0.5709 -0.2745
 7298TIP3    H243310   4.641   0.377   2.557 -1.2835  0.1348 -0.7480
 7299TIP3   OH243311   5.428   6.565  14.490 -0.4337 -0.0631  0.0266
 7299TIP3    H143312   5.493   6.582  14.422  0.5886 -0.4378  0.8723
 7299TIP3    H243313   5.345   6.559  14.444  0.3315 -0.9965 -1.2869
 7300TIP3   OH243314   3.842   1.120  14.145 -0.0154 -0.3228 -0.0845
 7300TIP3    H143315   3.790   1.085  14.217 -0.7754  0.2314 -0.3431
 7300TIP3    H243316   3.797   1.201  14.120 -0.0096 -0.7004 -1.4352
 7301TIP3   OH243317   4.750   0.416  11.084  0.0926 -0.0605 -0.1496
 7301TIP3    H143318   4.710   0.438  11.000  0.6142 -0.1275 -0.4174
 7301TIP3    H243319   4.813   0.486  11.100  0.3043 -0.2739 -0.0305
 7302TIP3   OH243320   1.333   5.284   6.018  0.4894  0.2887  0.4810
 7302TIP3    H143321   1.297   5.196   6.006 -0.1561  0.5918  0.1942
 7302TIP3    H243322   1.258   5.338   6.043  0.8119  0.8465  0.2581
 7303TIP3   OH243323   0.179   0.478   1.762  0.7154  1.0674  0.6055
 7303TIP3    H143324   0.222   0.482   1.676  0.4263  2.4712  0.4998
 7303TIP3    H243325   0.251   0.470   1.824  0.9225 -0.1477  0.2545
 7304TIP3   OH243326   0.549   3.722   2.662  0.0738  0.5946  0.3134
 7304TIP3    H143327   0.517   3.798   2.710  0.0004 -1.2514  3.5085
 7304TIP3    H243328   0.620   3.688   2.716  3.0394  0.6900 -3.1680
 7305TIP3   OH243329   6.707   6.757   3.087  0.2962 -0.1327 -0.2357
 7305TIP3    H143330   6.687   6.685   3.027  0.9298 -0.0043 -0.6136
 7305TIP3    H243331   6.719   6.833   3.029 -0.1140  0.2212  0.1390
 7306TIP3   OH243332   4.929   1.800   0.541 -0.2459  0.2214 -0.0259
 7306TIP3    H143333   4.973   1.719   0.514  1.7014  0.9851  0.6755
 7306TIP3    H243334   4.917   1.790   0.635  0.9664  1.1313  0.2557
 7307TIP3   OH243335   4.065   0.401   1.670  0.4075 -0.1450 -0.4880
 7307TIP3    H143336   4.097   0.313   1.690 -0.3162 -0.6476 -1.4817
 7307TIP3    H243337   4.137   0.459   1.696  1.2774 -1.0938 -0.7204
 7308TIP3   OH243338   5.810   6.343  12.342  0.1130 -0.1021 -0.3274
 7308TIP3    H143339   5.883   6.339  12.404  1.1280  2.0284 -1.2952
 7308TIP3    H243340   5.797   6.252  12.316  1.3582 -0.7316  1.0682
 7309TIP3   OH243341   0.245   3.135  11.586  0.2613  0.7502 -0.1527
 7309TIP3    H143342   0.162   3.095  11.562 -1.5202  2.3879  2.7137
 7309TIP3    H243343   0.258   3.206  11.523  0.2314 -0.3294 -1.4119
 7310TIP3   OH243344   3.699   3.588  16.024  0.2931 -0.3589  0.7071
 7310TIP3    H143345   3.628   3.652  16.019 -0.1669 -0.8812  0.3275
 7310TIP3    H243346   3.682   3.528  15.951  1.5135 -0.1093  0.2039
 7311TIP3   OH243347   4.312   3.297   0.755  0.0293  0.2591 -0.1968
 7311TIP3    H143348   4.257   3.375   0.761 -0.6059  0.0231 -2.2893
 7311TIP3    H243349   4.250   3.224   0.748  0.6073 -0.5210  1.9054
 7312TIP3   OH243350   1.327   1.610  13.875  0.3362 -0.6500 -0.1883
 7312TIP3    H143351   1.233   1.622  13.863  0.3918  0.7164  0.4376
 7312TIP3    H243352   1.343   1.640  13.965  1.1651 -2.2074  0.2141
 7313TIP3   OH243353   3.309   3.360  15.365  0.4507  0.3687  0.1846
 7313TIP3    H143354   3.243   3.333  15.429 -0.7656  2.2697 -0.1707
 7313TIP3    H243355   3.323   3.283  15.311 -2.3430  0.1638 -0.3882
 7314TIP3   OH243356   3.352   6.486  11.035  0.0196 -0.3113 -0.4774
 7314TIP3    H143357   3.273   6.442  11.003  0.1091  0.1750 -1.3857
 7314TIP3    H243358   3.350   6.572  10.994  1.0585 -0.3157 -0.5597
 7315TIP3   OH243359   5.099   1.859  13.070  0.5243 -0.0331 -0.1374
 7315TIP3    H143360   5.194   1.862  13.083  0.7521  0.2235 -1.6214
 7315TIP3    H243361   5.074   1.772  13.099  1.4130 -0.5200 -0.7725
 7316TIP3   OH243362   5.405   2.895  11.519 -0.5290 -0.2611  0.8522
 7316TIP3    H143363   5.354   2.975  11.509  1.0373  0.4458 -4.0505
 7316TIP3    H243364   5.493   2.926  11.541 -0.3709 -0.8148  1.0079
 7317TIP3   OH243365   2.282   6.530  14.878 -0.0428  0.0058 -0.1748
 7317TIP3    H143366   2.317   6.485  14.955  1.6065  0.0998 -0.8292
 7317TIP3    H243367   2.237   6.607  14.913  2.8249  1.4517  0.6281
 7318TIP3   OH243368   2.537   2.964  11.250 -0.3306  0.3588 -0.0336
 7318TIP3    H143369   2.483   2.917  11.313  1.9780 -1.0207  1.0342
 7318TIP3    H243370   2.503   3.054  11.251 -2.4956 -0.3985  0.6061
 7319TIP3   OH243371   6.055   2.192  15.204  0.0365  0.3064 -0.3307
 7319TIP3    H143372   6.146   2.220  15.203  0.4172 -0.7118  1.7089
 7319TIP3    H243373   6.051   2.122  15.139  0.4475  0.9984 -1.1266
 7320TIP3   OH243374   2.409   0.093  11.254  0.0452 -0.2523 -0.1773
 7320TIP3    H143375   2.419   0.062  11.344  1.3112  0.6798  0.0297
 7320TIP3    H243376   2.391   0.014  11.204 -0.2472 -0.8460  0.8241
 7321TIP3   OH243377   3.594   0.852  16.019  0.1080  0.2315 -0.1411
 7321TIP3    H143378   3.546   0.842  16.102  2.0518  0.5038  1.0767
 7321TIP3    H243379   3.544   0.918  15.971 -1.1009  0.0265  0.7688
 7322TIP3   OH243380   4.260   5.680  14.854 -0.4903 -0.1774  0.1322
 7322TIP3    H143381   4.352   5.705  14.867  0.6243 -3.5200 -0.4435
 7322TIP3    H243382   4.212   5.763  14.861  2.5416  1.7320  0.3258
 7323TIP3   OH243383   1.797   1.730   3.741  0.5263  0.0927  0.7205
 7323TIP3    H143384   1.824   1.732   3.833 -0.0324  0.6880  0.8745
 7323TIP3    H243385   1.786   1.822   3.717 -2.7163 -0.0930  1.0642
 7324TIP3   OH243386   1.094   3.455  12.619  0.4699 -0.7442  0.1118
 7324TIP3    H143387   1.065   3.507  12.694 -0.5133 -1.1096 -0.0073
 7324TIP3    H243388   1.119   3.370  12.658  1.0066 -0.5731  0.1564
 7325TIP3   OH243389   2.404   6.669  13.884  0.3549 -0.5557 -0.3454
 7325TIP3    H143390   2.395   6.607  13.957  0.5408 -1.3038 -0.9398
 7325TIP3    H243391   2.323   6.719  13.886  0.2782 -0.6861  0.2613
 7326TIP3   OH243392   0.789   2.610  11.662 -0.1082  0.9552  0.3486
 7326TIP3    H143393   0.869   2.557  11.661  0.1458  1.3454 -0.5282
 7326TIP3    H243394   0.818   2.699  11.645 -0.7739  1.0291 -0.4498
 7327TIP3   OH243395   5.027   0.645   4.803  0.4061  0.6832  0.3826
 7327TIP3    H143396   5.094   0.592   4.760 -1.1321 -1.0734 -0.0164
 7327TIP3    H243397   5.030   0.618   4.895  1.0132  1.4734  0.6015
 7328TIP3   OH243398   6.151   1.555  13.077 -0.0235 -0.8006 -0.1043
 7328TIP3    H143399   6.152   1.463  13.050  2.5176 -0.4746 -1.4034
 7328TIP3    H243400   6.091   1.597  13.015 -0.5971 -1.4284  0.0070
 7329TIP3   OH243401   5.170   5.400   3.796  0.3933  0.3831  0.0073
 7329TIP3    H143402   5.235   5.375   3.861 -0.3429 -0.1020  0.5652
 7329TIP3    H243403   5.169   5.496   3.799 -0.4910  0.3423  1.5785
 7330TIP3   OH243404   1.771   4.296   2.399 -0.6028  0.0163 -0.1070
 7330TIP3    H143405   1.703   4.248   2.352 -1.7194 -0.6860  2.1108
 7330TIP3    H243406   1.741   4.387   2.400 -0.6376  0.0136 -0.5726
 7331TIP3   OH243407   4.582   0.717  17.164 -0.2611  0.3314 -0.2544
 7331TIP3    H143408   4.577   0.736  17.071 -1.9464  0.7062 -0.1155
 7331TIP3    H243409   4.583   0.803  17.207  0.3541  0.1614  0.0928
 7332TIP3   OH243410   0.121   5.777   3.159  0.5329 -0.2460  1.0555
 7332TIP3    H143411   0.130   5.683   3.177 -2.1914 -0.7617  0.2480
 7332TIP3    H243412   0.026   5.792   3.157  0.7470  1.7371 -2.6679
 7333TIP3   OH243413   4.957   2.779  16.470  0.2581  0.4086  0.4403
 7333TIP3    H143414   4.945   2.733  16.387 -1.3558 -0.1935  0.9838
 7333TIP3    H243415   4.987   2.867  16.444  0.9715 -0.1458 -0.7029
 7334TIP3   OH243416   0.668   0.790  16.243 -1.0483  0.5214 -0.1878
 7334TIP3    H143417   0.624   0.818  16.323 -0.4351  0.6615  0.1076
 7334TIP3    H243418   0.714   0.710  16.269 -0.7220  0.6524 -0.3559
 7335TIP3   OH243419   5.129   1.117   0.033  0.2757  0.2492  0.3687
 7335TIP3    H143420   5.215   1.079   0.050  0.0869 -0.1469  0.4702
 7335TIP3    H243421   5.098   1.147   0.119  0.4073  0.5965  0.2952
 7336TIP3   OH243422   1.171   5.299  11.983 -0.0070 -0.2171 -0.3356
 7336TIP3    H143423   1.199   5.369  12.042 -2.5349  1.0059 -0.4526
 7336TIP3    H243424   1.213   5.320  11.900 -0.7478  1.2483 -0.3820
 7337TIP3   OH243425   1.463   6.426  12.096 -0.0882 -0.9379  0.6000
 7337TIP3    H143426   1.470   6.452  12.188 -0.1783  1.5352 -0.0125
 7337TIP3    H243427   1.485   6.333  12.096  2.5198 -0.4754  2.8021
 7338TIP3   OH243428   3.251   6.073  13.317  0.0369  0.1493 -0.0598
 7338TIP3    H143429   3.204   6.152  13.291 -0.1388  0.9395  2.3964
 7338TIP3    H243430   3.185   6.004  13.318 -0.0588  0.2144 -1.0592
 7339TIP3   OH243431   1.812   5.037  13.534 -0.1472  0.1834 -0.0922
 7339TIP3    H143432   1.846   4.999  13.453 -0.0955  0.4370 -0.1893
 7339TIP3    H243433   1.765   4.965  13.576  1.8940 -0.6895  0.8628
 7340TIP3   OH243434   4.598   3.122   4.291 -0.0451 -0.4131 -0.2816
 7340TIP3    H143435   4.648   3.087   4.218  0.4236 -0.1316 -0.1020
 7340TIP3    H243436   4.576   3.045   4.344 -1.2706 -0.7577 -1.2286
 7341TIP3   OH243437   0.256   4.696   4.450 -0.0963 -0.1802  0.2031
 7341TIP3    H143438   0.323   4.640   4.488 -0.5660 -1.5348 -0.8554
 7341TIP3    H243439   0.207   4.729   4.525  0.4137 -0.9262  0.8848
 7342TIP3   OH243440   2.306   0.157   3.782  0.5235 -0.2617 -0.1615
 7342TIP3    H143441   2.317   0.129   3.691  0.4958 -0.7014 -0.0315
 7342TIP3    H243442   2.369   0.228   3.793  2.3182 -1.8436  0.1803
 7343TIP3   OH243443   2.428   4.148  15.558  0.3565  0.0929  0.4215
 7343TIP3    H143444   2.371   4.199  15.500 -0.2048 -0.1245  0.7661
 7343TIP3    H243445   2.501   4.207  15.578  1.4040 -0.3755 -1.7567
 7344TIP3   OH243446   4.611   4.566  12.509 -0.1520  0.1712  0.6241
 7344TIP3    H143447   4.558   4.620  12.567 -0.3852  0.1351  0.4485
 7344TIP3    H243448   4.699   4.569  12.547  0.2375  2.0346 -0.2818
 7345TIP3   OH243449   1.810   0.913  11.298 -0.0544 -0.0751  0.4548
 7345TIP3    H143450   1.831   0.879  11.211  2.7780  1.4638  0.4122
 7345TIP3    H243451   1.876   0.873  11.355  0.8571  2.1391  1.0727
 7346TIP3   OH243452   2.817   1.927  14.222  0.1137  0.5392 -0.0541
 7346TIP3    H143453   2.852   2.003  14.175  1.0467 -0.6894 -1.4430
 7346TIP3    H243454   2.733   1.957  14.257  1.0897  2.6180  0.6752
 7347TIP3   OH243455   4.126   2.201   4.222  0.1838 -0.3033  0.3851
 7347TIP3    H143456   4.072   2.268   4.178  1.1522  0.3152  0.1183
 7347TIP3    H243457   4.062   2.136   4.252 -0.7043  0.3293 -0.0639
 7348TIP3   OH243458   4.127   2.582   4.056 -0.0244  0.5690  0.4692
 7348TIP3    H143459   4.191   2.616   3.993  0.3172 -1.5729 -0.4348
 7348TIP3    H243460   4.180   2.551   4.129 -0.1213 -0.0081  0.3007
 7349TIP3   OH243461   4.594   2.663  11.049 -0.2596 -0.5826 -0.3411
 7349TIP3    H143462   4.603   2.632  10.959  1.0254  0.6351 -0.6713
 7349TIP3    H243463   4.567   2.586  11.099 -0.6413 -1.3574 -1.6985
 7350TIP3   OH243464   3.211   0.971  13.741 -0.1685  0.6517  0.3910
 7350TIP3    H143465   3.120   0.992  13.762 -0.5231 -1.3645  1.0974
 7350TIP3    H243466   3.250   0.948  13.826  0.2842 -0.9080 -0.2056
 7351TIP3   OH243467   6.207   1.853  14.253 -0.4036  0.2762  0.3521
 7351TIP3    H143468   6.182   1.937  14.215  0.5836  0.0774 -0.7804
 7351TIP3    H243469   6.291   1.869  14.294  0.3496 -0.4102 -0.8739
 7352TIP3   OH243470   4.435   2.642   6.557  0.2303 -0.2962  0.5771
 7352TIP3    H143471   4.475   2.709   6.503  0.0879 -1.0103 -0.4440
 7352TIP3    H243472   4.378   2.690   6.617 -0.3127  0.4633 -0.5130
 7353TIP3   OH243473   1.339   0.494  14.446  0.2914 -0.2683 -0.2490
 7353TIP3    H143474   1.368   0.502  14.537 -0.7844  0.5100  0.0446
 7353TIP3    H243475   1.252   0.455  14.452  0.4159 -0.6684 -0.9844
 7354TIP3   OH243476   2.840   2.417  16.133 -0.1194 -0.5766 -0.3903
 7354TIP3    H143477   2.902   2.382  16.196  0.2390  1.2387  0.3014
 7354TIP3    H243478   2.787   2.480  16.182 -0.4613  0.1840 -1.6748
 7355TIP3   OH243479   0.627   2.878   0.072  0.1217 -0.2088  0.0625
 7355TIP3    H143480   0.669   2.796   0.047 -2.0694 -1.4439  0.1239
 7355TIP3    H243481   0.573   2.901  -0.003 -0.2771  0.4659  0.5404
 7356TIP3   OH243482   5.786   1.844  14.181 -0.1849  0.4298 -0.3190
 7356TIP3    H143483   5.803   1.845  14.275 -0.6392 -0.0809 -0.2262
 7356TIP3    H243484   5.690   1.842  14.174 -0.1498  0.2211 -0.7879
 7357TIP3   OH243485   2.725   6.716  13.489 -0.0738 -0.5255  0.1574
 7357TIP3    H143486   2.727   6.623  13.511 -1.2527 -0.5434  0.2061
 7357TIP3    H243487   2.815   6.746  13.506 -0.4310 -0.9223  3.3260
 7358TIP3   OH243488   4.542   2.724  16.219  0.0519  0.5319 -0.0036
 7358TIP3    H143489   4.557   2.691  16.131 -1.6917  0.9510 -0.4973
 7358TIP3    H243490   4.515   2.815  16.207  0.2476  0.7324  0.9933
 7359TIP3   OH243491   5.307   5.278  14.828  0.8294  0.0985  0.1122
 7359TIP3    H143492   5.372   5.325  14.880  0.5341  1.1152 -0.4273
 7359TIP3    H243493   5.227   5.329  14.837  0.6031 -0.0740 -0.7966
 7360TIP3   OH243494   1.101   0.339  13.404 -0.4216 -0.1568  0.2970
 7360TIP3    H143495   1.092   0.419  13.353 -0.4523  0.5014  1.3079
 7360TIP3    H243496   1.058   0.358  13.488  0.3121 -0.9352  0.8714
 7361TIP3   OH243497   3.783   3.555  15.436  0.6222 -0.1817 -1.0727
 7361TIP3    H143498   3.849   3.571  15.369  3.1098  1.0634  1.4343
 7361TIP3    H243499   3.707   3.606  15.408  1.5465  0.2298 -2.9548
 7362TIP3   OH243500   0.834   1.350   3.483 -0.8430  0.4387  0.5135
 7362TIP3    H143501   0.806   1.325   3.571 -1.6210 -1.8800 -0.3182
 7362TIP3    H243502   0.904   1.288   3.461  0.4019  1.9391  0.0110
 7363TIP3   OH243503   3.234   5.581  16.015  0.5035  0.1883 -0.2311
 7363TIP3    H143504   3.271   5.668  16.005 -1.4276  1.1600  0.4870
 7363TIP3    H243505   3.199   5.580  16.104 -0.9125 -0.7497 -0.7627
 7364TIP3   OH243506   0.517   6.575  10.970 -0.5792 -0.4259 -0.1616
 7364TIP3    H143507   0.502   6.656  10.921 -0.7026 -0.2530  0.1586
 7364TIP3    H243508   0.580   6.526  10.917 -1.5290 -0.7204 -1.0303
 7365TIP3   OH243509   0.060   4.405  16.206 -0.1684  0.5208  0.0487
 7365TIP3    H143510   0.029   4.481  16.158 -3.2182  0.1063  1.1608
 7365TIP3    H243511   0.003   4.333  16.177  2.2585 -1.2987 -0.5739
 7366TIP3   OH243512   2.166   5.405   5.860 -1.1304 -0.2507 -0.2695
 7366TIP3    H143513   2.115   5.326   5.880 -2.0783  0.2579 -0.6606
 7366TIP3    H243514   2.138   5.431   5.773  0.5294 -0.5179 -0.9156
 7367TIP3   OH243515   6.153   0.930  14.866 -0.4877 -0.1024  0.1915
 7367TIP3    H143516   6.062   0.939  14.893  0.1339 -1.3745  3.0654
 7367TIP3    H243517   6.153   0.856  14.806 -1.3177 -0.0647  0.1312
 7368TIP3   OH243518   4.452   3.618  14.390  0.5018 -0.3644  0.2957
 7368TIP3    H143519   4.408   3.685  14.443  0.6259 -1.1339  1.4077
 7368TIP3    H243520   4.545   3.628  14.412  0.5005 -1.0141  0.5957
 7369TIP3   OH243521   0.257   1.731  16.666  0.6435  0.6186 -0.3752
 7369TIP3    H143522   0.209   1.660  16.623  1.4210  0.2823 -0.7168
 7369TIP3    H243523   0.285   1.693  16.750  2.1163  0.0759 -1.0784
 7370TIP3   OH243524   5.155   2.061  11.668  0.5292 -0.1333 -0.1625
 7370TIP3    H143525   5.138   2.068  11.574  3.0878  0.7493 -0.6297
 7370TIP3    H243526   5.147   2.150  11.701  1.1448 -0.1897  0.1494
 7371TIP3   OH243527   2.491   1.749   2.597 -0.8070 -0.1224 -0.1201
 7371TIP3    H143528   2.400   1.769   2.617 -0.5990 -0.5904  1.4941
 7371TIP3    H243529   2.502   1.657   2.624  0.5485  0.4375  1.4268
 7372TIP3   OH243530   1.441   4.594  11.023  0.1209  0.2542  0.2662
 7372TIP3    H143531   1.409   4.647  10.950  1.1137  1.3387  0.5877
 7372TIP3    H243532   1.536   4.600  11.017  0.2705 -1.4650  0.3593
 7373TIP3   OH243533   0.669   1.771  12.705  0.4340 -0.5263 -0.1454
 7373TIP3    H143534   0.633   1.846  12.658  2.8186 -0.2260 -1.6207
 7373TIP3    H243535   0.627   1.695  12.664  0.9291 -0.1585 -1.3816
 7374TIP3   OH243536   5.703   0.247  16.256  0.2380 -0.4243  0.0240
 7374TIP3    H143537   5.682   0.340  16.250 -0.6998 -0.6778 -1.0916
 7374TIP3    H243538   5.724   0.221  16.166  0.8132 -1.2137  0.3796
 7375TIP3   OH243539   4.134   1.782   1.262  0.7624 -0.0393 -0.3768
 7375TIP3    H143540   4.176   1.864   1.290 -0.1145  0.1753  0.3453
 7375TIP3    H243541   4.168   1.716   1.321  2.0886 -0.3859 -1.4563
 7376TIP3   OH243542   1.708   1.357  11.544 -0.0355 -0.0663  0.1350
 7376TIP3    H143543   1.771   1.288  11.566  2.3142  2.2547  1.2435
 7376TIP3    H243544   1.733   1.384  11.456 -0.1673  0.1431  0.1618
 7377TIP3   OH243545   6.473   2.801  10.806 -0.0902  0.5956  0.3926
 7377TIP3    H143546   6.474   2.801  10.710 -2.8913 -0.7941  0.2709
 7377TIP3    H243547   6.544   2.743  10.831  0.5965  0.8737 -0.8430
 7378TIP3   OH243548   2.982   4.237   5.018 -0.0420 -0.7590 -0.4456
 7378TIP3    H143549   3.054   4.209   4.961  0.1166 -1.5950  0.1454
 7378TIP3    H243550   3.008   4.207   5.105  0.3550  1.6749  0.3346
 7379TIP3   OH243551   4.244   0.179   1.156 -0.0341  0.1774  0.1905
 7379TIP3    H143552   4.273   0.199   1.245 -0.1074  1.0181  0.0337
 7379TIP3    H243553   4.173   0.116   1.168  0.1961  0.0099  0.7062
 7380TIP3   OH243554   1.620   4.951   1.846 -0.0934 -0.0191  0.1757
 7380TIP3    H143555   1.629   4.997   1.762  0.8548 -0.5350 -0.0170
 7380TIP3    H243556   1.631   4.858   1.824  0.9364 -0.1011  0.9648
 7381TIP3   OH243557   5.693   0.200  11.211 -0.2391 -0.1565 -0.1113
 7381TIP3    H143558   5.653   0.193  11.124  1.5293  0.3857 -1.0064
 7381TIP3    H243559   5.635   0.260  11.259 -0.8817  0.0617 -1.1258
 7382TIP3   OH243560   6.691   4.937   2.964 -0.6597 -0.0106  0.5693
 7382TIP3    H143561   6.692   4.983   3.048 -0.6500  0.6985  0.1853
 7382TIP3    H243562   6.735   4.996   2.904  1.7039 -1.5856  0.6093
 7383TIP3   OH243563   2.025   1.796   5.265  0.2139  0.3038 -0.2690
 7383TIP3    H143564   1.983   1.857   5.326  2.2907  0.8737  0.7055
 7383TIP3    H243565   1.974   1.715   5.272 -0.9568  1.0861  0.5000
 7384TIP3   OH243566   5.736   2.464   3.591  0.3357  0.8383  0.2073
 7384TIP3    H143567   5.811   2.508   3.630 -0.3461  1.8686  0.3884
 7384TIP3    H243568   5.749   2.472   3.497  0.9053  0.2033  0.2207
 7385TIP3   OH243569   3.187   5.282   5.557 -0.3309 -0.6573  0.2797
 7385TIP3    H143570   3.170   5.336   5.635  0.8154  0.5827 -0.2899
 7385TIP3    H243571   3.279   5.256   5.566 -0.5371 -1.5407 -0.0601
 7386TIP3   OH243572   6.575   0.698  12.341 -0.6580  0.9936  0.2952
 7386TIP3    H143573   6.616   0.773  12.298  2.1156 -0.3729  0.3294
 7386TIP3    H243574   6.570   0.631  12.273  1.6425 -0.4194  1.4091
 7387TIP3   OH243575   5.538   3.608   0.089  0.2645 -0.1849 -0.3821
 7387TIP3    H143576   5.549   3.574   0.001  0.1986  0.4826 -0.6551
 7387TIP3    H243577   5.536   3.530   0.145  2.4977 -0.5459 -0.7066
 7388TIP3   OH243578   5.134   0.211   3.859 -0.5054  0.6177 -0.6157
 7388TIP3    H143579   5.171   0.188   3.944 -1.4309  3.0581  0.5626
 7388TIP3    H243580   5.210   0.227   3.803  0.1586  0.4967  0.2289
 7389TIP3   OH243581   0.457   4.581   4.602 -0.0893 -0.6286 -0.2078
 7389TIP3    H143582   0.513   4.506   4.624  0.4052 -0.3043 -0.3503
 7389TIP3    H243583   0.517   4.655   4.599 -0.6861 -0.0995  0.5991
 7390TIP3   OH243584   3.073   2.675   5.855 -0.3388 -0.0909 -0.0458
 7390TIP3    H143585   3.154   2.719   5.880 -0.3288 -0.2091  0.1401
 7390TIP3    H243586   3.102   2.590   5.821 -0.3435  0.1315 -0.6124
 7391TIP3   OH243587   4.062   5.077   1.754  0.0014 -1.0182 -0.2618
 7391TIP3    H143588   4.097   5.014   1.692 -2.7980 -3.8218  0.7506
 7391TIP3    H243589   3.970   5.053   1.764 -0.8909  2.3585  1.3505
 7392TIP3   OH243590   0.883   0.693  17.112  0.1196 -0.0763 -0.1621
 7392TIP3    H143591   0.939   0.646  17.174 -0.9810 -0.2986  0.6951
 7392TIP3    H243592   0.834   0.754  17.166 -1.0355 -0.4352 -0.7852
 7393TIP3   OH243593   3.503   5.031   1.610 -0.2103 -0.1478  0.4270
 7393TIP3    H143594   3.482   4.961   1.548 -3.4191  0.7885  0.2855
 7393TIP3    H243595   3.542   5.099   1.556  0.6338 -0.8329  0.1456
 7394TIP3   OH243596   0.597   3.299  12.099  0.2705  0.4221 -0.3282
 7394TIP3    H143597   0.662   3.255  12.155 -1.9975  0.2544  2.4168
 7394TIP3    H243598   0.628   3.389  12.092  1.0169  0.2549  0.6102
 7395TIP3   OH243599   0.849   2.557  16.077 -0.0896  0.3495 -0.2702
 7395TIP3    H143600   0.811   2.472  16.098  0.5804  0.5760  2.2509
 7395TIP3    H243601   0.930   2.535  16.030 -1.1145 -0.2782 -1.8009
 7396TIP3   OH243602   1.272   0.596   1.476  0.6198  0.2565 -0.3490
 7396TIP3    H143603   1.311   0.629   1.557 -0.3770  0.1610  0.1876
 7396TIP3    H243604   1.226   0.516   1.502 -1.2585  1.2051 -0.6201
 7397TIP3   OH243605   5.711   3.315   5.575  0.0492  0.6078 -0.2956
 7397TIP3    H143606   5.661   3.390   5.542 -2.6717 -0.0108  2.0939
 7397TIP3    H243607   5.751   3.347   5.656 -1.5106 -0.5378  0.9884
 7398TIP3   OH243608   4.327   1.943   5.735 -0.4907  0.1894  0.1318
 7398TIP3    H143609   4.327   1.869   5.675 -1.6970 -0.0974  0.4642
 7398TIP3    H243610   4.389   2.005   5.696  0.2809 -0.8342 -0.3205
 7399TIP3   OH243611   1.877   0.237   3.526 -0.4034  0.3217 -0.1084
 7399TIP3    H143612   1.864   0.152   3.485 -1.8351 -0.6338  2.1579
 7399TIP3    H243613   1.796   0.285   3.508 -0.3469  0.5173  0.1557
 7400TIP3   OH243614   0.138   5.781   4.960 -0.2843  0.0520 -0.5205
 7400TIP3    H143615   0.210   5.832   4.925  1.6252 -2.3861 -0.3985
 7400TIP3    H243616   0.073   5.846   4.988  0.9793  2.2469 -2.4330
 7401TIP3   OH243617   1.039   0.628   0.651 -0.3014  0.3987  0.3246
 7401TIP3    H143618   0.959   0.595   0.692 -1.4636  0.6546 -1.6173
 7401TIP3    H243619   1.101   0.555   0.659 -0.7041  0.1767  1.8153
 7402TIP3   OH243620   3.644   2.950   4.421 -0.1525  0.1522 -0.4013
 7402TIP3    H143621   3.616   3.008   4.350 -2.9347  0.2237  0.5940
 7402TIP3    H243622   3.676   3.009   4.489 -0.7676  0.3744 -0.2954
 7403TIP3   OH243623   5.003   5.044  14.577 -0.2551 -0.2660  0.0705
 7403TIP3    H143624   5.089   5.083  14.591 -0.7431  0.3993  1.3829
 7403TIP3    H243625   4.960   5.103  14.514  0.4944 -1.0191 -1.1822
 7404TIP3   OH243626   4.268   5.103  13.083 -0.0396 -0.3625  0.1460
 7404TIP3    H143627   4.237   5.110  13.173  0.1350 -2.3799  0.4173
 7404TIP3    H243628   4.309   5.188  13.065 -3.8356  1.7443  0.4174
 7405TIP3   OH243629   2.813   6.509  17.132 -0.0686 -0.3862 -0.6210
 7405TIP3    H143630   2.723   6.529  17.105 -0.5232  0.1685  1.1884
 7405TIP3    H243631   2.859   6.493  17.050 -1.7715 -0.5129 -1.6045
 7406TIP3   OH243632   6.702   1.423   0.339 -0.2709 -0.3331  0.0749
 7406TIP3    H143633   6.634   1.418   0.272  0.4373 -0.0684 -0.6825
 7406TIP3    H243634   6.665   1.378   0.415 -2.7076  2.7797  0.9377
 7407TIP3   OH243635   5.756   1.167   1.722 -0.3138  0.4905  0.3653
 7407TIP3    H143636   5.787   1.091   1.770  0.0744 -0.3814 -1.1866
 7407TIP3    H243637   5.831   1.194   1.669 -0.7098  1.4209  0.2553
 7408TIP3   OH243638   6.645   2.557   3.686  0.2712  0.0757 -0.2413
 7408TIP3    H143639   6.668   2.582   3.596  0.8883 -0.1914 -0.1596
 7408TIP3    H243640   6.695   2.617   3.741  2.0297 -1.5067 -0.0317
 7409TIP3   OH243641   4.736   5.609   4.226 -0.3349  0.0651  0.3672
 7409TIP3    H143642   4.650   5.598   4.185 -0.9060  1.1953  1.1960
 7409TIP3    H243643   4.717   5.619   4.320  0.5909  1.4535  0.4335
 7410TIP3   OH243644   3.240   1.530  14.103  0.1061 -0.1807 -0.0410
 7410TIP3    H143645   3.179   1.490  14.165  0.0784 -0.4589 -0.2455
 7410TIP3    H243646   3.188   1.597  14.059 -0.3040 -1.0075 -0.8348
 7411TIP3   OH243647   4.686   2.683  15.568  0.1966  0.2119  0.3798
 7411TIP3    H143648   4.691   2.693  15.473 -0.3165 -1.0978  0.1901
 7411TIP3    H243649   4.615   2.741  15.595  0.0231  0.2281 -0.1039
 7412TIP3   OH243650   0.669   4.441  12.092  0.3118  0.7338  0.1188
 7412TIP3    H143651   0.703   4.369  12.038 -1.1039 -0.7378  1.0897
 7412TIP3    H243652   0.576   4.445  12.071 -0.0371  0.8954  1.5792
 7413TIP3   OH243653   4.599   4.368  11.292 -0.0524 -0.0843 -0.3346
 7413TIP3    H143654   4.542   4.445  11.303 -1.5270 -1.1770  0.0182
 7413TIP3    H243655   4.663   4.395  11.226 -0.0945  1.6724  0.2677
 7414TIP3   OH243656   6.253   6.005   1.124  0.0459 -0.3857 -0.3920
 7414TIP3    H143657   6.211   6.028   1.207  0.7074 -0.7849  0.0639
 7414TIP3    H243658   6.309   6.080   1.104 -1.9381  0.7996 -1.7513
 7415TIP3   OH243659   3.096   3.006  14.077  0.0647  0.1697  0.4715
 7415TIP3    H143660   3.000   3.009  14.077  0.0368  3.3849 -0.7794
 7415TIP3    H243661   3.121   3.017  13.985  1.7295 -2.7174  0.4528
 7416TIP3   OH243662   0.342   3.943  14.829  0.0668 -0.0148  0.0077
 7416TIP3    H143663   0.337   3.950  14.925 -0.4932  3.9927 -0.1146
 7416TIP3    H243664   0.413   4.003  14.805  0.4113 -1.2001 -2.1093
 7417TIP3   OH243665   4.793   0.091   2.966 -0.0695 -0.5432 -0.2724
 7417TIP3    H143666   4.701   0.089   2.939 -0.2113 -0.0216  0.1364
 7417TIP3    H243667   4.797   0.032   3.041 -0.6694  1.3910  1.3875
 7418TIP3   OH243668   5.208   4.083  14.881  0.8837  0.7142 -0.4112
 7418TIP3    H143669   5.124   4.036  14.879  0.9626  0.4915  0.6181
 7418TIP3    H243670   5.246   4.068  14.794  0.0776  0.4137 -0.7243
 7419TIP3   OH243671   2.221   0.770  15.919 -0.1742 -0.4959  0.4322
 7419TIP3    H143672   2.302   0.775  15.868  0.0857 -2.0365  0.6381
 7419TIP3    H243673   2.195   0.861  15.932  0.4610 -0.0304 -1.3091
 7420TIP3   OH243674   3.683   6.548  16.509  0.2788 -0.5816  0.5996
 7420TIP3    H143675   3.656   6.514  16.423  0.0090  0.7707  0.1081
 7420TIP3    H243676   3.767   6.505  16.527  1.3419  0.5243 -1.2945
 7421TIP3   OH243677   3.021   1.732   2.713 -0.1452 -0.4625 -0.6552
 7421TIP3    H143678   2.956   1.802   2.706 -0.3261 -0.1720  2.3214
 7421TIP3    H243679   3.105   1.779   2.721 -0.0547 -0.6490 -0.4942
 7422TIP3   OH243680   4.202   2.666   0.811  0.5555 -0.4343  0.4507
 7422TIP3    H143681   4.286   2.708   0.829 -0.9066  1.8701  2.5537
 7422TIP3    H243682   4.143   2.738   0.790 -0.7555 -2.0739 -1.9879
 7423TIP3   OH243683   6.259   4.667   0.736  0.1938 -0.1492 -0.3554
 7423TIP3    H143684   6.345   4.655   0.696  1.8421  1.8431  2.2111
 7423TIP3    H243685   6.249   4.591   0.794  0.2182 -0.3723 -0.6400
 7424TIP3   OH243686   4.828   0.575  12.995 -0.0062 -0.2824  0.2435
 7424TIP3    H143687   4.905   0.523  13.019 -0.0777 -1.3658 -1.6558
 7424TIP3    H243688   4.761   0.549  13.058 -0.0707 -2.6898 -0.7036
 7425TIP3   OH243689   1.179   1.639  16.335 -0.2601 -0.1415 -0.2487
 7425TIP3    H143690   1.104   1.584  16.353  0.3215 -1.1088 -0.7209
 7425TIP3    H243691   1.182   1.646  16.239 -0.1654  0.4877 -0.2087
 7426TIP3   OH243692   0.273   3.448  12.314 -0.1350  0.1157  0.3565
 7426TIP3    H143693   0.216   3.391  12.365 -1.4046 -0.1199 -1.2217
 7426TIP3    H243694   0.318   3.389  12.254 -1.7596  0.6858 -1.5714
 7427TIP3   OH243695   0.134   2.320   6.016  0.2436 -0.7621 -0.2297
 7427TIP3    H143696   0.173   2.366   6.091 -0.8449 -0.4513  0.1653
 7427TIP3    H243697   0.195   2.249   5.997  2.2243  1.0775 -1.1505
 7428TIP3   OH243698   0.577   6.213   3.181 -0.4778 -0.1985 -0.8696
 7428TIP3    H143699   0.619   6.168   3.108  1.1918 -0.0972 -0.0137
 7428TIP3    H243700   0.623   6.182   3.259 -1.5011  0.5026  0.0500
 7429TIP3   OH243701   0.150   3.732   3.775  0.6302 -0.1570 -0.4871
 7429TIP3    H143702   0.179   3.657   3.828  2.0428  0.5334 -0.2330
 7429TIP3    H243703   0.181   3.809   3.824  0.2449  0.5506 -1.3445
 7430TIP3   OH243704   5.586   3.701   5.225  0.0634  0.6208  0.5989
 7430TIP3    H143705   5.659   3.717   5.165 -0.3915  1.0707  0.1525
 7430TIP3    H243706   5.541   3.785   5.231 -1.1573  0.0501 -0.1264
 7431TIP3   OH243707   3.789   3.547   1.164  0.4968  0.5352 -0.0569
 7431TIP3    H143708   3.874   3.518   1.197  1.1266  1.0928 -1.1456
 7431TIP3    H243709   3.774   3.632   1.206  2.0177  1.9922 -2.2398
 7432TIP3   OH243710   3.612   5.042  11.103  0.6578 -0.0659 -0.1062
 7432TIP3    H143711   3.563   5.099  11.045 -2.3355 -1.2701  1.0289
 7432TIP3    H243712   3.639   4.968  11.048 -0.5791 -0.3416 -0.3529
 7433TIP3   OH243713   1.004   0.465  15.675 -0.3773  0.6039  0.4839
 7433TIP3    H143714   0.987   0.388  15.730 -0.0775 -0.5083 -0.9138
 7433TIP3    H243715   1.029   0.428  15.590 -2.1621  2.2282 -0.8352
 7434TIP3   OH243716   6.646   4.229  16.195 -0.2499  0.3261 -0.1667
 7434TIP3    H143717   6.673   4.148  16.240  0.3390 -0.1862 -1.4077
 7434TIP3    H243718   6.552   4.217  16.179  0.2633 -1.1992 -2.4387
 7435TIP3   OH243719   5.000   5.129  13.071  0.1668 -0.3292 -0.6695
 7435TIP3    H143720   5.080   5.181  13.059 -0.6135  0.7248 -1.4253
 7435TIP3    H243721   4.933   5.193  13.094 -0.2711 -1.3310  1.0346
 7436TIP3   OH243722   5.916   1.055  17.087 -0.4487  0.1302  0.3882
 7436TIP3    H143723   5.918   1.149  17.107 -1.0990  0.0685  0.7874
 7436TIP3    H243724   5.963   1.014  17.160  0.2165  0.1742 -0.0083
 7437TIP3   OH243725   0.966   0.003   1.870  0.0062  0.0624 -0.1996
 7437TIP3    H143726   0.996  -0.088   1.870 -2.3669 -0.7826 -1.1868
 7437TIP3    H243727   0.945   0.022   1.779  2.1604  2.2792 -0.3457
 7438TIP3   OH243728   2.483   6.094   3.578  0.2212 -0.1179 -0.3167
 7438TIP3    H143729   2.390   6.115   3.571  0.2898  0.2165 -0.2156
 7438TIP3    H243730   2.525   6.148   3.512  0.8008  2.5990  2.0888
 7439TIP3   OH243731   0.331   2.597   4.975  0.0094 -0.4768 -0.0404
 7439TIP3    H143732   0.420   2.625   4.956 -0.2558 -0.8838 -2.1908
 7439TIP3    H243733   0.318   2.519   4.921 -1.6538 -0.4090  0.1940
 7440TIP3   OH243734   3.071   5.690   6.214  0.7794 -0.0949 -0.3609
 7440TIP3    H143735   3.056   5.785   6.215  1.1586 -0.0330  0.0106
 7440TIP3    H243736   3.042   5.661   6.301 -0.7246 -0.5579 -0.9810
 7441TIP3   OH243737   2.621   4.427  16.130 -0.3862 -0.6666  0.3254
 7441TIP3    H143738   2.531   4.439  16.161 -0.3394  1.4807 -0.2479
 7441TIP3    H243739   2.640   4.507  16.081  2.1397 -0.6662  1.1985
 7442TIP3   OH243740   3.854   6.102  10.944 -0.1245 -0.1350 -0.0750
 7442TIP3    H143741   3.820   6.176  10.894 -1.6847 -1.4027 -0.9802
 7442TIP3    H243742   3.894   6.045  10.878 -0.1914 -0.7677  0.4203
 7443TIP3   OH243743   4.235   0.174   2.626  0.1609  0.4900 -0.5143
 7443TIP3    H143744   4.171   0.179   2.697  0.2767  3.2711 -0.4606
 7443TIP3    H243745   4.196   0.225   2.555  2.3604  2.6302 -0.3443
 7444TIP3   OH243746   1.635   4.773   2.192 -0.3105  0.1157 -0.1956
 7444TIP3    H143747   1.675   4.762   2.278 -0.4586  0.2331 -0.1105
 7444TIP3    H243748   1.602   4.686   2.169 -2.1822  0.4895  0.8240
 7445TIP3   OH243749   6.161   4.691   6.563 -0.7603  0.1789 -0.1939
 7445TIP3    H143750   6.133   4.616   6.616  0.3929 -0.1043  0.0580
 7445TIP3    H243751   6.081   4.739   6.544 -1.8853 -2.2653 -2.2003
 7446TIP3   OH243752   0.345   6.772   0.543 -0.0284 -0.3135  0.3507
 7446TIP3    H143753   0.439   6.790   0.552  0.5505 -1.2186 -2.5790
 7446TIP3    H243754   0.309   6.855   0.509  0.4142 -0.8819 -1.6811
 7447TIP3   OH243755   5.230   4.799   3.765 -0.6106  0.4700  0.5693
 7447TIP3    H143756   5.216   4.722   3.709  0.8877  1.7829 -1.8061
 7447TIP3    H243757   5.292   4.769   3.832  2.0583  0.0726 -1.8507
 7448TIP3   OH243758   6.176   4.515   4.951 -0.3020 -0.2416 -0.4704
 7448TIP3    H143759   6.114   4.488   5.019 -1.4706 -0.8726 -1.7295
 7448TIP3    H243760   6.256   4.467   4.972 -0.4596 -0.0147  0.7517
 7449TIP3   OH243761   1.806   2.202  14.734 -0.2077 -0.6891  0.5566
 7449TIP3    H143762   1.769   2.238  14.815  1.5991 -2.2817  2.1906
 7449TIP3    H243763   1.813   2.108  14.750  1.6653 -0.8461 -0.8374
 7450TIP3   OH243764   1.941   4.191  10.189 -0.6093 -0.1684 -0.4855
 7450TIP3    H143765   1.848   4.217  10.183 -1.0902 -1.7626 -0.3312
 7450TIP3    H243766   1.985   4.269  10.224 -2.0170  0.3699  0.1843
 7451TIP3   OH243767   5.990   1.391   2.798 -0.6266  0.5814 -0.4262
 7451TIP3    H143768   6.007   1.299   2.822  1.2056  1.2627  1.1251
 7451TIP3    H243769   5.998   1.393   2.703  1.7009 -0.4758 -0.3227
 7452TIP3   OH243770   1.221   1.377   3.453 -0.1030  0.0374  0.3933
 7452TIP3    H143771   1.197   1.388   3.545  0.4348 -0.6294  0.6276
 7452TIP3    H243772   1.171   1.300   3.425  0.3771 -0.2769  0.3811
 7453TIP3   OH243773   5.308   2.875  11.829 -0.6522  0.0204  0.0017
 7453TIP3    H143774   5.381   2.921  11.871  0.3234 -1.1732 -0.3382
 7453TIP3    H243775   5.320   2.894  11.735 -0.1469 -1.0273 -0.1585
 7454TIP3   OH243776   3.759   1.996   3.288 -0.4172  0.0834 -0.0473
 7454TIP3    H143777   3.822   2.050   3.335  0.0049 -0.0927 -0.4046
 7454TIP3    H243778   3.684   1.990   3.347  0.0381  0.0076  0.5318
 7455TIP3   OH243779   3.136   5.678  15.098  0.4441 -0.6273  0.1181
 7455TIP3    H143780   3.176   5.725  15.172 -0.3858  1.5754 -0.7402
 7455TIP3    H243781   3.210   5.647  15.046  1.0208 -1.0253  1.1400
 7456TIP3   OH243782   4.761   3.200  11.950 -0.1196  0.0910  0.3371
 7456TIP3    H143783   4.708   3.274  11.919  1.2237  0.6177 -0.7947
 7456TIP3    H243784   4.704   3.124  11.940 -1.1764  0.8301  0.5584
 7457TIP3   OH243785   4.754   2.346   1.245  0.0225 -0.3230  0.0226
 7457TIP3    H143786   4.691   2.307   1.306 -1.4601  0.0916 -1.1991
 7457TIP3    H243787   4.773   2.432   1.283 -0.3872 -0.3193  0.2233
 7458TIP3   OH243788   5.685   2.990   3.011  0.2564 -0.1869 -0.5502
 7458TIP3    H143789   5.602   2.944   3.019  1.1177 -2.1429 -1.9256
 7458TIP3    H243790   5.663   3.075   2.975 -1.0467 -1.2601 -2.4190
 7459TIP3   OH243791   0.726   2.512  14.197  0.6306  0.3403  0.4236
 7459TIP3    H143792   0.675   2.593  14.200  0.8285  0.5628 -1.1022
 7459TIP3    H243793   0.663   2.443  14.216 -0.3707  0.5868 -1.6942
 7460TIP3   OH243794   5.138   5.278   0.952  1.0550  0.5971 -0.5295
 7460TIP3    H143795   5.230   5.286   0.980  0.7505  0.1459  0.6967
 7460TIP3    H243796   5.137   5.202   0.893  1.2059 -0.5360  0.8626
 7461TIP3   OH243797   3.193   3.844  11.987  0.5180 -0.0479 -0.4076
 7461TIP3    H143798   3.148   3.797  12.058  2.5606 -0.0345  0.9559
 7461TIP3    H243799   3.157   3.805  11.907 -1.3092 -0.5836  0.5983
 7462TIP3   OH243800   1.895   1.228  13.197  0.1991  0.4016  0.3370
 7462TIP3    H143801   1.837   1.160  13.234  0.6341  0.0074  0.3034
 7462TIP3    H243802   1.907   1.201  13.106 -0.1149  0.8585  0.1588
 7463TIP3   OH243803   2.505   4.332   4.111  0.5170  0.6283  0.1392
 7463TIP3    H143804   2.591   4.314   4.148  2.2971  0.1189 -3.7683
 7463TIP3    H243805   2.469   4.245   4.092 -0.9533  0.8379  1.6696
 7464TIP3   OH243806   0.440   0.217  14.846  0.0294 -0.0634  0.1970
 7464TIP3    H143807   0.382   0.153  14.804 -0.7264  0.4932  0.3671
 7464TIP3    H243808   0.433   0.197  14.939  0.2773 -0.1277  0.2016
 7465TIP3   OH243809   4.264   2.354   4.888  0.8353  0.1885  0.4025
 7465TIP3    H143810   4.299   2.313   4.967 -0.0524 -0.5973  0.4096
 7465TIP3    H243811   4.175   2.320   4.881  1.4664 -1.2535 -1.9171
 7466TIP3   OH243812   0.697   0.982   3.998  0.0843 -0.6965 -0.1031
 7466TIP3    H143813   0.708   0.930   4.077  0.9748 -0.9755 -0.4036
 7466TIP3    H243814   0.776   1.036   3.994  0.4218 -1.2518 -1.2204
 7467TIP3   OH243815   6.152   6.012   2.260  1.0086  0.1989  0.2344
 7467TIP3    H143816   6.216   6.018   2.189  1.3625  1.2242  0.6142
 7467TIP3    H243817   6.086   5.950   2.228  2.3427 -1.1324 -0.0363
 7468TIP3   OH243818   4.878   5.014   5.380 -0.8396 -0.2082 -0.0451
 7468TIP3    H143819   4.865   5.096   5.333 -0.3845  0.5782  1.1486
 7468TIP3    H243820   4.916   5.040   5.464 -2.2450 -1.4922  1.0477
 7469TIP3   OH243821   6.118   3.403  11.752 -0.1227 -0.2499  0.2762
 7469TIP3    H143822   6.061   3.364  11.685  0.5279 -0.8072  0.0387
 7469TIP3    H243823   6.057   3.436  11.819 -0.6972 -1.8265  0.5761
 7470TIP3   OH243824   2.269   2.494  13.883 -0.4005  0.2508 -0.2535
 7470TIP3    H143825   2.199   2.543  13.926 -0.4405 -1.3545  1.6216
 7470TIP3    H243826   2.323   2.562  13.841 -1.7258  1.7028  0.2851
 7471TIP3   OH243827   3.987   6.772   6.319  0.3048  0.6877 -0.1209
 7471TIP3    H143828   4.078   6.742   6.317  0.0577 -0.1213  0.1643
 7471TIP3    H243829   3.972   6.798   6.410  0.6067  2.0087 -0.4312
 7472TIP3   OH243830   5.370   0.827  13.274 -0.2545  0.0287 -0.1103
 7472TIP3    H143831   5.302   0.785  13.326  1.5780  0.2593  2.6504
 7472TIP3    H243832   5.324   0.862  13.198 -3.1548 -0.0864  1.4738
 7473TIP3   OH243833   2.825   2.296   3.892 -0.2353 -0.0958  0.4530
 7473TIP3    H143834   2.825   2.208   3.855  1.3575  0.6577 -1.5370
 7473TIP3    H243835   2.757   2.342   3.843 -1.3381 -0.2732  1.7602
 7474TIP3   OH243836   4.844   2.393   4.460 -0.1790 -0.0004 -0.9471
 7474TIP3    H143837   4.797   2.463   4.415 -1.0774 -0.2353 -0.3978
 7474TIP3    H243838   4.933   2.426   4.468 -0.2914  0.5513 -1.8134
 7475TIP3   OH243839   5.223   4.492  14.391 -0.1832 -0.1005 -0.3673
 7475TIP3    H143840   5.288   4.432  14.428 -0.6966 -1.3357 -1.3979
 7475TIP3    H243841   5.274   4.567  14.361  0.5797 -0.4025  0.1415
 7476TIP3   OH243842   6.542   4.438   0.128 -0.8980 -0.0201  0.3784
 7476TIP3    H143843   6.622   4.392   0.101 -0.1383 -0.2664  2.8027
 7476TIP3    H243844   6.471   4.382   0.097 -0.1603 -0.0703 -1.3518
 7477TIP3   OH243845   4.146   6.623   0.248 -0.2335  0.2569  0.0944
 7477TIP3    H143846   4.216   6.559   0.234  0.7148  1.1443  0.6210
 7477TIP3    H243847   4.065   6.574   0.232  0.5099 -0.0353 -3.7158
 7478TIP3   OH243848   0.822   1.738   1.407  0.2377  0.6007 -0.1531
 7478TIP3    H143849   0.780   1.797   1.344  0.0747  0.9386  0.2678
 7478TIP3    H243850   0.805   1.650   1.372  0.4098  0.7940 -0.7403
 7479TIP3   OH243851   2.137   6.745  13.582 -0.0441  0.2661  0.5256
 7479TIP3    H143852   2.051   6.729  13.622  0.7950 -1.7603  1.6668
 7479TIP3    H243853   2.185   6.795  13.648 -0.1166  0.8462  0.1461
 7480TIP3   OH243854   2.102   5.879   2.661 -0.5053  0.3174  0.1649
 7480TIP3    H143855   2.130   5.924   2.741 -0.1421  0.2952  0.0529
 7480TIP3    H243856   2.007   5.869   2.671 -0.6651  1.5219 -0.0216
 7481TIP3   OH243857   6.735   2.844   3.002  0.1388 -0.1336  0.2850
 7481TIP3    H143858   6.667   2.886   2.948  1.0793  1.2833  0.1432
 7481TIP3    H243859   6.793   2.802   2.939 -0.0889 -0.5439  0.3482
 7482TIP3   OH243860   1.700   5.156  12.389  0.1509  0.2837  0.2698
 7482TIP3    H143861   1.610   5.138  12.362  0.9181  0.5245 -2.8669
 7482TIP3    H243862   1.712   5.249  12.369  0.9001  0.4322  1.3390
 7483TIP3   OH243863   1.515   4.353  16.083  0.1037 -0.2930 -0.1537
 7483TIP3    H143864   1.525   4.260  16.102 -1.0378 -0.0584  1.8971
 7483TIP3    H243865   1.596   4.393  16.116 -0.0706 -0.3909  0.4018
 7484TIP3   OH243866   0.471   4.030  15.684  0.2167  0.0637  0.4186
 7484TIP3    H143867   0.382   4.058  15.705  0.2651 -0.6988  1.7605
 7484TIP3    H243868   0.518   4.034  15.767  1.6818  1.2344 -0.4201
 7485TIP3   OH243869   5.856   0.842  14.183 -0.6384  0.4209 -0.1038
 7485TIP3    H143870   5.813   0.902  14.243 -0.1079  1.0511 -0.3469
 7485TIP3    H243871   5.787   0.781  14.157 -1.2551  1.0962 -0.0792
 7486TIP3   OH243872   6.466   5.192  13.065  0.1461 -0.1098 -0.5504
 7486TIP3    H143873   6.455   5.141  12.985 -1.5397 -0.2520 -0.2652
 7486TIP3    H243874   6.422   5.275  13.046  0.0307 -0.0166  0.1083
 7487TIP3   OH243875   1.084   4.688  14.008 -0.6106  0.1453  0.3901
 7487TIP3    H143876   1.094   4.704  14.102 -0.4088  2.4960  0.0249
 7487TIP3    H243877   1.110   4.770  13.967 -0.3299 -0.9594 -1.7647
 7488TIP3   OH243878   0.109   3.133   6.910 -0.1662  0.0786  0.0996
 7488TIP3    H143879   0.126   3.132   6.815 -0.7635 -1.9780 -0.0439
 7488TIP3    H243880   0.040   3.197   6.921  0.6313  1.1210 -0.6899
 7489TIP3   OH243881   3.354   1.814   3.859  0.2395 -0.2766 -0.1070
 7489TIP3    H143882   3.320   1.880   3.798  0.6303 -0.2953 -0.3483
 7489TIP3    H243883   3.276   1.771   3.893 -0.1528  1.4285  1.3371
 7490TIP3   OH243884   3.298   6.476   5.600  0.3912 -0.3965 -0.2471
 7490TIP3    H143885   3.218   6.433   5.631  0.7063  0.3810  1.8129
 7490TIP3    H243886   3.273   6.517   5.517 -0.5924 -2.3670 -0.9691
 7491TIP3   OH243887   6.065   5.185  15.659 -0.1127 -0.1013 -0.2213
 7491TIP3    H143888   6.116   5.266  15.664  1.4342 -1.0870  2.6486
 7491TIP3    H243889   6.125   5.122  15.619 -2.2959  0.6106 -5.3469
 7492TIP3   OH243890   5.307   0.953   4.864 -0.6850  0.4519 -0.5873
 7492TIP3    H143891   5.289   0.869   4.907 -1.7205  1.2487  0.5889
 7492TIP3    H243892   5.250   0.953   4.787  0.0147 -0.3077 -1.1274
 7493TIP3   OH243893   1.673   4.592  12.764 -0.3419  0.5537 -0.0033
 7493TIP3    H143894   1.761   4.626  12.751  1.5196 -2.9455  1.7902
 7493TIP3    H243895   1.636   4.647  12.833  0.4755  1.9585 -0.6439
 7494TIP3   OH243896   0.194   1.941   2.476  0.3005  0.5728 -0.3650
 7494TIP3    H143897   0.155   1.980   2.398  0.2798  0.7506 -0.2680
 7494TIP3    H243898   0.288   1.957   2.466  0.1594  2.3473  0.5600
 7495TIP3   OH243899   6.494   2.227   5.933  0.1087 -0.3634 -0.1621
 7495TIP3    H143900   6.551   2.300   5.958 -0.2017 -0.6585  1.5038
 7495TIP3    H243901   6.491   2.232   5.837  1.3541  0.8407 -0.1837
 7496TIP3   OH243902   0.655   5.740   5.714 -0.2005 -0.0064 -0.1583
 7496TIP3    H143903   0.717   5.802   5.752 -0.0246 -0.2068 -0.1125
 7496TIP3    H243904   0.610   5.789   5.645  1.8565 -0.5530 -2.0170
 7497TIP3   OH243905   3.174   0.238   0.532  0.5793  0.2416 -0.0265
 7497TIP3    H143906   3.224   0.180   0.475 -0.3089  1.4619 -2.1692
 7497TIP3    H243907   3.084   0.206   0.527  0.4308  0.5715  0.4027
 7498TIP3   OH243908   4.935   3.011   3.231  0.0800  0.2343 -0.3903
 7498TIP3    H143909   4.866   3.077   3.223 -0.0304  0.7394  3.2111
 7498TIP3    H243910   4.889   2.927   3.235 -0.0436  0.2570 -1.0993
 7499TIP3   OH243911   5.956   1.295  15.856 -0.4713 -0.2822  0.4111
 7499TIP3    H143912   5.928   1.387  15.857  0.9257  0.1636  0.8885
 7499TIP3    H243913   5.970   1.277  15.763 -2.8524 -0.7259  0.0765
 7500TIP3   OH243914   5.959   3.136  14.826  0.5992 -0.2793  0.0495
 7500TIP3    H143915   5.910   3.213  14.797 -0.0081 -0.7219 -0.1185
 7500TIP3    H243916   5.953   3.075  14.753 -0.6008 -1.2543  0.9117
 7501TIP3   OH243917   3.253   2.835  15.042  0.2645 -0.6720 -0.1055
 7501TIP3    H143918   3.236   2.746  15.011  0.4459 -1.1963  1.2217
 7501TIP3    H243919   3.348   2.838  15.055  0.4488  0.1952 -1.5044
 7502TIP3   OH243920   4.176   1.145   4.348 -0.2072  0.7513 -0.1256
 7502TIP3    H143921   4.195   1.117   4.258  0.0269  0.6585 -0.0479
 7502TIP3    H243922   4.250   1.112   4.399 -0.5039  0.5188  0.1542
 7503TIP3   OH243923   5.581   4.427   3.909  0.1884  0.0726  0.1263
 7503TIP3    H143924   5.560   4.489   3.838 -0.6829 -0.4916 -0.1252
 7503TIP3    H243925   5.672   4.403   3.893 -0.4741 -1.3771 -1.8737
 7504TIP3   OH243926   0.254   5.794   1.327  0.1681 -0.4756  0.5516
 7504TIP3    H143927   0.342   5.825   1.308 -1.0626  2.8932 -0.4779
 7504TIP3    H243928   0.226   5.846   1.402 -1.8396  0.6439 -0.8643
 7505TIP3   OH243929   2.838   5.022  13.080  0.1688 -0.9645 -0.3783
 7505TIP3    H143930   2.835   4.934  13.043 -0.9660 -0.6194 -1.1756
 7505TIP3    H243931   2.850   5.080  13.004  0.5065 -0.4056  0.0893
 7506TIP3   OH243932   6.408   3.404   0.492  0.4208 -0.8167 -0.4826
 7506TIP3    H143933   6.341   3.339   0.470  0.3452 -0.8636 -0.1208
 7506TIP3    H243934   6.489   3.367   0.457  0.4853 -1.4128  0.2729
 7507TIP3   OH243935   2.688   6.722   0.538 -0.2199 -0.0731 -0.0496
 7507TIP3    H143936   2.747   6.765   0.600 -0.3740  1.4040 -0.8959
 7507TIP3    H243937   2.661   6.792   0.478 -0.0619 -1.4589 -1.8075
 7508TIP3   OH243938   6.335   1.043  14.145 -0.5303  0.7333  0.4129
 7508TIP3    H143939   6.332   0.954  14.109  1.5052  1.2401 -1.1853
 7508TIP3    H243940   6.326   1.100  14.069  0.8110  1.8576  1.0465
 7509TIP3   OH243941   3.980   3.461   3.119 -0.1456 -0.2766 -0.4288
 7509TIP3    H143942   4.031   3.509   3.053 -0.3829  0.0539 -0.3765
 7509TIP3    H243943   4.046   3.419   3.174  0.0498 -0.8483 -1.0882
 7510TIP3   OH243944   6.493   0.863   2.558  0.1438 -0.2320  0.0340
 7510TIP3    H143945   6.581   0.854   2.593  1.5294 -0.3441 -3.1223
 7510TIP3    H243946   6.493   0.949   2.515 -0.7225 -0.8572 -1.2917
 7511TIP3   OH243947   3.294   3.775  12.395 -0.4058  0.0342  0.0609
 7511TIP3    H143948   3.320   3.841  12.331 -0.3100  1.5069  1.5404
 7511TIP3    H243949   3.308   3.817  12.480 -3.0903 -0.8229  1.0416
 7512TIP3   OH243950   2.068   4.004  15.119 -0.0005  0.4011 -0.0108
 7512TIP3    H143951   2.032   4.090  15.095 -1.9807 -0.3963 -0.0002
 7512TIP3    H243952   2.009   3.971  15.186  0.7315 -1.0057 -0.0356
 7513TIP3   OH243953   0.745   2.181  11.218 -0.0637 -0.1117 -0.0905
 7513TIP3    H143954   0.799   2.101  11.222  0.6421  0.3475 -0.1963
 7513TIP3    H243955   0.807   2.250  11.194 -0.9870  0.1560 -1.8688
 7514TIP3   OH243956   5.390   3.895  15.279  0.5466  0.0378  0.2969
 7514TIP3    H143957   5.325   3.953  15.319 -0.5443 -0.3418 -0.8670
 7514TIP3    H243958   5.427   3.847  15.353 -1.2622 -0.5067  0.9193
 7515TIP3   OH243959   3.475   6.438   3.564 -0.3753 -0.2894 -0.0020
 7515TIP3    H143960   3.551   6.455   3.619 -0.3077 -0.5129 -0.0236
 7515TIP3    H243961   3.493   6.485   3.483  0.0321 -0.8466 -0.2438
 7516TIP3   OH243962   2.121   2.860   1.397  0.5306 -0.5870  0.3691
 7516TIP3    H143963   2.098   2.877   1.305  1.9934 -0.2558  0.0456
 7516TIP3    H243964   2.048   2.807   1.430 -0.2028 -0.4029 -0.8723
 7517TIP3   OH243965   3.739   3.288  14.265 -0.1948 -0.5565  0.4537
 7517TIP3    H143966   3.826   3.313  14.296 -0.3804 -0.1194  0.6316
 7517TIP3    H243967   3.715   3.213  14.319  0.1455 -0.8007  0.2743
 7518TIP3   OH243968   6.330   1.887   2.868  0.2731  0.1180  0.4368
 7518TIP3    H143969   6.395   1.900   2.799 -0.4954  1.9256 -0.0157
 7518TIP3    H243970   6.287   1.805   2.845  0.3447  0.4615 -0.9890
 7519TIP3   OH243971   5.781   0.687   1.423 -0.3911  0.2177 -0.2201
 7519TIP3    H143972   5.840   0.717   1.492 -0.6706 -0.4703  0.3377
 7519TIP3    H243973   5.720   0.628   1.468 -2.1880  1.7192 -0.5371
 7520TIP3   OH243974   3.927   3.785  13.164  0.4731 -0.2651 -0.1021
 7520TIP3    H143975   3.980   3.706  13.151 -0.3345 -0.4405 -2.9811
 7520TIP3    H243976   3.983   3.844  13.213  1.7027 -2.0223  0.6997
 7521TIP3   OH243977   0.381   0.592  15.479  0.4572 -0.3972 -0.2230
 7521TIP3    H143978   0.414   0.585  15.569 -0.7235  0.6469  0.3256
 7521TIP3    H243979   0.385   0.685  15.459  1.3165 -0.6890 -1.5192
 7522TIP3   OH243980   0.310   2.173  10.232 -0.2794 -0.1446  0.6545
 7522TIP3    H143981   0.319   2.262  10.265 -0.2646  0.2780 -0.4345
 7522TIP3    H243982   0.253   2.129  10.295  1.3454  0.0198  2.3116
 7523TIP3   OH243983   3.851   0.915  12.410  0.4650 -0.0332  0.2956
 7523TIP3    H143984   3.892   0.934  12.495 -0.3676  1.1481  0.4530
 7523TIP3    H243985   3.886   0.830  12.386 -0.1451 -0.9624  2.3904
 7524TIP3   OH243986   3.909   5.428  13.959 -0.6334 -0.2246  0.0886
 7524TIP3    H143987   3.850   5.487  13.912 -0.2910  1.1310  1.2837
 7524TIP3    H243988   3.987   5.481  13.975 -0.1866 -1.1155  0.9076
 7525TIP3   OH243989   2.376   6.788  11.944 -0.4817  0.1559  0.1913
 7525TIP3    H143990   2.328   6.826  12.017 -1.4802 -0.7873  0.0638
 7525TIP3    H243991   2.426   6.716  11.983 -1.5825 -0.8140 -0.1424
 7526TIP3   OH243992   5.935   6.099  13.281 -0.4720  0.6683 -0.3910
 7526TIP3    H143993   5.992   6.051  13.221 -0.0637  0.4731  0.1457
 7526TIP3    H243994   5.847   6.090  13.243 -0.7998 -2.3987  0.7855
 7527TIP3   OH243995   4.903   0.926   5.064 -0.0573 -1.3647  0.3402
 7527TIP3    H143996   4.982   0.971   5.091 -0.7363  0.1818 -0.1247
 7527TIP3    H243997   4.879   0.871   5.139 -0.7811  1.2451  2.1608
 7528TIP3   OH243998   6.266   6.630  13.521  0.0907 -0.5510  0.7483
 7528TIP3    H143999   6.234   6.604  13.608  0.4786 -0.9216  0.7848
 7528TIP3    H244000   6.346   6.579  13.509  0.7625  0.4930  0.7296
 7529TIP3   OH244001   0.112   6.657  13.768  0.0697  0.0442  0.3778
 7529TIP3    H144002   0.130   6.745  13.737  0.9114  0.2649  1.4447
 7529TIP3    H244003   0.183   6.603  13.733 -0.0572 -0.0747  0.3022
 7530TIP3   OH244004   2.989   2.929   5.881 -0.0417  0.5918 -0.2044
 7530TIP3    H144005   3.073   2.967   5.909  1.6226  0.1913 -4.0465
 7530TIP3    H244006   2.995   2.837   5.906 -0.5997  1.0959  1.9638
 7531TIP3   OH244007   4.717   0.022  15.142  0.1511 -0.1958  0.1287
 7531TIP3    H144008   4.791   0.034  15.084  0.6790 -0.5507  0.7179
 7531TIP3    H244009   4.640   0.038  15.087  0.6386 -0.5500 -0.6652
 7532TIP3   OH244010   4.743   0.259   5.174  0.0495 -0.4226  0.1778
 7532TIP3    H144011   4.677   0.227   5.112  0.2877 -1.7917  0.5981
 7532TIP3    H244012   4.823   0.266   5.122  0.0610 -0.7960  0.1427
 7533TIP3   OH244013   0.848   0.972  16.921  0.3421  0.1691 -0.1520
 7533TIP3    H144014   0.842   0.877  16.931  0.5607 -0.2062 -2.8914
 7533TIP3    H244015   0.758   1.002  16.910  0.3091  0.2271  0.2640
 7534TIP3   OH244016   4.525   4.000   3.868 -0.6183  0.0776  0.5297
 7534TIP3    H144017   4.478   3.917   3.854  0.4098 -0.7155  1.5976
 7534TIP3    H244018   4.546   4.000   3.961 -1.5227  2.0682  0.7723
 7535TIP3   OH244019   4.056   0.036  12.205  0.0565  0.4394  0.8266
 7535TIP3    H144020   3.999  -0.025  12.252  1.8056 -3.0156 -1.0490
 7535TIP3    H244021   4.004   0.066  12.131 -0.2625 -0.3862  0.7032
 7536TIP3   OH244022   5.269   3.904  14.147 -0.0402  0.3606 -0.4983
 7536TIP3    H144023   5.321   3.824  14.155  2.6434  2.0798  0.7977
 7536TIP3    H244024   5.281   3.932  14.056  2.4644  1.3630  0.0728
 7537TIP3   OH244025   1.026   5.098  11.858 -0.2443  0.0730  0.0055
 7537TIP3    H144026   1.052   5.169  11.917  0.7515 -0.7124  0.5565
 7537TIP3    H244027   1.093   5.099  11.789 -1.0344  0.5711 -0.7596
 7538TIP3   OH244028   2.309   1.652   4.819  0.2420 -0.6693  0.0778
 7538TIP3    H144029   2.238   1.659   4.882 -0.9431 -2.2860 -1.0048
 7538TIP3    H244030   2.363   1.580   4.851  0.5105 -0.4880  0.0424
 7539TIP3   OH244031   4.465   6.332   1.270 -0.0272 -0.1763  0.4070
 7539TIP3    H144032   4.437   6.340   1.179 -2.1789  0.0952  1.0455
 7539TIP3    H244033   4.547   6.382   1.274  1.0796 -1.6593 -1.7220
 7540TIP3   OH244034   6.365   0.897   5.893  0.3898  0.0606 -0.0984
 7540TIP3    H144035   6.359   0.969   5.831 -1.2812  0.7681  0.8257
 7540TIP3    H244036   6.459   0.889   5.912  0.5709  2.3682  0.1920
 7541TIP3   OH244037   3.877   4.323   5.373  0.1545  0.4538  0.1087
 7541TIP3    H144038   3.884   4.286   5.461  0.7675 -0.3262 -0.2571
 7541TIP3    H244039   3.792   4.367   5.372  0.3933  0.9897  1.2837
 7542TIP3   OH244040   3.923   2.439  11.059  0.5378  0.2978  0.4017
 7542TIP3    H144041   3.949   2.348  11.042 -0.5144 -0.2985  1.8368
 7542TIP3    H244042   4.000   2.490  11.033  0.2372 -0.7053 -3.0397
 7543TIP3   OH244043   3.522   6.631  13.248 -0.5331  0.5119  0.2614
 7543TIP3    H144044   3.512   6.580  13.328  1.2234  0.7347  0.6527
 7543TIP3    H244045   3.503   6.569  13.177  1.3201 -0.6604  0.7310
 7544TIP3   OH244046   5.258   1.556  14.375 -0.2378  0.0615  0.3240
 7544TIP3    H144047   5.171   1.538  14.409 -0.9383  1.0482 -0.8848
 7544TIP3    H244048   5.246   1.627  14.312  1.6374  1.2270  1.1475
 7545TIP3   OH244049   6.190   1.720   5.648 -0.3751 -0.0832 -0.2930
 7545TIP3    H144050   6.176   1.637   5.694  0.8922  0.6910  1.6167
 7545TIP3    H244051   6.282   1.718   5.622 -0.3522  0.6895 -0.2988
 7546TIP3   OH244052   3.461   5.438  14.258 -0.3434  0.2008 -0.4420
 7546TIP3    H144053   3.462   5.420  14.352  1.0252 -3.1318 -0.9474
 7546TIP3    H244054   3.369   5.455  14.237 -0.7072  0.7424  1.4197
 7547TIP3   OH244055   1.491   2.975   5.291 -0.0472  0.8870  0.2557
 7547TIP3    H144056   1.419   2.952   5.232  0.6873 -0.4202 -0.1695
 7547TIP3    H244057   1.547   3.033   5.239  0.9893 -0.8452 -0.6628
 7548TIP3   OH244058   4.417   5.532   4.334  0.2970 -1.1348  0.6586
 7548TIP3    H144059   4.360   5.461   4.362  0.3215 -0.5404  2.3427
 7548TIP3    H244060   4.378   5.611   4.373  2.1502 -0.6961  1.7666
 7549TIP3   OH244061   4.953   1.389   1.089  0.0540  0.0222 -0.5430
 7549TIP3    H144062   5.043   1.363   1.067  0.3643  1.4178 -1.0278
 7549TIP3    H244063   4.944   1.477   1.052 -1.3137  0.1483  0.0393
 7550TIP3   OH244064   1.234   2.086  14.229  0.1895  0.0025  0.0650
 7550TIP3    H144065   1.314   2.035  14.215  0.4403  0.9517 -2.4904
 7550TIP3    H244066   1.164   2.021  14.231  0.5525 -0.5966 -2.5823
 7551TIP3   OH244067   0.756   1.012  16.634  0.0634 -0.0107 -0.4850
 7551TIP3    H144068   0.832   0.970  16.592 -1.0149 -1.5966 -0.9611
 7551TIP3    H244069   0.762   0.985  16.726  0.8389  1.0830 -0.1865
 7552TIP3   OH244070   3.324   1.274   0.685 -0.1455 -0.0371 -0.2466
 7552TIP3    H144071   3.412   1.308   0.671  0.2928 -0.8523  0.4000
 7552TIP3    H244072   3.275   1.347   0.724  0.5024  0.1411  0.2441
 7553TIP3   OH244073   2.972   6.119   1.525 -0.0641 -0.4250  0.3517
 7553TIP3    H144074   2.907   6.071   1.578  1.0084 -2.4315 -0.0544
 7553TIP3    H244075   3.036   6.052   1.501  1.0775  1.0973 -0.9586
 7554TIP3   OH244076   1.751   6.235   1.295 -0.2290 -0.8935 -0.1006
 7554TIP3    H144077   1.731   6.148   1.261  0.5439 -0.9676 -0.3952
 7554TIP3    H244078   1.767   6.288   1.216  0.0132 -0.6704  0.0964
 7555TIP3   OH244079   4.397   2.574   1.795 -0.2786 -0.8743  0.0773
 7555TIP3    H144080   4.423   2.648   1.850 -1.3340 -1.3336  1.2425
 7555TIP3    H244081   4.466   2.568   1.729  0.6186  0.1956  0.8807
 7556TIP3   OH244082   3.396   3.010   2.295 -0.6047  0.2738 -0.3684
 7556TIP3    H144083   3.403   2.990   2.202  0.1878 -0.6044 -0.1418
 7556TIP3    H244084   3.482   2.988   2.330 -0.7228  1.0990  0.4909
 7557TIP3   OH244085   5.543   2.393   2.366  0.0367 -0.5898 -0.1834
 7557TIP3    H144086   5.467   2.423   2.416 -1.3152 -0.4534 -2.1909
 7557TIP3    H244087   5.579   2.472   2.326  1.3223 -0.6440  0.8239
 7558TIP3   OH244088   3.499   2.595   5.758  0.9197  0.6083 -0.4785
 7558TIP3    H144089   3.439   2.661   5.721 -1.1791 -1.2933 -0.6929
 7558TIP3    H244090   3.465   2.580   5.847  0.2287 -1.3817 -1.0255
 7559TIP3   OH244091   3.276   3.081   3.969 -0.1476 -0.5162 -0.1138
 7559TIP3    H144092   3.206   3.015   3.969 -0.3925 -0.2722  0.7624
 7559TIP3    H244093   3.247   3.146   4.033 -0.1245  0.6855 -1.2734
 7560TIP3   OH244094   5.341   4.970  15.046 -0.3350  0.4195 -0.6269
 7560TIP3    H144095   5.396   4.908  14.997 -0.1022  1.3210 -1.5355
 7560TIP3    H244096   5.384   5.055  15.034  0.2275  0.5699  1.8891
 7561TIP3   OH244097   1.920   3.885   4.042  0.0703 -0.4930  0.1535
 7561TIP3    H144098   1.852   3.871   3.976  1.1003 -0.5751 -0.9308
 7561TIP3    H244099   1.903   3.819   4.108 -1.0084 -0.3917  0.0044
 7562TIP3   OH244100   3.285   3.679   2.584 -0.1878 -0.3634  0.4746
 7562TIP3    H144101   3.253   3.677   2.675  0.4820 -0.1056  0.7189
 7562TIP3    H244102   3.300   3.587   2.562  1.0270 -0.3407  1.1283
 7563TIP3   OH244103   4.644   6.131  15.010  0.4544 -0.0043 -0.3088
 7563TIP3    H144104   4.659   6.048  14.964 -0.6680  0.2735 -1.2396
 7563TIP3    H244105   4.576   6.175  14.958  0.6445  1.2617  0.4689
 7564TIP3   OH244106   2.087   2.233  15.895 -0.0603 -0.1364 -0.0570
 7564TIP3    H144107   1.994   2.210  15.897 -0.1365  0.1600 -0.1113
 7564TIP3    H244108   2.127   2.165  15.841 -0.3178 -0.0165 -0.4046
 7565TIP3   OH244109   2.967   6.581  10.947  0.4701  0.5341  0.1659
 7565TIP3    H144110   2.901   6.577  10.878 -0.8119 -1.2336  1.4074
 7565TIP3    H244111   3.027   6.510  10.928  0.4311  0.3957  0.5421
 7566TIP3   OH244112   2.081   3.611   4.084 -0.2722 -0.0482 -0.0740
 7566TIP3    H144113   2.011   3.600   4.020  0.9487 -0.5395 -1.3952
 7566TIP3    H244114   2.135   3.682   4.048  0.6262 -0.5747  0.1926
 7567TIP3   OH244115   5.609   1.521  11.138 -0.4225  0.1625  0.0620
 7567TIP3    H144116   5.621   1.428  11.154  2.4089  0.6121  1.0641
 7567TIP3    H244117   5.625   1.533  11.044 -1.5863 -0.4207 -0.2277
 7568TIP3   OH244118   6.152   1.792  16.448 -0.1755 -0.1069  0.2609
 7568TIP3    H144119   6.214   1.864  16.460 -0.7732  0.4232  0.1993
 7568TIP3    H244120   6.182   1.747  16.368 -0.7908  1.1039 -0.6725
 7569TIP3   OH244121   1.526   1.677  12.945  0.1837 -0.2361 -0.2307
 7569TIP3    H144122   1.546   1.770  12.958  2.3118 -0.7117  0.2644
 7569TIP3    H244123   1.431   1.671  12.959 -0.1267  1.9469 -0.9584
 7570TIP3   OH244124   3.838   4.355   0.591 -1.0492  0.1910  0.0968
 7570TIP3    H144125   3.886   4.407   0.527  0.3812 -1.5550 -0.3426
 7570TIP3    H244126   3.786   4.294   0.539 -2.1339  0.6642  0.6018
 7571TIP3   OH244127   5.570   0.351  11.006 -0.0348 -0.1866 -0.8530
 7571TIP3    H144128   5.528   0.294  10.941 -0.7345 -0.7144  0.0319
 7571TIP3    H244129   5.660   0.360  10.976  0.4267 -2.7170 -0.4418
 7572TIP3   OH244130   0.412   0.107  13.091 -0.3959 -0.3342 -0.1050
 7572TIP3    H144131   0.445   0.019  13.112 -0.9938 -0.2752  1.1680
 7572TIP3    H244132   0.367   0.096  13.007 -0.8492 -1.3533  0.2530
 7573TIP3   OH244133   4.409   4.277   4.020 -0.5010 -0.2267  0.4753
 7573TIP3    H144134   4.436   4.326   4.097  2.0985  0.6774 -0.8624
 7573TIP3    H244135   4.326   4.317   3.993 -0.2024  1.0843  1.4281
 7574TIP3   OH244136   0.578   0.091   3.152 -0.0353 -0.2518 -0.2899
 7574TIP3    H144137   0.554   0.179   3.181 -0.4640 -0.5539  0.3119
 7574TIP3    H244138   0.549   0.087   3.061 -2.5602 -0.6358  0.4245
 7575TIP3   OH244139   2.606   5.506  13.885  0.0675 -0.1587  0.2054
 7575TIP3    H144140   2.511   5.496  13.878 -0.0254  0.3459  0.7048
 7575TIP3    H244141   2.623   5.595  13.855  0.2984  0.0171  0.8459
 7576TIP3   OH244142   6.715   0.071  12.105  0.3987  0.2685 -0.3522
 7576TIP3    H144143   6.665  -0.009  12.086  2.2181 -0.9203 -0.3457
 7576TIP3    H244144   6.743   0.061  12.196  0.3673  1.0790 -0.2472
 7577TIP3   OH244145   2.593   1.348  15.327  0.6380  0.5538 -0.0467
 7577TIP3    H144146   2.591   1.434  15.368  0.3870  1.5461 -2.0104
 7577TIP3    H244147   2.668   1.351  15.268  0.2762 -0.3556 -0.5762
 7578TIP3   OH244148   6.665   5.011   2.466 -0.0518 -0.4244  0.1713
 7578TIP3    H144149   6.688   5.039   2.377  1.6751 -1.5427  0.2243
 7578TIP3    H244150   6.606   4.937   2.453  0.6812 -0.9821 -0.0922
 7579TIP3   OH244151   2.816   3.691   0.242 -0.7342 -0.3729 -0.3580
 7579TIP3    H144152   2.763   3.697   0.162 -0.8420 -2.7860 -0.5285
 7579TIP3    H244153   2.759   3.647   0.305  0.6893 -2.2118 -0.2659
 7580TIP3   OH244154   2.652   4.233   5.368 -0.4645  0.8372 -0.3906
 7580TIP3    H144155   2.585   4.294   5.337  0.4293  1.5437 -0.9835
 7580TIP3    H244156   2.659   4.167   5.299 -0.2640  0.9929 -0.5202
 7581TIP3   OH244157   2.311   1.775   5.386  0.5144 -0.0549  0.1092
 7581TIP3    H144158   2.217   1.772   5.369  0.6387  0.5712 -0.7503
 7581TIP3    H244159   2.321   1.730   5.470 -0.6936  0.9158  0.8146
 7582TIP3   OH244160   5.364   1.409  13.289  0.4191 -0.2796  0.0265
 7582TIP3    H144161   5.325   1.493  13.268  1.2266 -0.5334 -2.8850
 7582TIP3    H244162   5.304   1.344  13.252  2.0553 -0.7641 -1.9405
 7583TIP3   OH244163   1.765   2.028   2.192  0.3484 -0.4896  0.7703
 7583TIP3    H144164   1.759   2.084   2.114 -0.7426 -4.9870 -2.8042
 7583TIP3    H244165   1.674   2.019   2.222  0.5350 -0.3403  1.4056
 7584TIP3   OH244166   2.152   1.700  14.535 -0.4009  0.0966 -0.5031
 7584TIP3    H144167   2.181   1.682  14.445  1.3785  2.2313 -0.4238
 7584TIP3    H244168   2.063   1.666  14.538 -0.8557  0.7927 -3.3681
 7585TIP3   OH244169   2.671   2.813   5.584 -0.6431 -0.2501 -0.2080
 7585TIP3    H144170   2.701   2.744   5.643 -0.9079 -0.0628  0.1488
 7585TIP3    H244171   2.752   2.851   5.549 -0.4928 -0.5821 -0.2251
 7586TIP3   OH244172   2.557   5.494   3.339  0.5029  0.7596  0.1786
 7586TIP3    H144173   2.499   5.441   3.394  3.5421 -0.9222  2.0250
 7586TIP3    H244174   2.631   5.515   3.395  1.7241  2.8323 -2.0406
 7587TIP3   OH244175   0.053   5.593   6.548  0.1004  0.4614 -0.2744
 7587TIP3    H144176  -0.032   5.623   6.515 -0.4284  1.1314  1.5860
 7587TIP3    H244177   0.101   5.673   6.568  0.1102  0.1066  1.2363
 7588TIP3   OH244178   3.561   2.973  14.158 -0.5220  0.1165 -0.5347
 7588TIP3    H144179   3.547   3.057  14.113  2.2025  0.5247 -0.7703
 7588TIP3    H244180   3.641   2.938  14.120 -0.5524 -1.6955  0.9255
 7589TIP3   OH244181   6.199   4.444  16.214  0.2369 -0.4116 -1.3806
 7589TIP3    H144182   6.191   4.363  16.163  0.2767 -1.3517  0.0320
 7589TIP3    H244183   6.165   4.512  16.157  1.6482 -1.1755 -3.2041
 7590TIP3   OH244184   1.342   2.382   0.231 -0.5951 -0.0189  0.0521
 7590TIP3    H144185   1.397   2.329   0.174 -0.3928 -0.5248  0.7040
 7590TIP3    H244186   1.396   2.458   0.254  0.4358 -1.2321  1.8907
 7591TIP3   OH244187   4.607   3.675   2.465 -0.2533  0.1232  0.0493
 7591TIP3    H144188   4.616   3.623   2.544  1.6987  0.5114  0.1369
 7591TIP3    H244189   4.665   3.633   2.402 -0.7058  0.6428 -0.7375
 7592TIP3   OH244190   2.191   6.701   3.740  0.1762  0.3254  0.8914
 7592TIP3    H144191   2.179   6.649   3.820  2.3467 -0.2851  0.9018
 7592TIP3    H244192   2.223   6.786   3.772 -0.1558  0.5215  0.7108
 7593TIP3   OH244193   6.213   5.061  15.121  0.0776 -0.6035 -0.3854
 7593TIP3    H144194   6.277   4.994  15.143 -0.0447 -0.5028  0.2876
 7593TIP3    H244195   6.135   5.039  15.173  0.8278  1.4066  1.7756
 7594TIP3   OH244196   4.122   0.306   4.050  0.2404  0.0954  0.5309
 7594TIP3    H144197   4.171   0.261   4.119 -1.2400  0.8100  2.1384
 7594TIP3    H244198   4.101   0.238   3.986  3.2590 -0.2295 -0.2609
 7595TIP3   OH244199   5.005   0.768   4.274  0.1512 -0.5033  0.2548
 7595TIP3    H144200   5.040   0.679   4.270  0.3539 -0.3917 -0.8983
 7595TIP3    H244201   5.042   0.812   4.197 -1.0412  0.1703  0.0345
 7596TIP3   OH244202   4.829   4.400  12.665  0.3210  0.1452 -0.0508
 7596TIP3    H144203   4.895   4.455  12.623  1.4453 -0.5859  0.6688
 7596TIP3    H244204   4.824   4.321  12.610 -0.0155  0.2325 -0.1473
 7597TIP3   OH244205   6.636   2.961  12.148  0.4051 -0.1760  0.2266
 7597TIP3    H144206   6.725   2.996  12.153 -0.2236  1.3293  1.6191
 7597TIP3    H244207   6.625   2.938  12.056  1.7566  0.9030 -0.2382
 7598TIP3   OH244208   2.488   4.142   0.976  0.1801  0.0157 -0.7345
 7598TIP3    H144209   2.455   4.077   1.038 -0.2994  0.2015 -0.7928
 7598TIP3    H244210   2.434   4.130   0.898  0.4991  0.0704 -0.9653
 7599TIP3   OH244211   4.700   6.311   1.830 -0.0538 -0.2937 -0.5242
 7599TIP3    H144212   4.639   6.259   1.777  0.8785 -1.8496 -0.1128
 7599TIP3    H244213   4.707   6.263   1.912  0.7678  0.5387 -0.0947
 7600TIP3   OH244214   3.712   1.793   2.186  0.0804 -0.4651  0.3854
 7600TIP3    H144215   3.774   1.781   2.114  0.2846  0.9705  0.2973
 7600TIP3    H244216   3.628   1.764   2.149  0.3251 -0.5024 -0.1629
 7601TIP3   OH244217   0.128   5.431  14.027  0.1537  0.0024 -0.0577
 7601TIP3    H144218   0.193   5.499  14.044 -0.0038 -0.1981  1.5124
 7601TIP3    H244219   0.044   5.472  14.046  0.1219 -0.8754  1.9875
 7602TIP3   OH244220   6.173   4.442   2.947 -0.3670  0.3212  0.2194
 7602TIP3    H144221   6.099   4.431   2.889 -1.3560 -0.6067  1.6050
 7602TIP3    H244222   6.191   4.536   2.945 -0.5498  0.3494 -1.3187
 7603TIP3   OH244223   1.417   3.376   1.784 -0.4131 -0.4100  0.2940
 7603TIP3    H144224   1.438   3.283   1.794  1.4252 -0.0563  0.0224
 7603TIP3    H244225   1.412   3.410   1.874  1.1122 -0.3361  0.3700
 7604TIP3   OH244226   5.321   1.274   0.311 -0.4924 -0.0570 -0.9921
 7604TIP3    H144227   5.360   1.222   0.240  0.2855 -0.5458 -0.2277
 7604TIP3    H244228   5.244   1.315   0.271  0.0062 -0.2119 -2.1512
 7605TIP3   OH244229   1.500   4.857   2.942 -0.0502 -0.0702 -0.2572
 7605TIP3    H144230   1.442   4.843   3.017  1.5676  1.8407  1.4704
 7605TIP3    H244231   1.553   4.777   2.937 -1.2317 -0.8721 -0.4310
 7606TIP3   OH244232   1.123   4.749  12.720 -0.2853 -0.5097  0.5462
 7606TIP3    H144233   1.102   4.833  12.679 -1.5114 -1.4230 -0.8489
 7606TIP3    H244234   1.213   4.731  12.694 -0.2679  0.0369  0.2104
 7607TIP3   OH244235   0.367   1.982   1.189 -0.2475  0.0005 -0.3550
 7607TIP3    H144236   0.359   1.934   1.106 -2.5473  2.9607 -2.0694
 7607TIP3    H244237   0.298   1.946   1.244 -0.1000 -0.5768 -0.5453
 7608TIP3   OH244238   5.591   0.397  14.864  0.0941  1.0462  0.2099
 7608TIP3    H144239   5.518   0.354  14.910  1.4533 -0.6682  0.8681
 7608TIP3    H244240   5.582   0.489  14.886 -2.2945  0.9990 -0.3273
 7609TIP3   OH244241   3.538   6.655   2.214  0.1493  0.6192  0.3840
 7609TIP3    H144242   3.469   6.645   2.148  0.9672  0.1272 -0.4285
 7609TIP3    H244243   3.560   6.748   2.210  0.7039  0.4702 -0.6114
 7610TIP3   OH244244   3.743   1.598   5.147  0.3350  0.7239  0.1275
 7610TIP3    H144245   3.809   1.530   5.158  0.4909  1.0620  1.4475
 7610TIP3    H244246   3.664   1.563   5.188  0.4788  1.3999  1.0193
 7611TIP3   OH244247   6.437   4.071   0.300 -0.5273 -0.1344 -0.2778
 7611TIP3    H144248   6.431   4.075   0.205 -1.3271  1.1153 -0.1965
 7611TIP3    H244249   6.499   4.000   0.317  1.3489  1.0431 -1.7662
 7612TIP3   OH244250   3.694   3.094   0.162  0.0175 -0.6104  0.2537
 7612TIP3    H144251   3.750   3.024   0.129 -0.0569  0.0963 -1.4334
 7612TIP3    H244252   3.737   3.123   0.243  2.3873  0.2445 -1.2249
 7613TIP3   OH244253   2.064   2.743  12.812 -0.4587  0.4480 -0.2493
 7613TIP3    H144254   2.113   2.773  12.735  1.4987 -3.1752 -0.6387
 7613TIP3    H244255   1.975   2.732  12.780 -0.4479  2.1429 -1.0113
 7614TIP3   OH244256   2.674   6.719   6.681  0.2966 -0.5122  0.3517
 7614TIP3    H144257   2.595   6.667   6.698  0.3635 -0.1693  1.8236
 7614TIP3    H244258   2.736   6.691   6.749  1.3070 -0.4671 -0.5249
 7615TIP3   OH244259   4.089   5.358  11.740  0.0170 -0.6142 -0.1604
 7615TIP3    H144260   4.183   5.341  11.748 -0.2770 -1.7858  1.1787
 7615TIP3    H244261   4.057   5.361  11.830 -1.4887 -1.7701 -0.6144
 7616TIP3   OH244262   2.955   6.778  11.170  0.0375  0.4104  0.1396
 7616TIP3    H144263   2.950   6.719  11.095 -1.3744  1.8228 -0.9327
 7616TIP3    H244264   2.869   6.820  11.174 -0.0697  0.1331  2.7762
 7617TIP3   OH244265   6.688   0.208  14.631 -0.4475 -0.4274  0.2230
 7617TIP3    H144266   6.674   0.284  14.575 -1.5388 -0.7334  0.0723
 7617TIP3    H244267   6.694   0.134  14.570  3.1174 -0.2345  0.1320
 7618TIP3   OH244268   4.821   5.711  13.772  0.0068  0.3556 -0.3406
 7618TIP3    H144269   4.887   5.769  13.809 -0.0258  0.1399  0.0634
 7618TIP3    H244270   4.738   5.745  13.805 -0.1028  0.7261 -0.9818
 7619TIP3   OH244271   5.800   0.379  16.555 -0.0670 -0.2241  0.1138
 7619TIP3    H144272   5.853   0.412  16.483 -0.8287  1.4910  0.2950
 7619TIP3    H244273   5.848   0.302  16.586  1.2125  0.0583 -1.0506
 7620TIP3   OH244274   0.060   6.247   1.754  0.2429  0.0811 -0.2257
 7620TIP3    H144275   0.142   6.210   1.786  0.6497  0.9383 -0.2369
 7620TIP3    H244276   0.082   6.338   1.733 -1.0122  0.6951  0.9830
 7621TIP3   OH244277   5.714   2.398   0.973 -0.7582 -0.3038  0.6574
 7621TIP3    H144278   5.787   2.451   0.941 -1.0151  0.2182  0.9422
 7621TIP3    H244279   5.638   2.430   0.925 -0.7142 -1.2436 -0.0744
 7622TIP3   OH244280   2.701   4.416  11.103  0.3545 -0.2861  1.0928
 7622TIP3    H144281   2.766   4.422  11.173  0.7477 -1.1627  0.8166
 7622TIP3    H244282   2.747   4.446  11.025  0.5927 -1.3791  0.8024
 7623TIP3   OH244283   4.945   4.348   2.520  0.7127 -0.2454  0.1074
 7623TIP3    H144284   4.907   4.265   2.494 -1.1252 -0.1760  2.2475
 7623TIP3    H244285   4.886   4.414   2.484  2.4630  0.2607 -2.0666
 7624TIP3   OH244286   5.653   5.143  11.774 -1.0653 -0.5236 -0.4928
 7624TIP3    H144287   5.605   5.192  11.707 -2.3096 -1.5826 -0.4203
 7624TIP3    H244288   5.715   5.090  11.724  0.3634  1.1317 -0.5666
 7625TIP3   OH244289   5.765   5.774   5.790  0.3040  0.0770  0.0923
 7625TIP3    H144290   5.785   5.748   5.879 -0.2658 -2.8101 -0.5110
 7625TIP3    H244291   5.772   5.869   5.790 -0.5019  0.2541  3.4009
 7626TIP3   OH244292   5.989   6.527  14.603 -0.5343  0.1405 -0.1575
 7626TIP3    H144293   5.988   6.472  14.525  1.0129 -0.1328 -0.0221
 7626TIP3    H244294   5.897   6.537  14.627 -0.9092 -2.9421  0.1821
 7627TIP3   OH244295   0.893   4.231   1.879 -0.0041 -0.3137 -0.3431
 7627TIP3    H144296   0.833   4.159   1.863  0.8776 -1.4586  1.2791
 7627TIP3    H244297   0.863   4.271   1.960 -0.8330  1.5790 -1.5152
 7628TIP3   OH244298   3.082   6.483  13.950  0.4557  0.2833 -0.1058
 7628TIP3    H144299   3.003   6.454  13.998  0.0469  1.2117 -0.1947
 7628TIP3    H244300   3.077   6.436  13.867  1.1901 -1.3813  0.7263
 7629TIP3   OH244301   0.871   1.653  16.953 -0.1906 -0.3989 -0.0698
 7629TIP3    H144302   0.915   1.727  16.995  0.2892  0.2722 -1.6706
 7629TIP3    H244303   0.807   1.623  17.018  0.1376  0.9205  0.9094
 7630TIP3   OH244304   2.315   5.804   2.428  0.1908 -0.1180 -0.3615
 7630TIP3    H144305   2.255   5.853   2.484 -0.5291 -0.7645 -0.5520
 7630TIP3    H244306   2.259   5.743   2.379  1.2483 -3.0316  1.7547
 7631TIP3   OH244307   5.806   5.951  15.459 -0.5890  0.2838  0.1825
 7631TIP3    H144308   5.710   5.958  15.458 -0.6458 -0.2388  1.2187
 7631TIP3    H244309   5.824   5.878  15.400 -1.0277 -1.4058  2.0478
 7632TIP3   OH244310   2.342   0.286   3.089  0.2020  0.1601 -0.6551
 7632TIP3    H144311   2.270   0.262   3.147  0.6597 -1.1370 -0.6021
 7632TIP3    H244312   2.363   0.376   3.114  0.9564 -0.6124  1.8000
 7633TIP3   OH244313   2.494   2.119  11.786  0.5015  0.4820  0.1533
 7633TIP3    H144314   2.564   2.054  11.789  0.0615 -0.0607 -0.9108
 7633TIP3    H244315   2.530   2.192  11.735  0.2598  0.1454 -0.5112
 7634TIP3   OH244316   5.059   4.803  11.577 -0.1293  0.2877 -0.0673
 7634TIP3    H144317   5.087   4.879  11.525  1.9307 -1.1200 -1.1608
 7634TIP3    H244318   5.039   4.840  11.663  1.4024  2.0194 -0.3757
 7635TIP3   OH244319   5.927   5.311  16.110 -0.0184  0.2899 -0.5698
 7635TIP3    H144320   5.995   5.263  16.064  1.3277 -0.3233  1.8996
 7635TIP3    H244321   5.851   5.305  16.053  1.7585  0.4567 -3.1476
 7636TIP3   OH244322   4.089   4.676   2.459  0.4064 -0.3106  0.1667
 7636TIP3    H144323   4.059   4.708   2.374  0.5935 -0.0404  0.2000
 7636TIP3    H244324   4.113   4.585   2.444 -2.8873 -1.3790  0.6950
 7637TIP3   OH244325   1.845   3.090  12.794 -0.3808  0.4948 -0.2928
 7637TIP3    H144326   1.909   3.077  12.864 -1.2741  0.1070  0.4851
 7637TIP3    H244327   1.892   3.137  12.726  1.0202 -0.6906 -0.1869
 7638TIP3   OH244328   0.708   4.498  16.555 -0.6244 -0.6945  0.2675
 7638TIP3    H144329   0.746   4.411  16.537  1.3756 -0.1369  1.5061
 7638TIP3    H244330   0.728   4.515  16.647 -0.4216  1.3477 -0.1076
 7639TIP3   OH244331   6.325   2.808  12.178 -0.0330  0.1040 -0.1793
 7639TIP3    H144332   6.281   2.810  12.093 -2.9242  0.5384  1.2002
 7639TIP3    H244333   6.344   2.899  12.197 -0.2126  0.1045  0.0064
 7640TIP3   OH244334   2.320   4.249  12.530  0.4586 -0.5015  0.3183
 7640TIP3    H144335   2.345   4.331  12.573  1.5107 -0.5134 -0.2539
 7640TIP3    H244336   2.403   4.208  12.505  0.0235 -2.2375  1.4878
 7641TIP3   OH244337   4.257   0.962  12.884 -0.2643  0.0367  0.2807
 7641TIP3    H144338   4.264   0.966  12.979  0.1412  0.9535  0.2239
 7641TIP3    H244339   4.340   0.924  12.856 -0.6228 -0.7884  0.3220
 7642TIP3   OH244340   3.648   6.740   3.549  0.0911  0.1576  0.1423
 7642TIP3    H144341   3.732   6.785   3.538 -0.1934  0.6757  0.0916
 7642TIP3    H244342   3.633   6.696   3.465  0.4970 -0.2608  0.2829
 7643TIP3   OH244343   4.794   5.052   2.160 -0.1708 -0.1293  0.3172
 7643TIP3    H144344   4.761   4.996   2.090 -0.4868  0.1047  0.2809
 7643TIP3    H244345   4.771   5.006   2.241  0.6063 -0.6315  0.2611
 7644TIP3   OH244346   1.811   3.985  15.214  0.1489 -0.1471  1.1326
 7644TIP3    H144347   1.774   3.916  15.158  2.7883  0.6865 -1.9375
 7644TIP3    H244348   1.777   4.066  15.178 -0.0873  0.3573  2.4346
 7645TIP3   OH244349   3.971   0.250   6.235  0.0866  0.2385  0.5158
 7645TIP3    H144350   3.878   0.271   6.247  0.0377 -0.7178  2.1734
 7645TIP3    H244351   3.973   0.155   6.225  0.9869  0.0280  2.3163
 7646TIP3   OH244352   1.126   3.955   2.159 -0.0670  0.3185 -0.7590
 7646TIP3    H144353   1.061   3.893   2.192  0.7635  0.4138  1.1789
 7646TIP3    H244354   1.084   4.041   2.169  0.0291  0.3151 -0.3154
 7647TIP3   OH244355   5.523   4.363  11.637  0.3499 -0.2101 -0.5646
 7647TIP3    H144356   5.569   4.401  11.562 -0.7079 -0.8252 -1.5573
 7647TIP3    H244357   5.563   4.277  11.649 -1.4787 -1.4387 -2.4552
 7648TIP3   OH244358   3.579   3.219  14.030 -0.4324 -0.0037  0.6023
 7648TIP3    H144359   3.545   3.281  13.965 -0.2933  0.0241  0.5559
 7648TIP3    H244360   3.600   3.274  14.106  0.1654  0.0813  0.3823
 7649TIP3   OH244361   4.106   6.772   1.885  0.2575  0.7678 -0.4327
 7649TIP3    H144362   4.054   6.853   1.887 -0.1233  0.5428  2.1915
 7649TIP3    H244363   4.187   6.795   1.931 -0.5796 -0.7253  1.9444
 7650TIP3   OH244364   4.643   5.830  15.369  0.1535 -0.1521  0.6621
 7650TIP3    H144365   4.691   5.911  15.355  0.2456 -0.1529  0.9742
 7650TIP3    H244366   4.709   5.768  15.400  0.5468 -0.9796 -1.5979
 7651TIP3   OH244367   0.871   2.986   5.258  0.1197 -0.2428 -0.3960
 7651TIP3    H144368   0.804   2.932   5.299  0.5629  0.0391  0.7660
 7651TIP3    H244369   0.870   2.962   5.166 -1.6827 -0.1213 -0.4363
 7652TIP3   OH244370   2.048   4.186   3.426 -0.0441 -0.0033 -0.1859
 7652TIP3    H144371   2.036   4.222   3.514  1.3081 -0.5028  0.2372
 7652TIP3    H244372   2.129   4.226   3.395 -0.1016 -0.4212 -0.8984
 7653TIP3   OH244373   2.060   6.550  15.452 -0.0267  0.0525  0.2457
 7653TIP3    H144374   2.026   6.468  15.416 -0.8149  0.7003 -0.5424
 7653TIP3    H244375   1.997   6.616  15.422  1.2988  1.1232 -0.2467
 7654TIP3   OH244376   6.378   4.231  15.871 -0.4885 -0.6825  0.4845
 7654TIP3    H144377   6.379   4.326  15.884  3.1529 -0.5276  0.0968
 7654TIP3    H244378   6.324   4.219  15.792  0.0813  1.2426 -0.2741
 7655TIP3   OH244379   5.658   5.339   5.779 -0.1832 -0.0944  0.4061
 7655TIP3    H144380   5.626   5.275   5.843  1.0725 -1.2762 -0.0993
 7655TIP3    H244381   5.643   5.424   5.820 -0.9594 -0.7560  1.5320
 7656TIP3   OH244382   1.192   4.544   2.715  0.7524  0.0862  0.4955
 7656TIP3    H144383   1.196   4.587   2.629 -2.8001  0.7827  0.5327
 7656TIP3    H244384   1.184   4.615   2.778 -0.2531 -0.4873  1.0421
 7657TIP3   OH244385   3.547   0.322   3.683  0.0799 -0.4584  0.0394
 7657TIP3    H144386   3.509   0.236   3.705 -1.4598  0.3980  0.9362
 7657TIP3    H244387   3.549   0.369   3.767  1.3348  0.2320 -0.3573
 7658TIP3   OH244388   4.847   1.580  12.507  0.3154  0.0476  0.0218
 7658TIP3    H144389   4.938   1.562  12.530  0.0869 -1.6467 -0.3214
 7658TIP3    H244390   4.829   1.666  12.547  1.2686 -0.7288  2.2759
 7659TIP3   OH244391   2.124   6.514   1.287  0.4487  0.0879 -0.0148
 7659TIP3    H144392   2.212   6.481   1.268 -0.0503 -0.1429 -2.2721
 7659TIP3    H244393   2.081   6.442   1.334  0.6463 -0.9507 -1.3423
 7660TIP3   OH244394   3.878   3.676   4.518  0.9646 -0.1199  0.4247
 7660TIP3    H144395   3.963   3.718   4.531 -0.0323  2.5862 -0.9443
 7660TIP3    H244396   3.814   3.744   4.539 -0.9637 -2.3068  2.2082
 7661TIP3   OH244397   0.623   3.059   4.503 -0.5248 -0.2906  0.5943
 7661TIP3    H144398   0.582   2.985   4.548 -0.0652 -0.1147  1.3245
 7661TIP3    H244399   0.582   3.136   4.540 -2.9211 -0.1317 -1.9955
 7662TIP3   OH244400   2.657   1.941  17.155 -0.4225  0.0001  0.4073
 7662TIP3    H144401   2.602   1.867  17.128 -0.2335 -0.8598  2.2383
 7662TIP3    H244402   2.731   1.938  17.096 -0.1093 -1.6974  0.8161
 7663TIP3   OH244403   2.925   2.033  15.137 -0.1095  0.2263  0.2573
 7663TIP3    H144404   2.979   2.053  15.214  1.2878 -2.5799  0.1242
 7663TIP3    H244405   2.897   2.119  15.105  1.7037  1.6405  2.1672
 7664TIP3   OH244406   5.972   4.632   3.349 -0.1484 -0.3598  0.0175
 7664TIP3    H144407   5.962   4.609   3.441  0.7234  0.9307  0.4707
 7664TIP3    H244408   6.066   4.623   3.333 -0.3631 -1.0637 -0.8941
 7665TIP3   OH244409   6.072   4.661  11.816 -0.2222  0.1411  0.0362
 7665TIP3    H144410   6.004   4.689  11.755  1.3729  0.2790 -1.7438
 7665TIP3    H244411   6.093   4.571  11.789 -0.2000 -0.1730  1.0489
 7666TIP3   OH244412   0.069   4.237  14.967 -0.0706  0.3567 -0.2522
 7666TIP3    H144413   0.026   4.265  15.048  0.5608 -0.4912  0.3867
 7666TIP3    H244414   0.146   4.188  14.996  0.8111  1.0162 -1.3656
 7667TIP3   OH244415   6.695   5.872   4.752  0.4811  0.0491  0.1491
 7667TIP3    H144416   6.724   5.796   4.803  2.5026 -1.4369 -2.9070
 7667TIP3    H244417   6.606   5.889   4.782  0.7775 -2.0463  2.5483
 7668TIP3   OH244418   6.426   5.333   5.173 -0.4701 -0.2627 -0.3334
 7668TIP3    H144419   6.348   5.278   5.160  0.4649 -1.5646 -0.6084
 7668TIP3    H244420   6.419   5.400   5.104 -0.0170 -1.9509 -2.0928
 7669TIP3   OH244421   0.492   1.664   5.606 -0.1376  0.1485 -0.1442
 7669TIP3    H144422   0.572   1.634   5.562  0.2959  0.4888  0.3906
 7669TIP3    H244423   0.510   1.756   5.627 -1.1541  0.5886 -1.1085
 7670TIP3   OH244424   3.057   5.492   1.021 -0.4036 -0.2672 -0.2510
 7670TIP3    H144425   3.073   5.421   1.084  0.5559 -0.2642 -0.4784
 7670TIP3    H244426   3.075   5.572   1.071  0.3963 -0.2661 -0.5321
 7671TIP3   OH244427   2.463   6.559  12.872  0.1255  0.3749 -0.4008
 7671TIP3    H144428   2.459   6.628  12.806  0.3411  0.7815  0.0047
 7671TIP3    H244429   2.522   6.594  12.939 -0.0415 -0.0582 -0.0279
 7672TIP3   OH244430   4.540   3.867  12.836  0.4393  0.0699 -0.0499
 7672TIP3    H144431   4.564   3.960  12.827 -0.9653  0.4000 -0.7095
 7672TIP3    H244432   4.574   3.841  12.921  1.5524  0.9669 -0.1970
 7673TIP3   OH244433   2.588   1.237   0.004 -0.3390  0.3396 -0.4002
 7673TIP3    H144434   2.570   1.149  -0.027 -0.9369 -0.0179  0.9123
 7673TIP3    H244435   2.512   1.261   0.057 -0.4133  1.8377 -1.1203
 7674TIP3   OH244436   4.013   5.773  12.636 -0.0921 -0.3724  0.3053
 7674TIP3    H144437   4.001   5.764  12.731  4.2629  0.7325  1.1981
 7674TIP3    H244438   3.972   5.857  12.616  0.3581  0.1969  1.6071
 7675TIP3   OH244439   4.886   6.516  11.885 -0.2614  0.3024  0.3605
 7675TIP3    H144440   4.816   6.540  11.825  0.6012  1.5070 -0.1928
 7675TIP3    H244441   4.963   6.502  11.829  0.1565 -0.1573  1.0317
 7676TIP3   OH244442   5.068   2.274  14.941  0.0663  0.2296  0.0655
 7676TIP3    H144443   5.121   2.351  14.918  0.7875  0.2958  1.8192
 7676TIP3    H244444   4.990   2.311  14.983 -0.7471  0.0643 -1.2296
 7677TIP3   OH244445   5.394   2.650  10.975  0.6680 -0.5850  1.0302
 7677TIP3    H144446   5.404   2.556  10.959 -0.7534 -0.6196  0.2249
 7677TIP3    H244447   5.336   2.656  11.051 -0.9928 -0.3878 -0.2012
 7678TIP3   OH244448   6.711   2.243   0.322  0.2275 -0.0924  0.2130
 7678TIP3    H144449   6.679   2.178   0.385 -3.8343  0.7674 -0.6676
 7678TIP3    H244450   6.723   2.323   0.374  1.1995 -0.4697  0.5886
 7679TIP3   OH244451   4.672   4.727   4.653  0.3531  0.1460  0.0095
 7679TIP3    H144452   4.679   4.798   4.716 -0.0926 -0.1506  0.3887
 7679TIP3    H244453   4.589   4.684   4.673  0.2095  0.0444 -0.7686
 7680TIP3   OH244454   2.373   0.029   2.973  0.7087  0.2331 -0.4749
 7680TIP3    H144455   2.365   0.124   2.970 -0.7332  0.2964  1.9850
 7680TIP3    H244456   2.448   0.008   2.918  1.5937  2.8719 -0.3837
 7681TIP3   OH244457   6.784   1.136  16.299  0.0171  0.0914 -0.0332
 7681TIP3    H144458   6.746   1.220  16.322 -1.8830 -1.2671  2.2750
 7681TIP3    H244459   6.749   1.115  16.213 -1.5983  0.5407  0.4858
 7682TIP3   OH244460   5.912   2.030   2.378  0.6574  0.8059  0.0550
 7682TIP3    H144461   5.828   2.008   2.339  0.2445  0.6430  1.0139
 7682TIP3    H244462   5.957   2.081   2.311  0.0099  0.4497 -0.6642
 7683TIP3   OH244463   3.698   4.768   4.476  0.3547 -0.3420  0.2494
 7683TIP3    H144464   3.743   4.836   4.525  0.2179  0.0647 -0.1784
 7683TIP3    H244465   3.706   4.795   4.384 -1.2922  0.0922  0.2003
 7684TIP3   OH244466   0.634   3.632   4.609 -0.1818  0.5686 -0.7091
 7684TIP3    H144467   0.669   3.573   4.676 -0.6189  1.0575 -0.0356
 7684TIP3    H244468   0.710   3.659   4.557 -0.0289 -0.8821 -1.2732
 7685TIP3   OH244469   6.755   1.638  16.314 -0.3470 -0.3342  0.2182
 7685TIP3    H144470   6.664   1.642  16.341 -0.4091  1.2168 -0.1277
 7685TIP3    H244471   6.753   1.655  16.220  0.3432  0.6774  0.3612
 7686TIP3   OH244472   4.479   2.328   5.268 -0.6224  0.2197 -0.7106
 7686TIP3    H144473   4.558   2.300   5.220 -0.2158  1.3457 -0.7293
 7686TIP3    H244474   4.407   2.305   5.209 -0.3563 -1.1519 -0.5425
 7687TIP3   OH244475   3.528   3.541  14.250 -0.3697 -0.4808  0.5072
 7687TIP3    H144476   3.527   3.452  14.282  0.3572 -1.0696 -0.9940
 7687TIP3    H244477   3.457   3.545  14.186 -0.0707 -0.1420  0.1863
 7688TIP3   OH244478   1.175   3.349  15.611  0.0409 -0.0773 -0.1665
 7688TIP3    H144479   1.098   3.405  15.615 -0.0181 -0.1638 -0.0712
 7688TIP3    H244480   1.153   3.273  15.666  0.5174  0.2904  0.5540
 7689TIP3   OH244481   2.759   4.860  13.318 -0.1474 -0.5480  0.1434
 7689TIP3    H144482   2.817   4.888  13.247 -0.5694 -0.7522 -0.2902
 7689TIP3    H244483   2.784   4.770  13.335 -0.6477 -0.7897 -0.3700
 7690TIP3   OH244484   1.541   1.208   4.570 -0.3406 -0.2683  0.0334
 7690TIP3    H144485   1.466   1.150   4.557 -0.7124  0.3497 -0.6054
 7690TIP3    H244486   1.505   1.283   4.617  0.1802 -0.6264  1.0293
 7691TIP3   OH244487   5.757   6.093  12.224  0.0498 -0.5171  0.2105
 7691TIP3    H144488   5.675   6.045  12.241  0.3275 -0.7669  0.8830
 7691TIP3    H244489   5.792   6.053  12.145 -1.2841  0.6746 -1.0487
 7692TIP3   OH244490   1.108   5.181  12.366 -0.6714 -0.1175  0.0483
 7692TIP3    H144491   1.073   5.270  12.371 -1.3684 -0.4163  0.6253
 7692TIP3    H244492   1.096   5.156  12.275  0.1971  0.6360 -0.2923
 7693TIP3   OH244493   5.517   6.344  16.304  0.5590  0.4362  0.1336
 7693TIP3    H144494   5.557   6.317  16.386  0.2753  0.6922  0.3576
 7693TIP3    H244495   5.591   6.369  16.248  0.7907 -0.3824  0.0713
 7694TIP3   OH244496   6.579   2.206  16.580 -0.0497  0.1125  0.6488
 7694TIP3    H144497   6.591   2.241  16.492 -0.0224  0.4558  0.7865
 7694TIP3    H244498   6.639   2.132  16.584 -0.7917 -0.5447  0.0350
 7695TIP3   OH244499   5.359   3.562  15.707 -0.1220  0.2475  0.4673
 7695TIP3    H144500   5.338   3.654  15.719 -0.2042  0.2877  0.0051
 7695TIP3    H244501   5.394   3.534  15.792  1.0232  0.9951  0.2644
 7696TIP3   OH244502   1.583   1.639   5.659 -0.0805  0.4098  0.3844
 7696TIP3    H144503   1.561   1.546   5.670  1.2948  0.2260  2.3056
 7696TIP3    H244504   1.508   1.686   5.696 -0.0579 -0.0181  1.0050
 7697TIP3   OH244505   5.117   6.787  16.102  0.3846 -0.2467 -0.2637
 7697TIP3    H144506   5.207   6.758  16.091  0.4928  0.0252 -0.0843
 7697TIP3    H244507   5.097   6.835  16.022  0.7497  0.6111  0.1457
 7698TIP3   OH244508   3.633   4.763  16.749 -0.2773 -0.1558  0.1261
 7698TIP3    H144509   3.549   4.735  16.786  1.0449 -1.5086  2.3032
 7698TIP3    H244510   3.697   4.705  16.789  1.6311  0.1736 -2.2549
 7699TIP3   OH244511   3.868   3.394   2.213 -0.3200  0.2116  0.2185
 7699TIP3    H144512   3.887   3.352   2.129 -1.6619  0.8943 -0.4517
 7699TIP3    H244513   3.948   3.442   2.234 -0.4077  1.0909 -1.3273
 7700TIP3   OH244514   5.335   6.647  11.516  0.3599 -0.4510  0.4856
 7700TIP3    H144515   5.371   6.698  11.443 -1.1786  1.8304  1.2006
 7700TIP3    H244516   5.307   6.565  11.477  1.2113 -0.0226 -1.1213
 7701TIP3   OH244517   0.269   4.970   5.334 -0.7857 -0.0845  0.2902
 7701TIP3    H144518   0.208   4.900   5.311  0.2882 -1.0659  0.3824
 7701TIP3    H244519   0.275   4.967   5.429  0.5493 -1.0195  0.2102
 7702TIP3   OH244520   0.794   5.597   3.738  0.0442  0.4975  0.2253
 7702TIP3    H144521   0.830   5.558   3.818 -1.1821 -0.5931  0.2712
 7702TIP3    H244522   0.775   5.688   3.762  1.4184  0.7017  0.6032
 7703TIP3   OH244523   5.523   4.529  11.161  0.1437 -0.1703  0.2084
 7703TIP3    H144524   5.553   4.595  11.098 -1.8190  0.3385 -0.2551
 7703TIP3    H244525   5.467   4.577  11.222 -2.8555 -1.6177 -1.2203
 7704TIP3   OH244526   1.479   1.324   2.896 -0.9196 -0.3274  0.0110
 7704TIP3    H144527   1.564   1.282   2.890 -1.8440 -2.3434  0.3466
 7704TIP3    H244528   1.498   1.418   2.895  1.4156 -0.7094  1.9989
 7705TIP3   OH244529   3.904   6.160   4.259  0.1459 -0.2105 -0.1246
 7705TIP3    H144530   3.909   6.215   4.181  1.5649 -3.2312 -2.3712
 7705TIP3    H244531   3.973   6.193   4.316  0.1256  1.0933 -0.8085
 7706TIP3   OH244532   5.376   4.431   2.153  0.9375 -1.0529 -0.3373
 7706TIP3    H144533   5.362   4.373   2.079 -1.5197 -2.2508  0.9399
 7706TIP3    H244534   5.430   4.380   2.214  1.5232 -0.7243 -0.5760
 7707TIP3   OH244535   6.200   2.479   0.529  0.3196  0.0119 -0.7383
 7707TIP3    H144536   6.164   2.430   0.603  0.5450 -0.3105 -0.8431
 7707TIP3    H244537   6.222   2.565   0.565 -2.9076  1.1741 -1.1779
 7708TIP3   OH244538   2.046   5.362  12.365  0.1809  0.6795  0.3833
 7708TIP3    H144539   2.067   5.436  12.307 -1.9417  1.3915  0.4407
 7708TIP3    H244540   2.109   5.294  12.341  1.4386  2.0805 -0.4951
 7709TIP3   OH244541   6.566   2.352   5.279 -0.5391 -0.4972 -0.4676
 7709TIP3    H144542   6.491   2.327   5.333 -0.0832 -0.6834  0.0936
 7709TIP3    H244543   6.528   2.375   5.194 -1.6642  3.1184  0.8569
 7710TIP3   OH244544   6.690   5.262   2.798 -0.1755 -0.4953  0.3387
 7710TIP3    H144545   6.633   5.202   2.750 -0.0202 -0.8027  0.5333
 7710TIP3    H244546   6.642   5.345   2.800 -0.8794 -0.8968  0.9869
 7711TIP3   OH244547   3.156   4.361  15.135 -0.4460  0.1804  0.3402
 7711TIP3    H144548   3.234   4.305  15.126 -1.4677 -1.2430  0.0473
 7711TIP3    H244549   3.082   4.300  15.133 -1.5738  1.4822  0.8339
 7712TIP3   OH244550   3.406   2.168   5.274 -0.2644  0.3392 -0.9018
 7712TIP3    H144551   3.468   2.198   5.207  0.5733 -1.5557 -1.0590
 7712TIP3    H244552   3.459   2.110   5.329 -1.6797 -0.5272 -0.4268
 7713TIP3   OH244553   3.761   3.330  16.562  0.0272  0.0971  0.4287
 7713TIP3    H144554   3.773   3.423  16.546 -0.7054  0.5663  2.2749
 7713TIP3    H244555   3.676   3.309  16.523  0.8143 -0.1544 -1.2080
 7714TIP3   OH244556   2.938   2.774  13.040 -0.5417  0.2520  0.2996
 7714TIP3    H144557   2.940   2.681  13.018 -0.5742 -0.0321  1.4416
 7714TIP3    H244558   2.890   2.778  13.122  0.8643  1.0916  1.1238
 7715TIP3   OH244559   5.351   1.955  16.164  0.3938 -0.0972 -0.6376
 7715TIP3    H144560   5.301   2.029  16.129  0.2956  0.1543  0.0207
 7715TIP3    H244561   5.436   1.992  16.186  0.3702 -0.1947 -0.3773
 7716TIP3   OH244562   0.427   4.822   1.071 -0.3786 -0.6198 -0.3835
 7716TIP3    H144563   0.425   4.904   1.022 -0.6347 -0.6045 -0.3525
 7716TIP3    H244564   0.497   4.771   1.031  2.0817  0.8948  1.7048
 7717TIP3   OH244565   4.508   6.438  15.087 -0.2367 -0.2312 -0.5557
 7717TIP3    H144566   4.459   6.362  15.056 -0.3950 -0.7096  0.7907
 7717TIP3    H244567   4.583   6.444  15.028 -0.5469 -1.0664 -1.0532
 7718TIP3   OH244568   6.134   6.430  15.350  0.1934  0.1885 -0.0451
 7718TIP3    H144569   6.088   6.433  15.434  0.5791 -0.3326  0.1932
 7718TIP3    H244570   6.082   6.369  15.297  1.0530 -1.0650  0.5123
 7719TIP3   OH244571   1.290   1.401   0.389  0.5147  0.2995 -0.3657
 7719TIP3    H144572   1.291   1.318   0.437  0.2516  0.8661  0.6453
 7719TIP3    H244573   1.197   1.422   0.379  0.5855  0.6079 -0.3859
 7720TIP3   OH244574   0.280   0.057   5.381 -0.4283  0.4437  0.1954
 7720TIP3    H144575   0.240  -0.018   5.337  1.0151 -1.4367  1.8457
 7720TIP3    H244576   0.224   0.074   5.456 -0.7034  0.9847 -0.1259
 7721TIP3   OH244577   2.045   2.975  12.414 -0.0208  0.1450 -0.0327
 7721TIP3    H144578   2.074   3.042  12.352 -0.1106  0.0618 -0.1658
 7721TIP3    H244579   1.950   2.972  12.404  0.1564 -1.6915 -1.7948
 7722TIP3   OH244580   4.631   3.378   1.082 -0.3331  0.1452 -0.3385
 7722TIP3    H144581   4.596   3.350   0.997 -1.7184 -0.1306  0.3008
 7722TIP3    H244582   4.613   3.305   1.141  1.1828  0.0733  0.0810
 7723TIP3   OH244583   3.811   5.751   1.858  0.2972 -0.0680  0.4994
 7723TIP3    H144584   3.876   5.740   1.789 -0.4187 -0.2445 -0.1596
 7723TIP3    H244585   3.789   5.661   1.884  0.2223 -0.0110  0.6338
 7724TIP3   OH244586   5.889   3.765  16.390 -0.7455  0.0022 -0.2493
 7724TIP3    H144587   5.972   3.744  16.348 -0.6413 -0.6252  0.2492
 7724TIP3    H244588   5.831   3.791  16.318 -0.1018  0.5157 -0.5861
 7725TIP3   OH244589   0.663   0.002   0.558  0.0212 -0.4683 -0.4057
 7725TIP3    H144590   0.666   0.077   0.500  0.4482 -0.1694 -0.0072
 7725TIP3    H244591   0.723  -0.062   0.517  1.0463  0.0945  0.1692
 7726TIP3   OH244592   2.388   1.727   0.915 -0.0131 -0.6941  0.3737
 7726TIP3    H144593   2.293   1.719   0.909 -0.0318  0.4488 -3.2029
 7726TIP3    H244594   2.403   1.804   0.969 -1.1847 -0.2993  0.1606
 7727TIP3   OH244595   3.243   6.568  14.911 -0.1802 -0.2283  0.5786
 7727TIP3    H144596   3.248   6.655  14.950 -1.3460 -0.6843  1.7875
 7727TIP3    H244597   3.157   6.565  14.869 -0.3372 -0.9504  0.9382
 7728TIP3   OH244598   5.713   1.427   5.350 -0.0524  0.8422  0.0818
 7728TIP3    H144599   5.771   1.450   5.277 -0.0277  1.4653  0.2951
 7728TIP3    H244600   5.757   1.354   5.393 -0.7991 -0.5702 -1.4113
 7729TIP3   OH244601   2.408   0.378  16.284  0.2436  0.1381 -0.3903
 7729TIP3    H144602   2.381   0.404  16.196  0.5255 -0.8892 -0.7966
 7729TIP3    H244603   2.399   0.283  16.285  2.5509 -0.1459 -0.1193
 7730TIP3   OH244604   5.263   0.450   0.514 -0.0023 -0.2004 -0.3830
 7730TIP3    H144605   5.250   0.542   0.491  1.1377  0.5675  1.8324
 7730TIP3    H244606   5.337   0.422   0.460 -1.0805 -0.2203 -1.9319
 7731TIP3   OH244607   4.843   2.729   0.394  0.1290  0.4351 -0.2276
 7731TIP3    H144608   4.913   2.762   0.338  0.4757 -0.2513 -0.2019
 7731TIP3    H244609   4.883   2.716   0.479  0.2570 -0.9645 -0.4737
 7732TIP3   OH244610   6.706   4.158   2.380 -0.1032  0.2153  0.2450
 7732TIP3    H144611   6.659   4.090   2.428 -2.8299 -0.4156 -2.9186
 7732TIP3    H244612   6.640   4.225   2.362  1.9558  2.6978  1.2478
 7733TIP3   OH244613   6.297   5.383  17.048 -0.7453  0.3168 -0.0327
 7733TIP3    H144614   6.206   5.357  17.034 -0.8869  0.0200  1.3337
 7733TIP3    H244615   6.304   5.470  17.009 -1.8327  0.6917  0.5957
 7734TIP3   OH244616   2.806   5.337  16.093 -0.5642 -0.3753 -0.6241
 7734TIP3    H144617   2.796   5.429  16.116  0.1299 -0.4509 -0.0114
 7734TIP3    H244618   2.752   5.290  16.157  0.8868 -0.5434  0.5037
 7735TIP3   OH244619   2.740   0.034  15.222 -0.1688 -0.8668  0.2417
 7735TIP3    H144620   2.801   0.063  15.154 -0.8812 -1.7071 -0.7781
 7735TIP3    H244621   2.722   0.113  15.273 -1.3029  0.3403 -1.8662
 7736TIP3   OH244622   2.857   2.528  14.919 -0.2381  0.1228  0.1439
 7736TIP3    H144623   2.773   2.558  14.954  0.8353  0.7781  2.3235
 7736TIP3    H244624   2.901   2.607  14.889  0.7250  0.1939  1.6518
 7737TIP3   OH244625   5.860   3.496   0.390  0.4589 -0.2479 -0.6656
 7737TIP3    H144626   5.879   3.532   0.477 -0.2197  0.3359 -0.7529
 7737TIP3    H244627   5.856   3.573   0.334 -2.3453 -0.2912 -0.6274
 7738TIP3   OH244628   4.412   4.287  16.394  0.3144  0.4558 -0.0067
 7738TIP3    H144629   4.403   4.364  16.450  1.0724  1.0378 -0.6632
 7738TIP3    H244630   4.341   4.293  16.331  1.4447  1.6619 -1.2406
 7739TIP3   OH244631   3.909   0.747  16.930 -0.0608  0.2833  0.2227
 7739TIP3    H144632   3.855   0.688  16.983 -0.7260  1.2983  0.7081
 7739TIP3    H244633   3.884   0.835  16.959  0.1675  0.8478 -1.2024
 7740TIP3   OH244634   0.044   5.535   5.322  0.5904 -0.6516  0.0949
 7740TIP3    H144635   0.107   5.566   5.387  1.9347  0.4921 -1.7008
 7740TIP3    H244636   0.038   5.441   5.338  0.8176 -0.3947  1.8998
 7741TIP3   OH244637   5.110   5.362   5.426  0.4280 -0.2679  0.0856
 7741TIP3    H144638   5.187   5.313   5.457 -0.3115 -2.3079 -1.0743
 7741TIP3    H244639   5.146   5.445   5.395  1.6458  0.3544  2.8377
 7742TIP3   OH244640   5.607   0.249   0.621  0.2364  0.1019 -0.0995
 7742TIP3    H144641   5.571   0.325   0.667 -1.5087  0.0608 -1.2987
 7742TIP3    H244642   5.646   0.195   0.690 -2.8347 -0.2943  1.5335
 7743TIP3   OH244643   3.028   1.763  13.455 -0.3085 -0.3198  0.4259
 7743TIP3    H144644   2.934   1.761  13.473 -0.4320  0.4967 -0.0726
 7743TIP3    H244645   3.045   1.852  13.425  0.7621 -0.2347  1.2191
 7744TIP3   OH244646   4.119   4.345   1.190  0.1054 -0.0952 -0.2291
 7744TIP3    H144647   4.113   4.250   1.184  0.8044 -0.2606  1.2922
 7744TIP3    H244648   4.195   4.361   1.246 -1.4268  1.2707  1.5966
 7745TIP3   OH244649   5.977   3.688   5.639  0.1420 -0.0897 -0.3163
 7745TIP3    H144650   6.047   3.633   5.674  0.9745  1.6015  0.8124
 7745TIP3    H244651   5.897   3.652   5.678  0.5697 -0.9641 -0.2228
 7746TIP3   OH244652   3.899   6.018  12.011 -0.6340  0.6668 -0.5932
 7746TIP3    H144653   3.854   6.100  11.988 -2.2371  0.4398  1.4903
 7746TIP3    H244654   3.855   5.951  11.958 -1.5925  0.7049  0.1291
 7747TIP3   OH244655   1.572   5.774  13.488  0.7396  0.2362 -0.3065
 7747TIP3    H144656   1.555   5.691  13.532  0.5206 -0.6910 -2.0594
 7747TIP3    H244657   1.493   5.825  13.502  0.8269  0.1204  0.6809
 7748TIP3   OH244658   4.365   3.918  10.720 -0.0579  0.2214 -0.7900
 7748TIP3    H144659   4.340   3.996  10.671  0.8046  0.2585 -1.2014
 7748TIP3    H244660   4.456   3.901  10.693 -0.5166 -1.4601 -1.4108
 7749TIP3   OH244661   4.464   6.495  12.275 -0.1609 -0.0280 -1.0322
 7749TIP3    H144662   4.494   6.419  12.225  1.2378  0.2818 -0.6989
 7749TIP3    H244663   4.502   6.482  12.362 -0.9553  0.4293 -0.6063
 7750TIP3   OH244664   5.931   3.271  16.146 -0.1754 -0.0866  0.3063
 7750TIP3    H144665   5.882   3.312  16.074 -0.2328  0.5028  0.6744
 7750TIP3    H244666   5.873   3.201  16.176  0.4839 -1.3436 -1.1908
 7751TIP3   OH244667   5.336   5.010  14.143 -0.4819 -0.2616 -0.1308
 7751TIP3    H144668   5.361   4.970  14.060  1.5443 -0.8176  0.6830
 7751TIP3    H244669   5.400   4.977  14.206 -0.9935  1.3810  1.3363
 7752TIP3   OH244670   3.229   4.759   1.779  0.3224 -0.4328  0.7464
 7752TIP3    H144671   3.307   4.815   1.779 -1.0538  1.6330  0.7549
 7752TIP3    H244672   3.233   4.712   1.862  0.6129  1.1184  1.6496
 7753TIP3   OH244673   4.569   3.229   0.809  0.3318 -0.5214 -0.9090
 7753TIP3    H144674   4.579   3.216   0.715  0.7709  1.3417 -1.1575
 7753TIP3    H244675   4.489   3.280   0.818  0.1485 -0.9094 -0.2397
 7754TIP3   OH244676   2.198   5.180   5.374 -0.6861  0.6068  0.3578
 7754TIP3    H144677   2.183   5.240   5.301  0.8857  0.4995 -0.1021
 7754TIP3    H244678   2.122   5.123   5.375 -0.3216 -0.0019 -1.8357
 7755TIP3   OH244679   2.916   6.036  11.043 -0.4736  0.3775 -0.7374
 7755TIP3    H144680   2.830   5.994  11.042 -0.9523  1.3462 -0.5587
 7755TIP3    H244681   2.910   6.105  10.977  0.1098  0.5720 -0.5933
 7756TIP3   OH244682   6.152   5.110   0.394  0.4115  0.2965  0.3835
 7756TIP3    H144683   6.230   5.134   0.345 -0.2306 -0.2822 -0.9777
 7756TIP3    H244684   6.155   5.014   0.398  0.4384  0.3334  1.4712
 7757TIP3   OH244685   2.979   1.884   2.342 -0.3769 -0.4198 -0.1833
 7757TIP3    H144686   2.900   1.873   2.289 -0.7423 -0.4937  0.3658
 7757TIP3    H244687   3.037   1.814   2.314 -0.8180 -0.8437 -0.0421
 7758TIP3   OH244688   4.659   4.122   0.732 -0.1065  0.0791  0.0274
 7758TIP3    H144689   4.628   4.171   0.808 -1.3319 -0.5471 -0.0267
 7758TIP3    H244690   4.625   4.033   0.746  0.2367 -0.2125 -0.9118
 7759TIP3   OH244691   4.750   6.385   4.878 -0.6052 -0.1953  0.3675
 7759TIP3    H144692   4.762   6.477   4.901  0.2604 -0.5896  1.5611
 7759TIP3    H244693   4.676   6.385   4.816 -1.3715  1.1688  1.2435
 7760TIP3   OH244694   1.243   5.438   1.033  0.2403  0.2325  0.5129
 7760TIP3    H144695   1.199   5.354   1.025  1.0379 -0.0800 -0.7561
 7760TIP3    H244696   1.179   5.502   1.002  0.4626 -0.1589 -0.7856
 7761TIP3   OH244697   4.562   0.919   1.156  0.8659 -0.8101 -0.6099
 7761TIP3    H144698   4.519   0.992   1.113 -0.6808 -1.4532 -0.2206
 7761TIP3    H244699   4.631   0.892   1.095 -0.1735 -0.6378 -1.8871
 7762TIP3   OH244700   0.561   5.676  12.917 -0.5256 -0.8681 -0.0765
 7762TIP3    H144701   0.593   5.630  12.994  0.4333 -1.4465 -0.7910
 7762TIP3    H244702   0.591   5.623  12.843 -2.1760 -0.8005 -0.8379
 7763TIP3   OH244703   6.657   2.040   0.538 -0.2297 -0.2144  0.0769
 7763TIP3    H144704   6.706   2.116   0.570  1.1732 -1.3291  0.7189
 7763TIP3    H244705   6.588   2.028   0.603  0.5017 -0.3944  0.8532
 7764TIP3   OH244706   3.223   6.647   6.731  0.2424 -0.2143  0.0657
 7764TIP3    H144707   3.313   6.664   6.703  0.3301  0.7182  0.8763
 7764TIP3    H244708   3.171   6.716   6.690  0.0242 -0.2142  0.3394
 7765TIP3   OH244709   0.295   5.973  11.718 -0.0500  0.0493  0.3165
 7765TIP3    H144710   0.328   5.905  11.777 -1.6952 -0.8920  0.2081
 7765TIP3    H244711   0.245   6.032  11.774  1.2236  1.0960  0.3799
 7766TIP3   OH244712   6.527   6.603   3.521 -0.2780 -0.6159 -0.3311
 7766TIP3    H144713   6.551   6.671   3.458 -0.5690  1.9774  2.1319
 7766TIP3    H244714   6.449   6.562   3.484 -0.0860  0.3849 -1.9390
 7767TIP3   OH244715   4.229   5.769   4.418 -0.4286  0.5709  0.0850
 7767TIP3    H144716   4.187   5.692   4.455  0.5473  0.6514  1.4355
 7767TIP3    H244717   4.158   5.833   4.410 -0.7203  0.5338  1.8492
 7768TIP3   OH244718   0.739   3.881   1.478 -0.2321 -0.5491  0.3280
 7768TIP3    H144719   0.697   3.796   1.466  0.6505 -1.0074  0.3821
 7768TIP3    H244720   0.832   3.860   1.489  0.2147  0.5269 -1.1531
 7769TIP3   OH244721   5.407   6.017   3.446 -0.3005  0.0083 -0.1752
 7769TIP3    H144722   5.467   5.954   3.406  0.7187  0.2542  0.9199
 7769TIP3    H244723   5.462   6.069   3.505 -1.3131  1.2573 -0.2883
 7770TIP3   OH244724   5.629   0.815  14.955 -0.4420  0.2300  0.4826
 7770TIP3    H144725   5.561   0.755  14.987  1.0454 -1.1774  1.1262
 7770TIP3    H244726   5.702   0.804  15.016 -0.4001  3.4408  1.2145
 7771TIP3   OH244727   1.871   5.179   5.939  0.0693 -0.0280 -0.5551
 7771TIP3    H144728   1.852   5.149   6.028  0.5155  2.0487  0.3161
 7771TIP3    H244729   1.938   5.119   5.907  1.0953  0.1376  1.1610
 7772TIP3   OH244730   2.972   2.896  12.793  0.0191  0.2703 -0.1965
 7772TIP3    H144731   2.931   2.982  12.793 -0.5829  0.0282  1.4096
 7772TIP3    H244732   2.922   2.846  12.857  0.1795 -1.3797 -1.3137
 7773TIP3   OH244733   0.825   4.011  13.731 -0.1011 -0.1765  0.4017
 7773TIP3    H144734   0.858   3.958  13.803 -0.3047 -1.6408 -0.5336
 7773TIP3    H244735   0.897   4.069  13.708  0.2323 -0.2415  1.2617
 7774TIP3   OH244736   2.356   2.073   2.522  0.2031 -0.3039  0.2727
 7774TIP3    H144737   2.343   2.129   2.599  3.6225 -2.1851  2.4762
 7774TIP3    H244738   2.382   2.133   2.453  1.9856  1.1133  2.0431
 7775TIP3   OH244739   4.223   1.302   0.965 -0.5396  0.3536  0.0265
 7775TIP3    H144740   4.271   1.344   0.893  1.3997 -1.8966 -0.1179
 7775TIP3    H244741   4.168   1.237   0.922 -0.7227  0.2096  0.4728
 7776TIP3   OH244742   4.567   3.618  15.762  0.0344  0.2140  0.6118
 7776TIP3    H144743   4.493   3.678  15.771  0.5700  0.8983  0.5569
 7776TIP3    H244744   4.547   3.546  15.822 -1.0097  0.0306  0.0714
 7777TIP3   OH244745   4.452   6.277  12.840 -0.1392  0.2285 -1.2044
 7777TIP3    H144746   4.395   6.351  12.822  0.4206  1.4254  1.3799
 7777TIP3    H244747   4.393   6.203  12.851 -0.9033  0.7600 -1.6583
 7778TIP3   OH244748   3.338   2.437  13.252 -0.6969 -0.0910  0.4830
 7778TIP3    H144749   3.402   2.505  13.230  0.5204 -1.8793 -1.9891
 7778TIP3    H244750   3.277   2.437  13.179 -0.0791 -2.2956 -0.0837
 7779TIP3   OH244751   1.609   2.334   4.916 -0.2352 -0.4731 -0.0829
 7779TIP3    H144752   1.673   2.273   4.953 -0.3483 -1.0723 -0.8414
 7779TIP3    H244753   1.593   2.300   4.828  3.2735  3.2601 -2.4920
 7780TIP3   OH244754   2.445   4.496   2.921 -0.1643  0.2300  0.4179
 7780TIP3    H144755   2.495   4.525   2.845  0.2562  0.9004  0.9380
 7780TIP3    H244756   2.491   4.419   2.953 -0.6870 -0.4166 -0.3533
 7781TIP3   OH244757   0.024   5.928  12.929 -0.3118  0.2349  0.2819
 7781TIP3    H144758   0.105   5.881  12.908  0.6227  2.0625 -0.3847
 7781TIP3    H244759   0.038   5.961  13.017 -0.0525  1.0612 -0.0574
 7782TIP3   OH244760   0.757   4.637   5.690 -0.1041 -0.1967  0.2152
 7782TIP3    H144761   0.757   4.731   5.669 -0.0543  0.0285  1.1542
 7782TIP3    H244762   0.819   4.630   5.763  0.9424 -1.1777 -0.7330
 7783TIP3   OH244763   5.502   0.047  13.119  0.6458 -0.0060  0.3345
 7783TIP3    H144764   5.517   0.104  13.194  1.6713  0.2643 -0.0578
 7783TIP3    H244765   5.427  -0.007  13.144  0.5214  0.5787  1.2536
 7784TIP3   OH244766   0.637   0.493   3.840 -0.1941  0.3161  0.2547
 7784TIP3    H144767   0.658   0.419   3.897 -0.0966  1.5864  1.9591
 7784TIP3    H244768   0.681   0.568   3.880  0.8096  1.1226 -2.1451
 7785TIP3   OH244769   0.650   1.143  15.847 -0.1973  0.3730  0.4172
 7785TIP3    H144770   0.742   1.151  15.872  0.3533 -1.7739 -0.6512
 7785TIP3    H244771   0.652   1.092  15.766 -2.2999  1.1144 -0.1706
 7786TIP3   OH244772   6.525   3.521  15.478 -0.1394 -0.0951 -0.2798
 7786TIP3    H144773   6.482   3.559  15.401 -1.5289 -1.7834 -0.4064
 7786TIP3    H244774   6.464   3.537  15.550 -0.3898 -1.3392 -0.1909
 7787TIP3   OH244775   5.632   4.125  11.649 -0.1698  0.1052  0.6163
 7787TIP3    H144776   5.694   4.131  11.721  1.0702  0.4614 -0.4396
 7787TIP3    H244777   5.610   4.032  11.644  2.0745 -0.4212 -0.4137
 7788TIP3   OH244778   6.736   6.137   3.183 -0.2080 -0.2416 -0.3324
 7788TIP3    H144779   6.808   6.074   3.193  0.3413  0.2411 -1.1434
 7788TIP3    H244780   6.775   6.211   3.136 -1.6106 -0.6023 -2.1674
 7789TIP3   OH244781   6.162   5.572   3.154  0.6242  0.6563 -0.1136
 7789TIP3    H144782   6.146   5.498   3.213 -0.3247  1.3977  0.5972
 7789TIP3    H244783   6.155   5.535   3.066  1.1735 -0.2892  0.2334
 7790TIP3   OH244784   6.109   3.245   0.463 -0.0784 -0.2751  0.4501
 7790TIP3    H144785   6.045   3.262   0.532  1.5077  2.8389  1.3160
 7790TIP3    H244786   6.154   3.166   0.492 -2.8391 -2.0871  0.2114
 7791TIP3   OH244787   0.663   1.676   3.201  0.0873 -0.6496  0.1095
 7791TIP3    H144788   0.628   1.602   3.250  0.1048 -2.0006 -1.7900
 7791TIP3    H244789   0.758   1.660   3.198 -0.0103 -1.1569 -1.1518
 7792TIP3   OH244790   1.763   6.477  15.955  0.6250 -0.2904 -0.9205
 7792TIP3    H144791   1.811   6.559  15.943  0.9074 -0.3066  0.0165
 7792TIP3    H244792   1.693   6.499  16.017  2.2149 -1.2960  1.3577
 7793TIP3   OH244793   1.016   2.316  12.367  0.1154  0.3577  0.3847
 7793TIP3    H144794   1.010   2.384  12.434  0.6184  0.4936  0.2988
 7793TIP3    H244795   0.962   2.348  12.295 -0.0187  0.4508  0.5279
 7794TIP3   OH244796   5.991   4.869  13.900 -0.3043  0.2396 -0.5940
 7794TIP3    H144797   6.067   4.831  13.944 -0.8343 -0.2556 -0.0798
 7794TIP3    H244798   5.982   4.818  13.819 -1.0083 -0.7791  0.0904
 7795TIP3   OH244799   5.225   3.416  12.539 -0.0381  0.0214  0.2136
 7795TIP3    H144800   5.215   3.424  12.634  0.0649  1.2522  0.1442
 7795TIP3    H244801   5.264   3.499  12.513 -0.6392 -0.0523 -0.9841
 7796TIP3   OH244802   2.256   2.797   4.365  0.2044  0.0805 -0.4960
 7796TIP3    H144803   2.177   2.743   4.367  0.8917 -0.9516 -0.5106
 7796TIP3    H244804   2.264   2.830   4.455  0.3764 -0.7424 -0.2036
 7797TIP3   OH244805   2.269   2.796  14.720  0.0106  0.5350  0.0717
 7797TIP3    H144806   2.269   2.826  14.629 -0.2113  1.4461  0.3640
 7797TIP3    H244807   2.358   2.815  14.751  0.4121 -0.7126 -0.2360
 7798TIP3   OH244808   1.641   3.295  14.597 -0.1031 -0.2492 -0.0411
 7798TIP3    H144809   1.571   3.247  14.553  0.5586  0.0570 -1.5226
 7798TIP3    H244810   1.696   3.227  14.636 -0.2319 -0.5854 -0.4378
 7799TIP3   OH244811   2.974   4.999   0.346  0.1982 -0.0202 -0.2075
 7799TIP3    H144812   2.930   5.064   0.291 -1.2945 -0.4543  0.4115
 7799TIP3    H244813   2.951   4.915   0.307  2.6048 -0.2225 -1.3555
 7800TIP3   OH244814   5.264   1.936  12.375  0.5265  0.2827 -0.1866
 7800TIP3    H144815   5.313   1.888  12.307  0.5105  0.8047 -0.5750
 7800TIP3    H244816   5.311   2.019  12.384  0.1823  0.4586  0.0123
 7801TIP3   OH244817   6.487   4.956   5.118  0.0851  0.1494  0.0294
 7801TIP3    H144818   6.483   5.031   5.060 -1.0704 -0.4126 -0.6472
 7801TIP3    H244819   6.526   4.990   5.199 -0.5521  1.5084 -0.2113
 7802TIP3   OH244820   5.633   3.284   2.946 -0.2496  0.5879 -0.2140
 7802TIP3    H144821   5.581   3.264   3.024  0.4212  0.2489  0.1556
 7802TIP3    H244822   5.615   3.377   2.929  0.1311  0.8509  0.7601
 7803TIP3   OH244823   3.650   2.830   1.541 -0.6112  0.6033  0.0658
 7803TIP3    H144824   3.633   2.788   1.457  0.0606 -1.0429  0.7220
 7803TIP3    H244825   3.660   2.923   1.519 -0.8819  0.2740 -1.5969
 7804TIP3   OH244826   4.179   5.607   2.566 -0.2257 -0.1091 -0.4830
 7804TIP3    H144827   4.179   5.703   2.566  0.8819 -0.0803  0.6741
 7804TIP3    H244828   4.203   5.583   2.476  2.5210  0.7770 -0.0803
 7805TIP3   OH244829   1.113   3.200  10.305 -0.3659  0.0561 -0.7388
 7805TIP3    H144830   1.207   3.213  10.311 -0.2263 -0.0384 -2.3587
 7805TIP3    H244831   1.078   3.287  10.285 -0.6274  0.0815 -0.1913
 7806TIP3   OH244832   2.455   6.798  15.784  0.6465  0.1501 -0.0559
 7806TIP3    H144833   2.364   6.827  15.789  0.5538  0.2556 -1.8737
 7806TIP3    H244834   2.465   6.740  15.859 -1.0215 -0.1324 -0.0045
 7807TIP3   OH244835   0.393   5.701  17.117 -0.1298 -0.5906 -0.6898
 7807TIP3    H144836   0.363   5.777  17.168 -0.8451 -1.5869  0.4340
 7807TIP3    H244837   0.452   5.738  17.052  0.0041  0.8718  0.2090
 7808TIP3   OH244838   2.204   0.016   2.163  0.7783 -0.1243 -0.6128
 7808TIP3    H144839   2.220  -0.047   2.093  2.6254  0.2237 -0.5401
 7808TIP3    H244840   2.125  -0.017   2.207  1.5845 -2.2957 -0.6786
 7809TIP3   OH244841   1.804   1.716   1.549 -0.2502  0.7705 -0.3110
 7809TIP3    H144842   1.709   1.727   1.552 -0.3440  0.5508 -1.7855
 7809TIP3    H244843   1.835   1.792   1.499 -0.0953 -1.1099 -3.3423
 7810TIP3   OH244844   0.456   1.286   1.502 -0.0195 -0.2406 -0.7055
 7810TIP3    H144845   0.465   1.192   1.518  0.4683 -0.1848 -0.6592
 7810TIP3    H244846   0.496   1.300   1.416 -0.0019 -0.0585 -0.6676
 7811TIP3   OH244847   1.967   4.774   0.788  0.5299  0.1608  0.3334
 7811TIP3    H144848   2.035   4.710   0.810  0.1474 -0.2765  0.2665
 7811TIP3    H244849   1.973   4.840   0.856  0.8330 -0.0245  0.4880
 7812TIP3   OH244850   0.805   1.176   1.513  0.0336  0.1902  0.0980
 7812TIP3    H144851   0.736   1.132   1.464  0.8968 -0.1867 -0.8154
 7812TIP3    H244852   0.818   1.120   1.590 -0.1128 -0.1896 -0.1487
 7813TIP3   OH244853   4.748   2.830  12.219 -0.1139 -0.0185 -0.4999
 7813TIP3    H144854   4.719   2.909  12.174  0.0522  0.5263  0.3346
 7813TIP3    H244855   4.750   2.854  12.311  1.1196 -0.6234 -0.3469
 7814TIP3   OH244856   1.212   4.334   2.901 -0.0777 -0.2292  0.2146
 7814TIP3    H144857   1.126   4.332   2.943 -0.5595 -0.1457 -0.7324
 7814TIP3    H244858   1.201   4.393   2.827 -0.1246 -2.5850 -1.7775
 7815TIP3   OH244859   6.249   0.507  11.338  1.4298 -0.6942  0.2888
 7815TIP3    H144860   6.271   0.566  11.410 -1.4558  0.7138  0.1689
 7815TIP3    H244861   6.217   0.428  11.381  1.4361 -0.5664  0.5330
 7816TIP3   OH244862   1.394   4.286  15.190 -0.3360 -0.1452 -0.3297
 7816TIP3    H144863   1.314   4.245  15.156 -0.6583  0.0911  0.1390
 7816TIP3    H244864   1.402   4.367  15.140 -1.1555  0.5137  0.5630
 7817TIP3   OH244865   1.774   2.891   4.078 -0.5305  0.7661  0.1024
 7817TIP3    H144866   1.739   2.953   4.014 -0.8969  1.3326  0.8385
 7817TIP3    H244867   1.813   2.946   4.146 -3.3296  0.3446  2.2168
 7818TIP3   OH244868   2.409   6.200  14.324  0.6120 -0.4208  0.3638
 7818TIP3    H144869   2.462   6.121  14.312 -0.3999 -1.1973  0.8868
 7818TIP3    H244870   2.358   6.183  14.403  0.3669  0.7647  0.4820
 7819TIP3   OH244871   4.855   4.029   1.727 -0.4659  0.1645  0.1581
 7819TIP3    H144872   4.768   3.987   1.726 -0.7425  0.6445 -1.8302
 7819TIP3    H244873   4.910   3.969   1.677  0.2941  0.0176  1.1512
 7820TIP3   OH244874   1.364   1.537  12.501  0.1965  0.5626  0.0119
 7820TIP3    H144875   1.421   1.545  12.577 -0.0979 -0.3496  0.3479
 7820TIP3    H244876   1.304   1.611  12.506  0.0491  0.3937  0.7841
 7821TIP3   OH244877   6.059   2.482  15.377 -0.1890  0.0097 -0.2205
 7821TIP3    H144878   5.979   2.430  15.377 -1.8485  2.3589  1.3500
 7821TIP3    H244879   6.090   2.478  15.468 -0.3393  1.6369 -0.0642
 7822TIP3   OH244880   5.185   0.705  14.297 -0.5296  0.1174 -0.1337
 7822TIP3    H144881   5.174   0.613  14.273 -0.4420  0.3567 -1.1691
 7822TIP3    H244882   5.129   0.752  14.235 -1.0351  0.7329  0.7641
 7823TIP3   OH244883   6.794   1.043   2.826 -0.0977 -0.3524  0.6268
 7823TIP3    H144884   6.776   1.106   2.756  0.5988 -0.7131  0.1183
 7823TIP3    H244885   6.753   1.082   2.903 -1.7327 -0.3996 -0.1542
 7824TIP3   OH244886   2.726   0.390   2.771 -0.1320  0.2028 -0.2060
 7824TIP3    H144887   2.651   0.416   2.824 -0.4174 -1.2997  0.1534
 7824TIP3    H244888   2.694   0.391   2.681  0.2798  2.4978 -0.3962
 7825TIP3   OH244889   3.458   4.337   1.735  0.2332 -0.2365  0.0844
 7825TIP3    H144890   3.545   4.377   1.732  0.4098 -0.6244 -0.0116
 7825TIP3    H244891   3.418   4.374   1.814  1.0352 -1.1744  0.9649
 7826TIP3   OH244892   1.866   0.186   3.012 -0.7506  0.4418  0.4126
 7826TIP3    H144893   1.894   0.255   2.950  0.8857  0.9868  1.6720
 7826TIP3    H244894   1.813   0.127   2.959  0.0936  1.1955 -1.3824
 7827TIP3   OH244895   3.838   6.388   2.433 -0.0007 -0.0739 -0.5697
 7827TIP3    H144896   3.746   6.372   2.457 -0.2925  2.5730  0.4200
 7827TIP3    H244897   3.833   6.417   2.342  0.0273 -1.0999 -0.9119
 7828TIP3   OH244898   6.515   5.579  14.730 -0.1890  0.7565 -0.3532
 7828TIP3    H144899   6.435   5.533  14.756 -1.3645  3.1739  0.6278
 7828TIP3    H244900   6.576   5.510  14.706 -1.8259 -1.2776  1.0469
 7829TIP3   OH244901   6.721   2.446   3.265 -0.1889  0.3904  0.0464
 7829TIP3    H144902   6.678   2.430   3.350 -1.3140  0.6166 -0.4574
 7829TIP3    H244903   6.660   2.409   3.201  0.8709 -0.1907 -0.6452
 7830TIP3   OH244904   1.182   6.035  11.828  0.6694  0.4175  0.2213
 7830TIP3    H144905   1.177   6.058  11.921 -0.9399  0.5847  0.1305
 7830TIP3    H244906   1.093   6.007  11.806  1.0729  0.1954 -1.2241
 7831TIP3   OH244907   6.763   4.867  16.650  0.4516 -0.0647  0.0262
 7831TIP3    H144908   6.704   4.793  16.635 -0.3256  0.2651  1.2692
 7831TIP3    H244909   6.782   4.863  16.744  0.2576  1.3944  0.1499
 7832TIP3   OH244910   4.170   3.710   5.179  0.0444  0.1249  0.2433
 7832TIP3    H144911   4.171   3.787   5.236  0.0907 -0.6985  1.3881
 7832TIP3    H244912   4.077   3.690   5.167  0.0576 -0.6869  1.4169
 7833TIP3   OH244913   6.507   0.545   4.707  0.4102  0.2888  0.0541
 7833TIP3    H144914   6.444   0.502   4.766 -0.5773  0.4093 -0.8698
 7833TIP3    H244915   6.491   0.504   4.622  0.8806  1.0561 -0.4120
 7834TIP3   OH244916   5.375   3.824  11.058  0.2456  0.5020 -0.7007
 7834TIP3    H144917   5.309   3.891  11.044  0.9477  0.9929 -1.8054
 7834TIP3    H244918   5.449   3.851  11.004  1.4771  0.1291  0.7431
 7835TIP3   OH244919   2.869   1.363   1.523  0.3042  0.3623  0.1610
 7835TIP3    H144920   2.902   1.449   1.498  0.3525  0.1606 -0.4889
 7835TIP3    H244921   2.796   1.346   1.464  0.0927  0.0934  0.4940
 7836TIP3   OH244922   4.542   6.225  11.794  0.2802 -0.6107  0.1257
 7836TIP3    H144923   4.528   6.319  11.804  0.4787 -0.5431 -0.2272
 7836TIP3    H244924   4.461   6.193  11.753  0.2773 -0.5730  0.1028
 7837TIP3   OH244925   6.605   2.852  14.763 -0.0567 -0.4648  0.4626
 7837TIP3    H144926   6.651   2.785  14.713  0.2732 -0.0875  0.2521
 7837TIP3    H244927   6.530   2.807  14.800  0.0072 -0.8862  0.0916
 7838TIP3   OH244928   5.775   3.193   4.493  0.5785  0.1208  0.2604
 7838TIP3    H144929   5.795   3.099   4.486  1.5136  0.3825 -1.0529
 7838TIP3    H244930   5.740   3.204   4.581  4.1549 -0.8078  1.9736
 7839TIP3   OH244931   0.700   2.071  14.219 -0.1580 -0.2454  0.8150
 7839TIP3    H144932   0.778   2.116  14.185 -0.0003 -1.0828  0.0456
 7839TIP3    H244933   0.627   2.126  14.189  0.1456  1.1894  2.5247
 7840TIP3   OH244934   1.531   4.687   5.368 -0.0046 -0.0353 -0.7477
 7840TIP3    H144935   1.586   4.691   5.446  1.1453 -0.4765 -1.5021
 7840TIP3    H244936   1.509   4.594   5.358  1.3554 -0.2614 -1.9198
 7841TIP3   OH244937   4.575   1.327   2.877 -0.6259  0.3288  0.1278
 7841TIP3    H144938   4.614   1.285   2.954  2.9233  2.2723 -0.3969
 7841TIP3    H244939   4.562   1.418   2.903 -1.6247  0.4892 -0.8699
 7842TIP3   OH244940   1.679   1.940  11.578 -0.0200 -0.1220  0.4383
 7842TIP3    H144941   1.762   1.988  11.582 -0.8230  1.4185 -0.2925
 7842TIP3    H244942   1.613   2.006  11.597 -1.0933 -1.3427  1.0677
 7843TIP3   OH244943   0.535   2.155   1.313  0.4764 -0.2570  0.2662
 7843TIP3    H144944   0.465   2.117   1.259 -0.7867  1.0797  0.8809
 7843TIP3    H244945   0.592   2.200   1.251  0.9543 -1.5264 -0.2657
 7844TIP3   OH244946   0.751   0.049  13.472 -0.9064 -0.2538  0.1258
 7844TIP3    H144947   0.717  -0.029  13.428  0.2607 -0.4434 -0.4851
 7844TIP3    H244948   0.681   0.075  13.532 -1.1548 -2.0218  0.6656
 7845TIP3   OH244949   0.605   5.119  14.921  0.0926  0.0042  0.3973
 7845TIP3    H144950   0.532   5.058  14.914  0.7067 -0.6576 -0.3821
 7845TIP3    H244951   0.655   5.107  14.840 -0.7953  2.8969 -0.7326
 7846TIP3   OH244952   2.148   6.558   6.692 -0.1299 -0.0311  0.4389
 7846TIP3    H144953   2.240   6.533   6.705 -0.0018  1.1678  2.0913
 7846TIP3    H244954   2.152   6.630   6.628 -0.0378 -0.6582 -0.2796
 7847TIP3   OH244955   6.483   0.644   2.802  0.0216 -0.0421 -0.3322
 7847TIP3    H144956   6.461   0.689   2.721  0.9445 -0.6930 -0.9687
 7847TIP3    H244957   6.399   0.612   2.837 -0.7691  2.7436  0.5399
 7848TIP3   OH244958   0.478   3.483  13.735 -0.2974  0.1329 -0.2002
 7848TIP3    H144959   0.539   3.500  13.663 -0.6762  1.2852 -0.2684
 7848TIP3    H244960   0.461   3.570  13.772 -1.3193 -0.2689  0.2815
 7849TIP3   OH244961   4.171   1.830  15.801  0.1378  0.2592 -0.9138
 7849TIP3    H144962   4.085   1.832  15.759  0.1149  0.1388 -0.8735
 7849TIP3    H244963   4.230   1.798  15.733  0.1844  0.5305 -1.0003
 7850TIP3   OH244964   3.183   1.736   4.104  0.0220 -0.0836 -0.4383
 7850TIP3    H144965   3.229   1.820   4.095  1.4551 -0.9943 -2.1535
 7850TIP3    H244966   3.222   1.695   4.181 -1.0818  1.0107  0.7564
 7851TIP3   OH244967   3.830   1.061  12.147 -0.0181  0.2402 -0.0562
 7851TIP3    H144968   3.924   1.073  12.152 -0.1836  1.5197  0.5446
 7851TIP3    H244969   3.803   1.039  12.236 -0.3167  0.1112 -0.1741
 7852TIP3   OH244970   0.145   4.959  15.474  0.0372 -0.5899 -0.3551
 7852TIP3    H144971   0.167   4.897  15.405  1.7709 -0.9131  0.4408
 7852TIP3    H244972   0.229   4.993  15.505 -0.4872 -1.7005  2.6855
 7853TIP3   OH244973   5.193   1.525   0.236  0.8214 -0.1996 -0.3334
 7853TIP3    H144974   5.278   1.495   0.204  0.1317 -0.6831 -1.8234
 7853TIP3    H244975   5.165   1.590   0.172 -0.7871 -1.4914 -1.0273
 7854TIP3   OH244976   4.806   6.441   5.860  0.4159  0.1145  0.2822
 7854TIP3    H144977   4.741   6.376   5.834  0.8347  0.0044 -0.5172
 7854TIP3    H244978   4.888   6.393   5.863  0.5428  0.3623  0.7871
 7855TIP3   OH244979   0.775   2.264  15.622  0.2470  0.0418  0.7111
 7855TIP3    H144980   0.714   2.318  15.673  0.8209  1.3466  0.0585
 7855TIP3    H244981   0.861   2.306  15.636  0.3854  0.5810 -1.4826
 7856TIP3   OH244982   6.775   5.421  13.273 -0.0117 -0.0915 -0.0056
 7856TIP3    H144983   6.725   5.379  13.203 -1.9885  3.4018 -0.9369
 7856TIP3    H244984   6.718   5.415  13.350  0.4509 -0.5193  0.3156
 7857TIP3   OH244985   2.030   2.737   3.615  0.4085 -0.0360  0.1618
 7857TIP3    H144986   2.108   2.721   3.668  0.4410 -0.4497 -0.0086
 7857TIP3    H244987   1.959   2.743   3.678  0.5730  0.3016  0.3151
 7858TIP3   OH244988   5.879   3.965  11.434  0.2725 -0.0009  0.6685
 7858TIP3    H144989   5.920   3.908  11.499 -2.1562 -0.5625  1.8053
 7858TIP3    H244990   5.788   3.936  11.431 -0.7099  2.8780  0.1748
 7859TIP3   OH244991   3.140   1.122   2.847 -0.1249 -0.1689  0.0456
 7859TIP3    H144992   3.062   1.155   2.891  1.1821  2.1697  0.7622
 7859TIP3    H244993   3.212   1.145   2.905  1.1554 -2.2702 -0.5907
 7860TIP3   OH244994   3.255   2.155   1.714 -0.0440  0.1672 -0.0853
 7860TIP3    H144995   3.345   2.171   1.683 -0.7394  2.5282 -1.1501
 7860TIP3    H244996   3.267   2.108   1.796  2.1159 -0.7310 -0.8254
 7861TIP3   OH244997   4.290   1.192   1.725  0.3454 -0.0071 -0.1367
 7861TIP3    H144998   4.336   1.124   1.774  0.7820 -1.1667 -2.0324
 7861TIP3    H244999   4.238   1.143   1.660  0.2236  1.4506 -1.1809
 7862TIP3   OH245000   4.102   4.356   0.921  0.2717  0.4184  0.3372
 7862TIP3    H145001   4.012   4.353   0.887  0.7850 -0.4992 -1.0250
 7862TIP3    H245002   4.091   4.371   1.015 -1.2819  0.9461  0.1036
 7863TIP3   OH245003   6.383   4.179  16.136  0.7818 -0.5815  0.2457
 7863TIP3    H145004   6.365   4.213  16.049 -0.2586  0.2096  0.7474
 7863TIP3    H245005   6.306   4.202  16.188  1.8734  0.0576  1.6837
 7864TIP3   OH245006   3.945   2.490  13.694  0.5251 -0.3073 -0.4455
 7864TIP3    H145007   3.910   2.410  13.732 -1.6166 -0.0338 -1.7022
 7864TIP3    H245008   3.878   2.556  13.711  1.3517  0.7503 -1.1657
 7865TIP3   OH245009   0.174   4.852  16.173 -0.1591  0.1775  0.0741
 7865TIP3    H145010   0.092   4.826  16.129 -1.1517  2.3421  0.5233
 7865TIP3    H245011   0.223   4.898  16.105  0.8196 -1.2496 -0.2370
 7866TIP3   OH245012   5.247   3.103  17.163 -0.4708  0.5431 -0.5277
 7866TIP3    H145013   5.277   3.021  17.125  0.3562  0.2595  0.6916
 7866TIP3    H245014   5.161   3.118  17.124 -0.2163 -0.4076 -1.4750
 7867TIP3   OH245015   0.295   0.395  11.775  0.1040  0.1651 -0.2081
 7867TIP3    H145016   0.253   0.316  11.807  1.7678 -0.1572  1.3231
 7867TIP3    H245017   0.299   0.383  11.680 -1.1471 -0.8075 -0.1587
 7868TIP3   OH245018   1.104   0.012  17.066 -0.3001 -0.4092  0.3381
 7868TIP3    H145019   1.127   0.005  17.159 -0.1931 -0.2965  0.3199
 7868TIP3    H245020   1.135   0.099  17.040 -1.9949  0.3494  0.6768
 7869TIP3   OH245021   3.690   3.291  13.516  0.0526  0.7882  0.6158
 7869TIP3    H145022   3.632   3.261  13.586 -0.4906  1.3798  0.4301
 7869TIP3    H245023   3.701   3.385  13.533 -2.5977  1.6785 -1.7853
 7870TIP3   OH245024   4.351   0.734  12.378  0.0152 -0.4481  0.0271
 7870TIP3    H145025   4.371   0.755  12.287 -0.0706 -1.8678 -0.3425
 7870TIP3    H245026   4.342   0.639  12.379 -0.6619 -0.3893  1.3935
 7871TIP3   OH245027   5.861   1.199   2.198  0.3101 -0.5238 -0.5814
 7871TIP3    H145028   5.935   1.163   2.150  2.0180  2.3246 -0.3259
 7871TIP3    H245029   5.796   1.219   2.130 -0.1744 -2.7107 -0.8435
 7872TIP3   OH245030   2.685   5.018  14.879 -0.2954  0.2906  0.4099
 7872TIP3    H145031   2.594   4.993  14.865 -0.2701  0.8886 -1.0719
 7872TIP3    H245032   2.687   5.057  14.966 -1.5010  0.4853  0.3626
 7873TIP3   OH245033   6.256   0.476  12.679  0.5338  0.2029  0.0706
 7873TIP3    H145034   6.301   0.429  12.749 -0.0613 -0.7208 -0.1537
 7873TIP3    H245035   6.254   0.414  12.606  0.3889  0.8502 -0.4794
 7874TIP3   OH245036   0.343   5.877   6.347  0.7184  0.4959  0.0488
 7874TIP3    H145037   0.427   5.922   6.355  0.5456  0.8687 -0.1569
 7874TIP3    H245038   0.364   5.784   6.357  1.1373  0.5930  0.1036
 7875TIP3   OH245039   5.326   6.618   2.199 -0.4020 -0.5007 -0.4285
 7875TIP3    H145040   5.404   6.574   2.233  0.4453  0.6421 -0.8217
 7875TIP3    H245041   5.328   6.705   2.240 -1.7735 -0.6491 -0.0194
 7876TIP3   OH245042   1.256   0.229   5.023  0.3727  0.0481 -0.7216
 7876TIP3    H145043   1.168   0.193   5.013  0.8152 -1.3846  0.1132
 7876TIP3    H245044   1.313   0.166   4.979  1.0448  0.5964 -0.6531
 7877TIP3   OH245045   4.140   1.172   4.734  0.4895  0.0780  0.1453
 7877TIP3    H145046   4.225   1.165   4.690  0.7184 -0.3713  0.6342
 7877TIP3    H245047   4.087   1.103   4.695  0.6628 -0.2608  0.4968
 7878TIP3   OH245048   5.954   1.592   2.165 -0.1137 -0.0171 -0.3061
 7878TIP3    H145049   5.887   1.616   2.101  1.9358  1.2123 -2.1289
 7878TIP3    H245050   5.962   1.668   2.222 -0.4378 -0.2539  0.0538
 7879TIP3   OH245051   0.233   2.651  13.079  0.2259  0.3050 -0.6233
 7879TIP3    H145052   0.265   2.602  13.155  0.0821 -2.4604 -2.2179
 7879TIP3    H245053   0.138   2.636  13.079  0.1755  0.6036 -1.1034
 7880TIP3   OH245054   5.256   5.393  11.555 -0.4103  0.0745  0.1893
 7880TIP3    H145055   5.217   5.428  11.475 -2.4393 -1.3599  0.4638
 7880TIP3    H245056   5.329   5.451  11.574 -1.7826  2.2961 -0.9747
 7881TIP3   OH245057   1.788   3.833  10.458 -0.1834 -0.0525 -0.9016
 7881TIP3    H145058   1.772   3.925  10.478  2.2766  0.2317  0.1907
 7881TIP3    H245059   1.754   3.786  10.534 -0.6214  0.0274 -1.0456
 7882TIP3   OH245060   2.508   5.945  16.011  0.2913 -0.3078  0.3651
 7882TIP3    H145061   2.602   5.962  16.005  0.4987 -1.0297  1.3189
 7882TIP3    H245062   2.496   5.859  15.971  0.0561 -0.2972  0.4097
 7883TIP3   OH245063   6.480   6.021  15.949  0.4585  0.0348  0.1761
 7883TIP3    H145064   6.484   5.967  15.870  0.2441 -1.2487  0.9999
 7883TIP3    H245065   6.462   5.958  16.019  0.5257  1.1565  1.2279
 7884TIP3   OH245066   3.517   2.103  14.710 -0.3644 -0.2231  0.2757
 7884TIP3    H145067   3.495   2.011  14.725 -0.7024 -0.1571  0.2035
 7884TIP3    H245068   3.433   2.145  14.692  0.0100 -0.3320 -2.0419
 7885TIP3   OH245069   6.641   2.741  11.595 -0.6989  0.3607 -0.2401
 7885TIP3    H145070   6.705   2.670  11.590  0.0767  1.0287  0.0828
 7885TIP3    H245071   6.561   2.698  11.624 -0.0724 -0.2904  0.5884
 7886TIP3   OH245072   2.921   5.606  13.242 -0.4275  0.3462  0.3905
 7886TIP3    H145073   2.969   5.647  13.170 -2.9413  0.4479 -1.4015
 7886TIP3    H245074   2.934   5.512  13.229 -1.9163  0.2951 -1.1143
 7887TIP3   OH245075   5.740   3.407  10.750  0.2800  0.0898  0.2929
 7887TIP3    H145076   5.684   3.330  10.740  0.6508 -0.5577  2.6367
 7887TIP3    H245077   5.716   3.443  10.835  2.8296  0.2360  1.0469
 7888TIP3   OH245078   6.083   5.088  16.288 -0.5298  0.0358  0.6690
 7888TIP3    H145079   6.029   5.143  16.345  2.6244  2.1748  1.9438
 7888TIP3    H245080   6.092   5.139  16.207 -1.8820 -1.1917 -0.2839
 7889TIP3   OH245081   1.947   2.664   0.965 -0.3555  0.2001  0.0598
 7889TIP3    H145082   1.976   2.697   0.880  0.7253  0.0159  0.3397
 7889TIP3    H245083   1.998   2.715   1.028 -1.1893  0.3755  0.6079
 7890TIP3   OH245084   2.099   5.004  14.454 -0.0292  0.1237  0.4052
 7890TIP3    H145085   2.084   5.048  14.538 -0.0678 -1.3960  1.2139
 7890TIP3    H245086   2.016   4.960  14.435  0.0889  0.1815 -0.2807
 7891TIP3   OH245087   4.316   4.393   4.858  0.2318 -0.0302 -0.0836
 7891TIP3    H145088   4.306   4.363   4.948  0.6171  4.5289  1.7232
 7891TIP3    H245089   4.236   4.363   4.814 -0.5192 -1.3952  2.0440
 7892TIP3   OH245090   4.718   5.446   0.840  0.7722 -0.6818  0.1155
 7892TIP3    H145091   4.780   5.411   0.904 -0.0972 -2.2247  0.1720
 7892TIP3    H245092   4.635   5.404   0.862 -0.2879  1.2367 -0.0379
 7893TIP3   OH245093   6.740   5.944   5.064 -0.5450 -0.1437 -0.0087
 7893TIP3    H145094   6.645   5.951   5.052 -1.1020 -4.1071  0.6483
 7893TIP3    H245095   6.751   5.928   5.158  0.6628 -0.8322 -0.2474
 7894TIP3   OH245096   6.404   5.838   2.315 -0.6303  0.0992 -0.0408
 7894TIP3    H145097   6.348   5.888   2.375 -1.1656  0.2285 -0.6381
 7894TIP3    H245098   6.429   5.902   2.248 -0.5719 -0.2154 -0.3166
 7895TIP3   OH245099   0.695   2.541  14.828 -0.4248 -0.2677  0.6021
 7895TIP3    H145100   0.655   2.592  14.757  0.9458  0.8562  0.6018
 7895TIP3    H245101   0.719   2.606  14.894  1.1150 -0.9191  0.7253
 7896TIP3   OH245102   5.618   5.038  15.938 -0.1789 -0.0219 -0.3971
 7896TIP3    H145103   5.605   4.993  15.855  1.9308 -0.7600 -0.4039
 7896TIP3    H245104   5.661   4.972  15.994  3.3174  1.9425 -0.5036
 7897TIP3   OH245105   5.849   1.528   4.481 -0.1558 -0.0263 -0.0744
 7897TIP3    H145106   5.893   1.601   4.526 -0.3941 -0.1473  0.3562
 7897TIP3    H245107   5.899   1.451   4.507 -0.2719 -0.0931 -0.0532
 7898TIP3   OH245108   0.069   5.332  11.925  0.3830 -0.0227  0.8225
 7898TIP3    H145109   0.123   5.411  11.920  1.0782 -0.4824  0.9020
 7898TIP3    H245110   0.132   5.260  11.926 -0.2557 -0.6070  0.2595
 7899TIP3   OH245111   3.851   3.380  12.800 -0.3347  0.1426 -0.5368
 7899TIP3    H145112   3.834   3.463  12.844 -1.7578 -0.1104 -0.5610
 7899TIP3    H245113   3.901   3.329  12.863 -2.2127 -0.1681  0.7589
 7900TIP3   OH245114   2.318   5.430  16.208  0.1508  0.0405  0.3610
 7900TIP3    H145115   2.252   5.368  16.178  1.4890 -0.8761 -0.7800
 7900TIP3    H245116   2.399   5.402  16.166  0.8287  2.5060 -0.1472
 7901TIP3   OH245117   5.647   3.944   6.248  0.3048 -0.7131 -0.2758
 7901TIP3    H145118   5.597   3.928   6.328 -1.7012  0.8437 -1.1136
 7901TIP3    H245119   5.655   4.039   6.243 -0.0559 -0.7455 -2.1241
 7902TIP3   OH245120   3.445   1.118   6.348  0.3919 -0.3376 -0.2426
 7902TIP3    H145121   3.472   1.184   6.412 -0.8983 -1.2059  1.2606
 7902TIP3    H245122   3.396   1.167   6.283  1.2893  0.4908 -0.3206
 7903TIP3   OH245123   3.648   6.745  13.471 -0.0897 -0.1095  0.2781
 7903TIP3    H145124   3.603   6.713  13.393  0.0415  0.7644 -0.1680
 7903TIP3    H245125   3.611   6.694  13.543 -2.3122  1.0497  0.0375
 7904TIP3   OH245126   3.125   1.788   4.517  0.4233  0.8494 -0.3426
 7904TIP3    H145127   3.073   1.859   4.554 -0.3666 -0.1878  0.6355
 7904TIP3    H245128   3.199   1.778   4.578 -0.7415 -0.6889  0.9316
 7905TIP3   OH245129   1.258   4.678  15.581  0.3231  0.3645 -0.1529
 7905TIP3    H145130   1.261   4.646  15.672 -2.3895 -1.6621 -0.6445
 7905TIP3    H245131   1.270   4.773  15.589 -0.8039  0.3971  2.4849
 7906TIP3   OH245132   1.710   5.017   2.677 -0.1557  0.0158 -0.3170
 7906TIP3    H145133   1.749   4.976   2.600 -0.2858  1.9843 -1.5009
 7906TIP3    H245134   1.635   5.065   2.643 -0.4267  0.6351  1.1003
 7907TIP3   OH245135   5.127   0.710  12.019  0.4801 -0.8465  0.2089
 7907TIP3    H145136   5.123   0.655  12.097  0.6767 -1.4107 -0.1734
 7907TIP3    H245137   5.216   0.697  11.986  0.4096 -0.5785 -0.0863
 7908TIP3   OH245138   5.757   5.596  13.323  0.3085  0.0183  0.3705
 7908TIP3    H145139   5.843   5.595  13.365  0.4905  1.1535  0.0600
 7908TIP3    H245140   5.717   5.678  13.353  0.2967  0.6928 -1.3415
 7909TIP3   OH245141   4.426   0.578   4.587 -0.4460  0.0090  0.2997
 7909TIP3    H145142   4.337   0.583   4.622 -0.7379  1.3485 -0.5568
 7909TIP3    H245143   4.456   0.669   4.585  0.2813 -0.2333 -1.0770
 7910TIP3   OH245144   1.085   6.092   5.995 -0.1242  0.0373  0.6126
 7910TIP3    H145145   1.018   6.150   6.033 -0.0906  1.3940 -1.2309
 7910TIP3    H245146   1.107   6.134   5.911  1.0190 -1.8796 -0.0972
 7911TIP3   OH245147   3.710   3.123   1.600  0.3057 -0.3443  0.4743
 7911TIP3    H145148   3.651   3.188   1.638  0.9731 -0.3459  1.5622
 7911TIP3    H245149   3.774   3.175   1.551 -1.9813 -0.4232 -2.9700
 7912TIP3   OH245150   5.093   3.643   4.798 -0.3663  0.1665 -0.0700
 7912TIP3    H145151   5.084   3.621   4.890 -0.8078  0.2991 -0.0821
 7912TIP3    H245152   5.039   3.578   4.752  0.5430 -0.4565 -0.3050
 7913TIP3   OH245153   0.038   2.507  12.643  0.0002  0.4116 -0.1638
 7913TIP3    H145154   0.118   2.490  12.692 -0.2238 -1.0238 -0.2387
 7913TIP3    H245155  -0.028   2.451  12.686 -0.7061  0.7639 -0.7651
 7914TIP3   OH245156   1.068   6.159  14.515 -0.4600  0.2020  0.5007
 7914TIP3    H145157   1.145   6.207  14.483 -0.5360  0.2252  0.3520
 7914TIP3    H245158   1.018   6.223  14.565 -1.2358  0.6385 -0.7855
 7915TIP3   OH245159   6.000   5.548   5.098 -0.7670  0.3349  0.0811
 7915TIP3    H145160   5.952   5.615   5.051 -0.8872  1.1599  1.3203
 7915TIP3    H245161   6.088   5.584   5.108 -0.3633 -0.4078 -0.6457
 7916TIP3   OH245162   5.570   3.284   1.563 -0.6360  0.0464 -0.4113
 7916TIP3    H145163   5.574   3.216   1.631 -3.4667  1.4115  1.3162
 7916TIP3    H245164   5.501   3.255   1.503 -0.1842  0.2576 -1.0485
 7917TIP3   OH245165   1.128   3.335   1.560  0.1138 -0.0257 -0.2779
 7917TIP3    H145166   1.121   3.365   1.651 -1.0478 -0.6064 -0.1612
 7917TIP3    H245167   1.085   3.403   1.509 -1.4090 -0.8203 -0.1307
 7918TIP3   OH245168   3.877   6.684  12.365 -0.1345  0.4619  0.2428
 7918TIP3    H145169   3.806   6.633  12.327  1.9345 -0.9185 -2.0071
 7918TIP3    H245170   3.936   6.620  12.403  1.1063  1.3636 -0.0855
 7919TIP3   OH245171   0.077   4.030  12.631  0.1142  0.8325  0.2401
 7919TIP3    H145172  -0.011   4.063  12.616  0.0806  0.8158  0.3931
 7919TIP3    H245173   0.065   3.951  12.683  0.2209  0.8502  0.2930
 7920TIP3   OH245174   1.131   4.886  17.036  0.3818  0.0918  0.0331
 7920TIP3    H145175   1.160   4.796  17.020 -1.6509 -1.1151  2.4725
 7920TIP3    H245176   1.109   4.920  16.949  0.0739 -2.1814 -0.8364
 7921TIP3   OH245177   3.482   3.429  11.737 -0.1906  0.3443 -0.2010
 7921TIP3    H145178   3.573   3.458  11.733 -0.4492  1.0678 -2.3234
 7921TIP3    H245179   3.487   3.341  11.774  1.2010  0.8922  1.0344
 7922TIP3   OH245180   3.700   2.343   1.959 -0.2737  0.1052  0.8403
 7922TIP3    H145181   3.635   2.318   2.025  0.3184 -4.8146 -0.0909
 7922TIP3    H245182   3.775   2.375   2.010 -1.0873 -0.2121  2.2929
 7923TIP3   OH245183   3.391   6.633   0.586  0.3466  0.2044  0.3254
 7923TIP3    H145184   3.465   6.656   0.642 -0.0652  3.8232 -0.3663
 7923TIP3    H245185   3.429   6.625   0.498  0.1476  0.5694  0.2029
 7924TIP3   OH245186   3.338   5.824   1.663 -0.3637  0.0892  0.5224
 7924TIP3    H145187   3.305   5.743   1.701  1.2048 -0.8882 -0.0773
 7924TIP3    H245188   3.422   5.838   1.706  0.9011 -0.4175 -1.6226
 7925TIP3   OH245189   6.283   2.078  12.183  0.2327 -0.0153 -0.1414
 7925TIP3    H145190   6.309   1.990  12.209  0.2778 -0.2645 -1.0118
 7925TIP3    H245191   6.195   2.089  12.220  0.2558 -0.3878  0.0338
 7926TIP3   OH245192   0.145   2.735   1.241  0.1651 -0.5288  0.2175
 7926TIP3    H145193   0.074   2.734   1.305  0.0609 -0.7276  0.1018
 7926TIP3    H245194   0.210   2.674   1.276 -0.1561 -1.0932 -0.1572
 7927TIP3   OH245195   5.397   2.808   0.550 -0.6061  0.5581 -0.1680
 7927TIP3    H145196   5.309   2.781   0.525 -0.4256  0.0752 -0.3062
 7927TIP3    H245197   5.454   2.741   0.512 -0.2259  0.5428  0.4025
 7928TIP3   OH245198   3.716   3.981  13.156 -0.5067 -0.4499 -0.0138
 7928TIP3    H145199   3.639   3.947  13.111 -0.5964 -2.3656  1.4713
 7928TIP3    H245200   3.789   3.929  13.122 -0.2024 -0.2056  0.2579
 7929TIP3   OH245201   5.493   0.961   4.642 -0.1867 -0.0557  0.6372
 7929TIP3    H145202   5.446   0.957   4.725 -0.9001 -0.9218  0.2061
 7929TIP3    H245203   5.430   1.000   4.581  0.4736  0.9687  0.5757
 7930TIP3   OH245204   0.429   4.630   3.135  0.1393 -0.2095 -0.2153
 7930TIP3    H145205   0.403   4.638   3.043  1.1767  1.0895 -0.4274
 7930TIP3    H245206   0.470   4.544   3.141  0.0561 -0.3113 -0.9778
 7931TIP3   OH245207   4.910   6.289   5.346  0.2765  0.1509 -0.6623
 7931TIP3    H145208   4.842   6.332   5.294 -1.1847 -0.4388  0.6773
 7931TIP3    H245209   4.984   6.282   5.286 -0.3016  2.1500 -1.7193
 7932TIP3   OH245210   4.511   2.684  13.143  0.3581 -0.0866  0.2728
 7932TIP3    H145211   4.524   2.594  13.171  0.1140  0.1836  1.2951
 7932TIP3    H245212   4.431   2.681  13.090  1.2549 -0.7327 -1.0827
 7933TIP3   OH245213   6.055   0.352  15.261  0.0178  0.1873 -0.4635
 7933TIP3    H145214   6.099   0.274  15.228  0.2941  0.1183  0.0573
 7933TIP3    H245215   6.027   0.328  15.349  0.4163  0.7983 -0.1683
 7934TIP3   OH245216   5.555   4.450  15.478  0.0322 -0.2389  0.8109
 7934TIP3    H145217   5.648   4.427  15.481 -0.1306 -1.3583 -1.0520
 7934TIP3    H245218   5.529   4.432  15.387 -2.2411 -0.9376  1.5365
 7935TIP3   OH245219   2.367   0.468  13.962  0.2075  0.5766 -0.6150
 7935TIP3    H145220   2.460   0.487  13.969 -0.1383  1.7052  2.3087
 7935TIP3    H245221   2.363   0.377  13.934  2.2395 -0.0492  0.9174
 7936TIP3   OH245222   5.618   0.592   1.868 -0.4943  0.4955 -0.6297
 7936TIP3    H145223   5.595   0.518   1.925  0.9192  1.1627  0.9223
 7936TIP3    H245224   5.705   0.569   1.835 -0.5526  0.9327 -1.0784
 7937TIP3   OH245225   6.259   4.500  13.895 -0.3024 -0.1989  0.1436
 7937TIP3    H145226   6.347   4.522  13.863 -0.5556 -1.5779 -1.6514
 7937TIP3    H245227   6.212   4.471  13.817 -1.7523 -1.3876  1.4102
 7938TIP3   OH245228   2.458   3.182  11.536 -0.2272  0.1219 -0.1780
 7938TIP3    H145229   2.443   3.275  11.523 -3.1257 -0.2266  0.0590
 7938TIP3    H245230   2.536   3.178  11.591 -0.9522  2.4720  1.1458
 7939TIP3   OH245231   2.767   4.956   4.099  0.2087  0.0805 -0.2148
 7939TIP3    H145232   2.747   4.867   4.069  2.1917 -0.1967 -0.8847
 7939TIP3    H245233   2.765   4.950   4.195  0.2979 -0.6833 -0.2555
 7940TIP3   OH245234   1.347   3.136   3.516  0.4437 -0.4270 -0.2317
 7940TIP3    H145235   1.354   3.215   3.570  0.8527 -2.4874  2.9317
 7940TIP3    H245236   1.262   3.098   3.538 -0.2755 -0.3770 -2.5926
 7941TIP3   OH245237   4.407   5.542   4.994  0.3776 -0.2194 -0.0286
 7941TIP3    H145238   4.373   5.527   5.082 -0.2362 -0.9424 -0.3813
 7941TIP3    H245239   4.400   5.457   4.951 -1.5116  0.6312 -1.5315
 7942TIP3   OH245240   3.876   2.833  15.516  1.0720 -0.6515  0.2557
 7942TIP3    H145241   3.849   2.839  15.425  0.3744 -0.2512  0.4833
 7942TIP3    H245242   3.812   2.773  15.556  0.8020 -0.0884  0.6871
 7943TIP3   OH245243   1.653   2.461   3.479 -0.8217 -0.1631  0.5689
 7943TIP3    H145244   1.593   2.533   3.499 -0.4323  0.0776  0.8710
 7943TIP3    H245245   1.714   2.459   3.553 -1.4071 -1.4226  1.0579
 7944TIP3   OH245246   4.734   2.947  11.837  0.9165  0.1067  0.4974
 7944TIP3    H145247   4.741   2.975  11.746 -2.7710 -0.6438 -0.1785
 7944TIP3    H245248   4.795   2.873  11.844  1.1425  0.0457 -1.4216
 7945TIP3   OH245249   0.009   4.194  13.039  0.4156  0.4785  0.6314
 7945TIP3    H145250   0.095   4.171  13.004  1.1830  1.2026  1.9567
 7945TIP3    H245251  -0.006   4.131  13.109 -0.0975  0.4150  0.4681
 7946TIP3   OH245252   4.944   3.802  11.105 -0.0836 -0.1707 -0.4538
 7946TIP3    H145253   4.863   3.791  11.055  0.6678  0.5530 -1.8767
 7946TIP3    H245254   4.933   3.885  11.151 -0.8975 -0.9772  0.9125
 7947TIP3   OH245255   4.131   1.264   3.656  0.2126 -0.4701  0.3111
 7947TIP3    H145256   4.133   1.235   3.747 -0.6772  1.7580  1.1225
 7947TIP3    H245257   4.180   1.346   3.656 -0.6573  0.0828 -1.0029
 7948TIP3   OH245258   6.191   0.683  10.830  0.1691  0.0794  0.0835
 7948TIP3    H145259   6.222   0.632  10.905  3.1975  2.8932  0.9696
 7948TIP3    H245260   6.237   0.647  10.755  1.8317  0.9866  0.6138
 7949TIP3   OH245261   1.609   2.015  13.596  0.5077 -0.1058  0.6519
 7949TIP3    H145262   1.656   2.059  13.667  1.2682 -0.0360  0.1131
 7949TIP3    H245263   1.543   1.963  13.641  1.1209 -0.2375  1.4337
 7950TIP3   OH245264   4.522   6.694  14.900 -0.1966  0.1852 -0.1320
 7950TIP3    H145265   4.475   6.650  14.970 -1.5020 -0.0875 -1.1394
 7950TIP3    H245266   4.603   6.643  14.889  0.4656  0.7477  1.7211
 7951TIP3   OH245267   6.005   6.006   3.882  0.6377  0.0243 -0.5172
 7951TIP3    H145268   6.034   5.920   3.913 -0.8499 -0.0256  0.8450
 7951TIP3    H245269   6.045   6.068   3.942 -1.7794 -0.0370  1.2868
 7952TIP3   OH245270   0.477   3.361   5.873  0.1484 -0.1220  0.3026
 7952TIP3    H145271   0.516   3.415   5.941  0.7118 -1.1662  0.8415
 7952TIP3    H245272   0.384   3.384   5.874  0.4853  1.2988  0.0501
 7953TIP3   OH245273   0.848   5.977   3.598  0.0567 -0.0666  0.4176
 7953TIP3    H145274   0.937   5.975   3.562  1.2339 -1.9660  3.0858
 7953TIP3    H245275   0.856   5.935   3.683 -2.8469  2.4396  2.1357
 7954TIP3   OH245276   4.282   2.943   4.044 -0.1071  0.5521 -0.2688
 7954TIP3    H145277   4.232   3.010   4.090  0.7454  1.4304 -0.5830
 7954TIP3    H245278   4.289   2.872   4.107  1.0310  1.7268  1.0067
 7955TIP3   OH245279   1.206   3.315  13.791  0.5694  0.8283  0.2269
 7955TIP3    H145280   1.195   3.389  13.850 -1.4127  0.6339  0.1667
 7955TIP3    H245281   1.126   3.313  13.739  0.2533 -1.7239  0.6595
 7956TIP3   OH245282   1.971   3.390  10.783 -0.1278 -0.3975 -0.4578
 7956TIP3    H145283   2.037   3.349  10.727  0.5709 -0.5058  0.4290
 7956TIP3    H245284   1.970   3.482  10.756  1.0257 -0.2032  0.1090
 7957TIP3   OH245285   1.172   5.228   0.746 -0.2912  0.3443 -0.0180
 7957TIP3    H145286   1.217   5.307   0.714  0.2632 -0.0610 -0.2604
 7957TIP3    H245287   1.208   5.157   0.693 -0.9850 -0.0418  0.0093
 7958TIP3   OH245288   0.576   4.423   0.089  0.4247  0.5855  0.3605
 7958TIP3    H145289   0.536   4.500   0.048  1.5095  1.2737  0.5855
 7958TIP3    H245290   0.524   4.349   0.055  0.0005  1.3203 -0.6346
 7959TIP3   OH245291   4.993   0.487   3.323  0.1049  0.4942  0.1941
 7959TIP3    H145292   4.919   0.452   3.371  1.1512 -0.0733  1.4441
 7959TIP3    H245293   4.988   0.582   3.336  0.6668  0.3132  1.9229
 7960TIP3   OH245294   0.925   6.041  14.732 -0.1279 -0.4721  0.2586
 7960TIP3    H145295   0.959   5.953  14.748  0.1758 -0.3063  0.5319
 7960TIP3    H245296   0.972   6.072  14.655 -1.5748 -1.2612 -1.0042
 7961TIP3   OH245297   3.704   1.772   1.075 -0.0133 -0.0202  0.1310
 7961TIP3    H145298   3.628   1.721   1.046 -0.2066  1.3666 -2.0931
 7961TIP3    H245299   3.778   1.736   1.025  0.3833  0.0357  0.6687
 7962TIP3   OH245300   5.430   1.315   2.588 -0.2762 -0.1453 -0.1545
 7962TIP3    H145301   5.356   1.254   2.589  0.4024 -1.0517 -1.6386
 7962TIP3    H245302   5.477   1.295   2.506 -0.4546  2.9010 -1.1329
 7963TIP3   OH245303   5.854   5.718  10.970 -0.6375 -0.4287 -0.4976
 7963TIP3    H145304   5.935   5.768  10.978 -0.0799 -1.3915  0.1205
 7963TIP3    H245305   5.875   5.650  10.906 -0.2748 -1.9111  1.1210
 7964TIP3   OH245306   5.949   1.417  12.282  0.2300 -0.1858  0.4420
 7964TIP3    H145307   5.871   1.417  12.226  0.1998  2.3955  0.3847
 7964TIP3    H245308   6.021   1.395  12.223  0.2224  2.6314 -0.7810
 7965TIP3   OH245309   2.034   2.438   5.764  0.4558 -0.5932  0.1368
 7965TIP3    H145310   2.037   2.472   5.853  1.4295 -0.4096  0.0418
 7965TIP3    H245311   2.126   2.426   5.739  0.2352  0.1365 -1.1401
 7966TIP3   OH245312   0.873   6.555  16.543 -0.4086  0.2524 -0.6748
 7966TIP3    H145313   0.844   6.646  16.557  0.8160  0.4519  0.8506
 7966TIP3    H245314   0.963   6.563  16.513 -0.8189 -0.4469 -2.1547
 7967TIP3   OH245315   6.782   1.625  16.992 -0.2014 -0.2235 -0.2816
 7967TIP3    H145316   6.861   1.572  17.001 -0.5537 -0.6014  0.6738
 7967TIP3    H245317   6.795   1.700  17.050 -0.9585 -0.8014  0.6535
 7968TIP3   OH245318   1.475   1.487  11.610  0.4403 -0.3536  0.1414
 7968TIP3    H145319   1.463   1.455  11.699  2.2133  1.4490  1.1206
 7968TIP3    H245320   1.555   1.444  11.579 -0.9638 -2.1419 -1.2407
 7969TIP3   OH245321   0.199   3.718   3.510 -0.6983  0.4049 -0.8249
 7969TIP3    H145322   0.165   3.719   3.599 -1.0576 -0.9969 -0.9143
 7969TIP3    H245323   0.283   3.672   3.516 -0.5376  0.6523 -1.1444
 7970TIP3   OH245324   4.361   6.465   6.165 -0.1947 -0.2077  0.1134
 7970TIP3    H145325   4.433   6.508   6.119 -0.2643 -0.5896 -0.3654
 7970TIP3    H245326   4.368   6.373   6.138 -0.3315 -0.4105  0.7473
 7971TIP3   OH245327   0.064   5.106   1.537  0.0789 -0.9786  0.0500
 7971TIP3    H145328   0.050   5.073   1.448  2.1178 -1.2934 -0.2019
 7971TIP3    H245329   0.025   5.194   1.536  0.1006 -0.9610 -1.1691
 7972TIP3   OH245330   0.669   2.578   0.039  0.2847  0.7286  0.2492
 7972TIP3    H145331   0.731   2.505   0.038 -2.9949 -2.3279 -1.2939
 7972TIP3    H245332   0.669   2.611  -0.051 -0.0389  0.9521  0.3290
 7973TIP3   OH245333   4.659   4.584   1.537  0.3293 -0.3878  0.1180
 7973TIP3    H145334   4.673   4.492   1.514 -0.5305 -0.4758 -0.0730
 7973TIP3    H245335   4.736   4.629   1.501 -1.1285 -0.4330 -3.4630
 7974TIP3   OH245336   6.498   5.889  15.704 -0.2252  0.4538  0.5848
 7974TIP3    H145337   6.521   5.802  15.671  0.2412  0.2810  1.3595
 7974TIP3    H245338   6.571   5.944  15.678  0.0721  0.3491  1.1827
 7975TIP3   OH245339   3.729   0.553   2.885  0.2128  0.3473 -0.5003
 7975TIP3    H145340   3.727   0.591   2.974  2.1040  1.4618 -0.8816
 7975TIP3    H245341   3.658   0.598   2.839 -0.1676  0.4716  0.1944
 7976TIP3   OH245342   5.935   3.569  12.635  0.2274 -0.4713  0.8297
 7976TIP3    H145343   5.881   3.492  12.618  1.1255 -1.0636  0.5955
 7976TIP3    H245344   5.922   3.625  12.558 -0.9549 -0.0634  1.3099
 7977TIP3   OH245345   0.047   2.897  15.619  0.0903  0.4035  0.6404
 7977TIP3    H145346   0.055   2.886  15.714  0.3433 -0.5756  0.5183
 7977TIP3    H245347   0.051   2.991  15.606  0.7058  0.5254  1.5508
 7978TIP3   OH245348   5.308   3.773  16.659 -0.0427  0.5983 -0.1804
 7978TIP3    H145349   5.273   3.828  16.589 -0.1387  2.6178  1.3726
 7978TIP3    H245350   5.391   3.813  16.683  0.3353 -0.4801  0.4109
 7979TIP3   OH245351   2.932   0.735  13.972  0.0723 -0.0063 -0.1092
 7979TIP3    H145352   2.858   0.762  14.027 -0.0674 -2.0415  0.8124
 7979TIP3    H245353   2.992   0.692  14.032  0.6491 -0.9228 -1.2993
 7980TIP3   OH245354   5.470   3.321  10.136 -0.2905  1.0109  0.0731
 7980TIP3    H145355   5.491   3.387  10.203  0.0886  1.3349 -0.3629
 7980TIP3    H245356   5.496   3.361  10.054  1.2697 -0.2278 -0.0807
 7981TIP3   OH245357   6.400   2.328  15.810  0.1641  0.2037 -0.3467
 7981TIP3    H145358   6.402   2.377  15.727 -1.5867  0.2905 -0.3561
 7981TIP3    H245359   6.332   2.262  15.797 -0.2676  0.3484  1.1090
 7982TIP3   OH245360   5.761   1.967  15.757 -0.2689  0.0154 -0.3922
 7982TIP3    H145361   5.717   1.883  15.742 -2.3924  1.0672 -0.4534
 7982TIP3    H245362   5.760   2.010  15.671  0.8381  0.1072 -0.3684
 7983TIP3   OH245363   5.186   3.035  12.175 -0.0187  0.4305 -0.9531
 7983TIP3    H145364   5.141   3.075  12.100 -0.7379  1.0111 -0.2284
 7983TIP3    H245365   5.213   3.109  12.229  0.2453  0.0059 -0.4957
 7984TIP3   OH245366   2.618   4.642   2.338  0.1179 -0.1531  0.1635
 7984TIP3    H145367   2.530   4.636   2.376 -0.1388 -0.2787 -0.4422
 7984TIP3    H245368   2.603   4.645   2.243  0.7052  1.0606  0.0944
 7985TIP3   OH245369   6.043   5.929  12.250 -0.1713 -0.0253 -0.1573
 7985TIP3    H145370   5.978   5.966  12.190 -1.2792 -1.4413  0.1033
 7985TIP3    H245371   6.037   5.834  12.235  2.1956 -0.1866 -0.4696
 7986TIP3   OH245372   0.186   3.599   1.065 -0.4685  0.2230  0.4362
 7986TIP3    H145373   0.236   3.660   1.119  0.3942 -1.6758  1.8708
 7986TIP3    H245374   0.252   3.550   1.017 -1.1614  0.5090 -0.8761
 7987TIP3   OH245375   6.377   0.178  11.473  0.1262  0.0275  0.8808
 7987TIP3    H145376   6.366   0.100  11.528 -0.9427  0.3097  1.0972
 7987TIP3    H245377   6.349   0.150  11.386 -0.5019  0.2193  1.0119
 7988TIP3   OH245378   2.277   5.968   5.316 -0.5209  0.0739 -0.0449
 7988TIP3    H145379   2.359   6.010   5.341  0.3965 -0.5854 -1.7725
 7988TIP3    H245380   2.209   6.022   5.356  0.7285  1.1376  0.7104
 7989TIP3   OH245381   5.633   3.583  16.426 -0.5739  0.1689 -0.0340
 7989TIP3    H145382   5.671   3.664  16.461 -3.3978  1.7758 -0.4336
 7989TIP3    H245383   5.539   3.592  16.442 -1.1209 -2.4323 -1.3523
 7990TIP3   OH245384   4.861   1.842  12.634 -0.3525 -0.3808 -0.3589
 7990TIP3    H145385   4.909   1.908  12.584 -1.4764 -0.3118 -1.3822
 7990TIP3    H245386   4.893   1.852  12.723 -1.2066  2.2637 -0.2650
 7991TIP3   OH245387   1.466   3.526  15.168 -0.0250  0.3461 -0.1768
 7991TIP3    H145388   1.470   3.468  15.092  0.2848 -0.5758  0.5362
 7991TIP3    H245389   1.550   3.516  15.211 -0.5707  0.0794  0.8562
 7992TIP3   OH245390   2.169   4.561   4.034  0.2802  0.3700  0.1713
 7992TIP3    H145391   2.172   4.643   4.083  0.8486 -0.0134  0.8151
 7992TIP3    H245392   2.098   4.571   3.972  0.5137  1.4437  0.0707
 7993TIP3   OH245393   6.214   3.721  16.014 -0.3119  0.6253  0.4589
 7993TIP3    H145394   6.274   3.795  16.016  1.0141 -0.4302  0.5886
 7993TIP3    H245395   6.146   3.748  15.952  1.5210  0.9340 -1.5511
 7994TIP3   OH245396   0.686   5.978   4.829 -0.2183  0.2433 -0.3683
 7994TIP3    H145397   0.771   6.021   4.817  1.7883 -3.0299  0.8611
 7994TIP3    H245398   0.631   6.044   4.869  1.7348  2.4767 -1.1435
 7995TIP3   OH245399   2.350   0.439   5.190 -0.0235 -0.2040 -0.2557
 7995TIP3    H145400   2.387   0.466   5.106  0.8012  0.1958  0.2257
 7995TIP3    H245401   2.425   0.408   5.241  0.0916  2.5639  1.5066
 7996TIP3   OH245402   0.990   3.386   0.709 -0.3255 -0.4229  0.2544
 7996TIP3    H145403   0.977   3.480   0.696  0.4948 -0.0656  1.8118
 7996TIP3    H245404   0.974   3.373   0.803  0.6748 -1.6331  0.2742
 7997TIP3   OH245405   3.155   0.950  16.299  0.4045  0.4480  0.1390
 7997TIP3    H145406   3.191   0.892  16.366 -0.2091  0.9685  0.9330
 7997TIP3    H245407   3.129   0.891  16.228  2.8490  0.0500 -0.5147
 7998TIP3   OH245408   1.051   4.917   4.779  0.0895 -0.3300  0.0711
 7998TIP3    H145409   0.993   4.969   4.722  1.0428  0.6406 -0.0538
 7998TIP3    H245410   1.031   4.826   4.756 -0.8917 -0.0028 -0.4562
 7999TIP3   OH245411   5.709   2.333   5.582 -0.4028  0.4103 -0.2331
 7999TIP3    H145412   5.647   2.261   5.572 -0.3957  0.4465 -0.5428
 7999TIP3    H245413   5.794   2.291   5.592 -0.5290  0.3467  0.6363
 8000TIP3   OH245414   1.796   0.351  14.198 -0.3997 -0.4996 -0.0169
 8000TIP3    H145415   1.861   0.312  14.256  0.5784 -0.0446 -0.7702
 8000TIP3    H245416   1.835   0.435  14.172 -1.5318  0.0246 -0.0564
 8001TIP3   OH245417   2.667   2.767  10.601 -0.1850  0.2632 -0.4771
 8001TIP3    H145418   2.582   2.803  10.574 -0.2071  1.1686  0.7312
 8001TIP3    H245419   2.648   2.677  10.627 -0.1210 -0.7849 -3.5905
 8002TIP3   OH245420   2.652   4.401  11.517  0.4723 -0.3055  0.4765
 8002TIP3    H145421   2.717   4.424  11.451  0.5019  0.4089  0.7439
 8002TIP3    H245422   2.641   4.481  11.568 -3.3990  0.9645 -1.8610
 8003TIP3   OH245423   0.402   3.452   0.936 -0.1573  0.8614  0.0233
 8003TIP3    H145424   0.451   3.525   0.899 -0.6238  1.5804  0.7837
 8003TIP3    H245425   0.458   3.417   1.005  1.2196 -1.2120 -2.0062
 8004TIP3   OH245426   0.328   0.728  14.290 -0.4249 -0.0146 -0.2719
 8004TIP3    H145427   0.390   0.744  14.361 -0.5791 -0.7034  0.0281
 8004TIP3    H245428   0.290   0.814  14.271 -1.1999  0.0071  1.2543
 8005TIP3   OH245429   1.811   5.683   5.103  0.4305 -0.0960 -0.1644
 8005TIP3    H145430   1.796   5.771   5.070 -1.7659 -0.6656 -0.8521
 8005TIP3    H245431   1.725   5.654   5.135  1.9404 -0.3958  4.1836
 8006TIP3   OH245432   3.612   1.890  13.630 -0.1042  0.6723 -0.7837
 8006TIP3    H145433   3.611   1.826  13.558  0.7737  1.2327 -1.3105
 8006TIP3    H245434   3.537   1.866  13.684 -0.2298 -0.3420 -1.3796
 8007TIP3   OH245435   0.006   1.630   1.078  0.6481 -0.6667 -0.1905
 8007TIP3    H145436   0.039   1.570   1.011 -0.4965 -1.1359 -0.3506
 8007TIP3    H245437  -0.046   1.575   1.137  0.8894 -0.1019  0.5701
 8008TIP3   OH245438   2.464   0.497  17.006  1.0348  0.1591 -0.0204
 8008TIP3    H145439   2.513   0.418  17.025  1.7811  0.6274  0.0689
 8008TIP3    H245440   2.410   0.474  16.930 -2.0002 -1.7238  2.4785
 8009TIP3   OH245441   2.754   0.145   0.939 -0.4767 -0.1968  0.6829
 8009TIP3    H145442   2.708   0.228   0.953 -1.4372 -0.2695 -1.6224
 8009TIP3    H245443   2.684   0.081   0.930  0.2114 -0.9378  0.5577
 8010TIP3   OH245444   4.028   6.597  13.363 -0.4120 -0.0568  0.0216
 8010TIP3    H145445   4.109   6.547  13.353 -1.0087 -1.6030  2.2362
 8010TIP3    H245446   3.980   6.582  13.282  1.1756  0.3269 -1.0415
 8011TIP3   OH245447   1.147   0.737   0.233  0.8044 -0.0006 -0.2870
 8011TIP3    H145448   1.127   0.668   0.170  2.3583 -0.2461 -0.5590
 8011TIP3    H245449   1.226   0.779   0.198 -0.5758  2.5419 -0.6014
 8012TIP3   OH245450   2.627   5.650  15.287 -0.0337 -0.4849  0.4819
 8012TIP3    H145451   2.673   5.662  15.204 -0.2922 -0.2707  0.3706
 8012TIP3    H245452   2.640   5.732  15.334 -0.8167 -0.2019  0.2026
 8013TIP3   OH245453   3.679   5.552  14.450  0.3055  0.8528  0.6587
 8013TIP3    H145454   3.618   5.484  14.475  1.1721  0.2684  1.2444
 8013TIP3    H245455   3.730   5.514  14.378  1.8588  0.2333  2.0187
 8014TIP3   OH245456   3.110   5.532   2.585 -0.5222  0.0139 -0.4240
 8014TIP3    H145457   3.112   5.467   2.515 -0.2846 -0.4667  0.0254
 8014TIP3    H245458   3.045   5.597   2.556 -1.4845 -0.9270 -0.4234
 8015TIP3   OH245459   0.261   6.114  15.292 -0.8966  0.6674  0.0681
 8015TIP3    H145460   0.306   6.173  15.232  1.1830 -0.1675  0.7299
 8015TIP3    H245461   0.245   6.035  15.242 -1.2935  0.8120 -0.0426
 8016TIP3   OH245462   2.248   4.053  12.747  0.0901  0.6554 -0.0664
 8016TIP3    H145463   2.233   4.126  12.687 -0.5446  1.6198  1.2115
 8016TIP3    H245464   2.342   4.037  12.744  0.1071  0.9070 -1.0512
 8017TIP3   OH245465   5.888   2.813  13.315  0.7724  0.2895 -0.3274
 8017TIP3    H145466   5.879   2.876  13.387  1.5223  0.1855 -0.1373
 8017TIP3    H245467   5.829   2.741  13.339  0.7866  0.3953  0.0274
 8018TIP3   OH245468   1.923   5.170   3.941  0.4245 -0.1417  0.1167
 8018TIP3    H145469   1.942   5.147   4.032 -1.1300 -2.7466 -0.1437
 8018TIP3    H245470   1.866   5.247   3.947  1.9287  0.9501  1.2194
 8019TIP3   OH245471   3.984   0.935  12.940  0.3395  0.0868  0.1030
 8019TIP3    H145472   3.949   0.982  13.016  1.5015  0.2701  0.5577
 8019TIP3    H245473   4.077   0.960  12.938  0.4721 -0.4513 -0.9778
 8020TIP3   OH245474   1.164   5.385   4.278  0.3963 -0.9261 -0.3422
 8020TIP3    H145475   1.176   5.439   4.200 -0.5273 -0.9987 -0.5466
 8020TIP3    H245476   1.073   5.355   4.272  0.5380 -1.5166  0.3920
 8021TIP3   OH245477   5.176   4.784   3.176 -0.0176  0.3488 -0.2600
 8021TIP3    H145478   5.097   4.838   3.173 -0.0602  0.3101  0.1264
 8021TIP3    H245479   5.224   4.817   3.252 -0.5972 -0.9281  0.6847
 8022TIP3   OH245480   2.107   1.287   5.369  0.0674  0.1005  0.1966
 8022TIP3    H145481   2.183   1.248   5.411 -0.0641 -0.4402 -0.0550
 8022TIP3    H245482   2.037   1.279   5.433  0.1988  0.5095  0.3911
 8023TIP3   OH245483   0.952   2.447   3.972 -0.0385  0.5989 -0.4285
 8023TIP3    H145484   1.013   2.389   3.927 -1.2438 -0.0679 -1.2562
 8023TIP3    H245485   1.007   2.518   4.007  1.4231 -0.7963  0.2523
 8024TIP3   OH245486   6.720   5.355   4.466 -1.1171 -0.1589 -0.1500
 8024TIP3    H145487   6.640   5.367   4.518 -1.6752  1.4125 -1.2710
 8024TIP3    H245488   6.752   5.444   4.451  0.1191 -0.6898 -0.8280
 8025TIP3   OH245489   3.129   0.542  10.746  0.8498  0.1759 -0.5797
 8025TIP3    H145490   3.103   0.621  10.792 -0.3735 -1.2353  1.3265
 8025TIP3    H245491   3.056   0.524  10.686  0.9968  0.3631 -0.8113
 8026TIP3   OH245492   4.924   6.776   4.811 -0.7241 -0.0289 -0.1938
 8026TIP3    H145493   4.925   6.870   4.790  0.4192  0.2950  1.1906
 8026TIP3    H245494   4.981   6.736   4.745  1.3055  0.7204  0.9974
 8027TIP3   OH245495   0.083   3.863  13.139  0.0468  0.3853 -0.0293
 8027TIP3    H145496   0.073   3.844  13.233 -0.6834  0.3958 -0.1022
 8027TIP3    H245497   0.112   3.780  13.101  1.0278  0.5577  0.3009
 8028TIP3   OH245498   1.356   4.825   4.546 -0.2953  0.5376  0.0274
 8028TIP3    H145499   1.303   4.768   4.603  0.7216  0.1268  0.5956
 8028TIP3    H245500   1.342   4.790   4.458  0.5676 -0.8216  0.4084
 8029TIP3   OH245501   5.916   3.552   5.963  0.5818  0.1706 -0.3824
 8029TIP3    H145502   5.847   3.568   5.898  0.2978  2.4016  0.3938
 8029TIP3    H245503   5.872   3.557   6.047  1.5088  0.5609  0.0910
 8030TIP3   OH245504   3.215   2.992  12.710  0.0482 -0.0535 -0.1723
 8030TIP3    H145505   3.176   3.006  12.624 -1.4332  0.8617  0.6100
 8030TIP3    H245506   3.146   2.951  12.762  0.1861  1.3066  1.1668
 8031TIP3   OH245507   3.228   1.585  12.067  0.3093 -0.5374  0.2103
 8031TIP3    H145508   3.202   1.584  11.975 -0.5174  0.3385  0.4147
 8031TIP3    H245509   3.175   1.517  12.108  2.0661 -2.2778 -0.2821
 8032TIP3   OH245510   6.046   3.966   1.806 -0.0666 -0.0577 -0.2319
 8032TIP3    H145511   6.074   3.932   1.722  2.4506  2.2634 -0.4831
 8032TIP3    H245512   6.079   3.903   1.870  1.9557  0.3600 -0.8077
 8033TIP3   OH245513   1.968   4.194  16.488 -0.6006 -0.3830 -0.3972
 8033TIP3    H145514   1.940   4.272  16.439 -0.4694  0.1794  0.4149
 8033TIP3    H245515   1.893   4.135  16.483 -0.4988 -0.4492 -1.4981
 8034TIP3   OH245516   2.826   1.627   2.501  0.0115  0.6473 -0.1851
 8034TIP3    H145517   2.762   1.698   2.495  0.8258  1.6227  1.8408
 8034TIP3    H245518   2.898   1.664   2.552  0.8327 -1.3875  0.2213
 8035TIP3   OH245519   0.884   1.792   5.383 -0.5241  0.2204  0.4400
 8035TIP3    H145520   0.815   1.726   5.386 -0.0506 -0.2593  1.0445
 8035TIP3    H245521   0.928   1.784   5.467 -0.9008  1.7948  0.8209
 8036TIP3   OH245522   2.424   0.255   1.875 -0.0620 -0.2697  0.2179
 8036TIP3    H145523   2.456   0.179   1.924  0.2804  0.6430  1.4894
 8036TIP3    H245524   2.331   0.238   1.863  0.1860 -1.3061 -0.3327
 8037TIP3   OH245525   5.667   3.249  14.334 -0.5274 -0.0204 -0.4031
 8037TIP3    H145526   5.720   3.329  14.324  0.7897 -0.8374 -0.2633
 8037TIP3    H245527   5.709   3.186  14.275  0.5511 -1.6139  1.9295
 8038TIP3   OH245528   3.147   5.273  14.783 -0.0544 -0.1973 -0.4487
 8038TIP3    H145529   3.070   5.239  14.829  0.4274 -0.0790  0.4865
 8038TIP3    H245530   3.133   5.368  14.779  0.4369 -0.0634  0.5387
 8039TIP3   OH245531   4.517   5.735   2.308  0.2753  0.4229 -0.1003
 8039TIP3    H145532   4.589   5.684   2.270  1.7109  2.6945 -0.6593
 8039TIP3    H245533   4.556   5.776   2.385 -0.7639  0.8401  0.2130
 8040TIP3   OH245534   0.533   0.482  11.924  0.1102 -0.5834  0.6952
 8040TIP3    H145535   0.573   0.515  11.844 -0.8519  0.7215  0.7277
 8040TIP3    H245536   0.448   0.448  11.896  0.9356 -2.8581  0.7101
 8041TIP3   OH245537   2.299   0.275   2.193 -0.1415  0.4117 -0.1811
 8041TIP3    H145538   2.374   0.262   2.135 -0.4066  2.0363 -0.9251
 8041TIP3    H245539   2.244   0.197   2.179  0.2389  0.3608 -1.4439
 8042TIP3   OH245540   1.095   2.218  13.497  0.1345 -0.5615 -0.3259
 8042TIP3    H145541   1.014   2.239  13.450  0.3665  0.1986 -0.3994
 8042TIP3    H245542   1.095   2.276  13.572  0.0353 -1.3968  0.3415
 8043TIP3   OH245543   2.120   2.721   1.762 -0.0506  0.5734  0.2713
 8043TIP3    H145544   2.177   2.706   1.838 -1.7027  1.8409  1.8632
 8043TIP3    H245545   2.166   2.786   1.710  0.8651  0.1001  0.4725
 8044TIP3   OH245546   2.324   5.156   4.171 -0.5984  0.0729  0.5826
 8044TIP3    H145547   2.392   5.221   4.155  1.8859 -2.5052 -0.1079
 8044TIP3    H245548   2.345   5.120   4.257  0.3267 -2.2396 -0.5356
 8045TIP3   OH245549   3.296   5.068   3.751  0.0401 -0.3807  0.4154
 8045TIP3    H145550   3.382   5.088   3.712 -0.7537  0.1221 -1.1675
 8045TIP3    H245551   3.270   5.151   3.792 -1.0810  0.5356 -1.9367
 8046TIP3   OH245552   5.874   6.183  16.286  0.2721  0.1339 -0.3601
 8046TIP3    H145553   5.937   6.144  16.347  1.0228  0.8975 -0.6217
 8046TIP3    H245554   5.861   6.116  16.219 -0.5056 -0.6849  0.5744
 8047TIP3   OH245555   5.463   4.181   6.042 -0.4295  0.0914  0.0754
 8047TIP3    H145556   5.551   4.190   6.079 -0.2014  0.8805 -0.6303
 8047TIP3    H245557   5.407   4.230   6.102 -0.3565 -0.2340  0.4116
 8048TIP3   OH245558   1.791   4.195  12.267  0.0515 -0.0839 -0.3443
 8048TIP3    H145559   1.756   4.106  12.262  0.8287 -0.3256 -1.9573
 8048TIP3    H245560   1.883   4.184  12.291  0.2964  0.2282 -1.0994
 8049TIP3   OH245561   1.291   6.425  16.708 -0.0524  0.1303  0.0995
 8049TIP3    H145562   1.378   6.460  16.728  0.1621 -0.4571  0.2021
 8049TIP3    H245563   1.232   6.498  16.728  0.1702 -0.2684  2.5531
 8050TIP3   OH245564   2.720   2.230   0.020 -0.0815 -0.1168  0.2890
 8050TIP3    H145565   2.808   2.218   0.054  2.1898  2.7977 -3.7017
 8050TIP3    H245566   2.697   2.146  -0.020  0.7780 -0.9410  1.4854
 8051TIP3   OH245567   0.528   2.998   1.960 -0.0342  0.3034  0.1380
 8051TIP3    H145568   0.607   3.052   1.961  0.5168 -0.4217 -1.4871
 8051TIP3    H245569   0.553   2.920   2.010  0.7093 -0.4580 -1.3702
 8052TIP3   OH245570   0.778   5.802  12.141  0.0043  0.7598  0.8745
 8052TIP3    H145571   0.767   5.822  12.233  0.4767  1.0759  0.8696
 8052TIP3    H245572   0.859   5.751  12.137 -1.2051 -1.2696  0.8973
 8053TIP3   OH245573   2.969   1.816  11.697 -0.0703  0.1607  0.6739
 8053TIP3    H145574   2.887   1.770  11.717 -0.8467  0.9851 -0.4727
 8053TIP3    H245575   2.985   1.871  11.773 -0.3533 -0.3072  1.0788
 8054TIP3   OH245576   2.209   1.743   4.573  0.1731  0.5954 -0.3249
 8054TIP3    H145577   2.231   1.710   4.660  2.8260 -1.7319 -1.7161
 8054TIP3    H245578   2.268   1.817   4.559  2.8331 -1.6068 -1.5818
 8055TIP3   OH245579   6.423   5.068  12.790  0.1101  0.0485  0.4536
 8055TIP3    H145580   6.388   4.984  12.759  0.0239 -0.3054  1.4769
 8055TIP3    H245581   6.452   5.112  12.710 -0.2273 -0.7739 -0.1463
 8056TIP3   OH245582   4.175   1.518   3.398 -0.3936 -0.6264  0.2880
 8056TIP3    H145583   4.231   1.483   3.468 -1.7123  1.2240  2.4193
 8056TIP3    H245584   4.173   1.612   3.414  1.5124  0.3772 -4.0595
 8057TIP3   OH245585   2.702   0.944   5.094 -0.9302 -0.1929 -0.2034
 8057TIP3    H145586   2.767   0.885   5.056 -0.9056  0.2066 -0.7821
 8057TIP3    H245587   2.618   0.908   5.068 -0.9557 -0.7187  0.5583
 8058TIP3   OH245588   0.748   6.320   1.151  0.2506  0.3284 -0.3250
 8058TIP3    H145589   0.749   6.277   1.065  0.9075  1.0454 -0.6843
 8058TIP3    H245590   0.663   6.364   1.155 -0.6142 -1.3103  0.2192
 8059TIP3   OH245591   2.900   4.050   2.571 -0.5795 -0.5498 -0.3303
 8059TIP3    H145592   2.930   4.054   2.480 -0.0572 -0.7658 -0.1688
 8059TIP3    H245593   2.935   4.129   2.612  2.3771 -2.2184  0.6288
 8060TIP3   OH245594   1.944   4.234  13.862  0.6944  0.0717 -0.3806
 8060TIP3    H145595   1.951   4.275  13.949 -0.7932  1.0242 -0.6688
 8060TIP3    H245596   1.884   4.291  13.814  0.0649 -1.4325 -1.4503
 8061TIP3   OH245597   5.096   5.156   3.718 -0.3943  0.2483  0.2167
 8061TIP3    H145598   5.108   5.244   3.752 -1.7724  0.9127 -0.9268
 8061TIP3    H245599   5.039   5.167   3.642 -1.8803 -1.7777  0.9392
 8062TIP3   OH245600   6.320   3.416  12.957 -0.1155 -0.0058  0.7442
 8062TIP3    H145601   6.399   3.382  12.916 -1.1690 -2.2945  0.4992
 8062TIP3    H245602   6.282   3.342  13.003 -0.9235  1.6020  2.8416
 8063TIP3   OH245603   2.272   5.908   1.646 -0.0260 -0.5631 -0.0887
 8063TIP3    H145604   2.341   5.861   1.693 -1.0283 -1.8293  0.1845
 8063TIP3    H245605   2.194   5.894   1.699 -0.8175 -0.5215 -1.2080
 8064TIP3   OH245606   1.210   4.602   5.077  0.0998 -0.2779  0.0940
 8064TIP3    H145607   1.249   4.536   5.018  0.0392  0.2939 -0.5982
 8064TIP3    H245608   1.179   4.551   5.152  0.9096 -0.9256  0.0100
 8065TIP3   OH245609   4.677   3.442   4.560 -0.0375 -0.6311 -0.1891
 8065TIP3    H145610   4.656   3.525   4.604  0.9540 -0.7108  0.4581
 8065TIP3    H245611   4.737   3.397   4.620 -0.4988 -1.7913 -0.5612
 8066TIP3   OH245612   4.186   4.943   2.256  0.3410 -0.5240 -0.5161
 8066TIP3    H145613   4.107   4.989   2.282  0.2259 -0.2027 -1.4055
 8066TIP3    H245614   4.155   4.858   2.224  0.4963 -0.9848  0.5133
 8067TIP3   OH245615   0.115   2.794   6.088 -0.0471  0.1601  0.2419
 8067TIP3    H145616   0.031   2.749   6.094  0.3816 -0.5596  1.0976
 8067TIP3    H245617   0.163   2.746   6.020 -1.0388  1.8135 -1.7043
 8068TIP3   OH245618   1.085   1.639   2.503 -0.2233  0.1507 -0.3178
 8068TIP3    H145619   1.139   1.652   2.581 -0.1715 -0.8530 -0.1739
 8068TIP3    H245620   1.091   1.722   2.456  0.4821  0.4597  0.2919
 8069TIP3   OH245621   0.280   0.407   3.693  0.4548  0.1429  0.2173
 8069TIP3    H145622   0.313   0.472   3.755  0.4965 -0.8152  1.2341
 8069TIP3    H245623   0.353   0.346   3.680  0.8908  1.0100 -1.7989
 8070TIP3   OH245624   2.412   1.382   1.833 -0.1520 -0.2984  0.6520
 8070TIP3    H145625   2.424   1.304   1.778  1.7474 -0.1271  0.7612
 8070TIP3    H245626   2.372   1.446   1.774  0.5506 -0.5802 -0.1597
 8071TIP3   OH245627   6.286   3.416  15.037  0.2181 -0.5806  0.0749
 8071TIP3    H145628   6.295   3.360  14.960  2.9536 -0.6156  0.3261
 8071TIP3    H245629   6.304   3.358  15.111  0.9666  0.1782  0.4926
 8072TIP3   OH245630   4.844   1.666  10.867  0.2926 -0.3559  0.3051
 8072TIP3    H145631   4.881   1.580  10.887  1.1480 -0.0113  0.2639
 8072TIP3    H245632   4.814   1.660  10.777  1.7413 -0.1708 -0.2211
 8073TIP3   OH245633   3.081   0.209   2.418 -0.2230 -0.2569 -0.1259
 8073TIP3    H145634   3.025   0.158   2.476 -0.7000  0.3515 -0.0441
 8073TIP3    H245635   3.101   0.288   2.468 -0.0173 -0.0678 -0.5029
 8074TIP3   OH245636   3.460   6.451  15.502  0.0493 -0.0015  0.2054
 8074TIP3    H145637   3.412   6.421  15.579  0.1343 -0.9513 -0.1034
 8074TIP3    H245638   3.551   6.428  15.519 -0.0131 -0.7779 -0.4261
 8075TIP3   OH245639   0.454   6.558  17.159 -0.0658  0.5554 -0.3403
 8075TIP3    H145640   0.475   6.608  17.238 -0.2112  0.3481 -0.1666
 8075TIP3    H245641   0.509   6.596  17.091  1.7032 -0.6611  0.3207
 8076TIP3   OH245642   4.436   4.345  17.033  0.9490 -0.1638 -0.3336
 8076TIP3    H145643   4.444   4.352  16.938 -0.1939  0.8980 -0.3841
 8076TIP3    H245644   4.395   4.427  17.059  1.1306 -0.5008  1.0698
 8077TIP3   OH245645   3.252   0.222  12.491  0.1799 -0.3227  0.3552
 8077TIP3    H145646   3.324   0.237  12.553  2.3341 -2.5137 -1.4427
 8077TIP3    H245647   3.295   0.204  12.408 -2.5864  1.0315 -1.5239
 8078TIP3   OH245648   2.925   6.218  14.512  0.2967 -0.1831 -0.1079
 8078TIP3    H145649   2.953   6.291  14.568  0.2789 -0.0655 -0.2532
 8078TIP3    H245650   2.861   6.171  14.565 -1.1073  0.9777 -0.7120
 8079TIP3   OH245651   4.529   1.883   5.283 -0.0375 -0.3926  0.0422
 8079TIP3    H145652   4.559   1.792   5.281 -1.4299 -1.0476  2.7983
 8079TIP3    H245653   4.465   1.889   5.212  2.0797 -0.6724 -1.9975
 8080TIP3   OH245654   0.685   3.416  16.558  0.1788  0.4527  0.1076
 8080TIP3    H145655   0.664   3.459  16.641  1.6970  0.2308  0.6202
 8080TIP3    H245656   0.634   3.465  16.493 -1.9165 -0.0761  1.2644
 8081TIP3   OH245657   3.610   2.101  14.364 -0.0263  0.8453  0.2938
 8081TIP3    H145658   3.656   2.127  14.444 -1.3172 -1.6436  1.9747
 8081TIP3    H245659   3.523   2.140  14.373 -0.6594 -0.6541  0.8743
 8082TIP3   OH245660   5.895   3.084   0.808 -0.2835 -0.3785 -0.1592
 8082TIP3    H145661   5.903   3.177   0.787  1.1563 -0.1554  1.1445
 8082TIP3    H245662   5.899   3.040   0.724 -1.9100  0.7629 -0.8790
 8083TIP3   OH245663   5.649   1.098  14.934 -0.1414  0.3081 -0.2876
 8083TIP3    H145664   5.563   1.140  14.936 -1.0241 -1.1907 -2.7076
 8083TIP3    H245665   5.630   1.005  14.945  1.4552  0.1479  1.5928
 8084TIP3   OH245666   3.647   1.444  13.486 -0.0072 -0.5708 -0.2313
 8084TIP3    H145667   3.586   1.410  13.551 -0.6810 -0.4080 -0.7783
 8084TIP3    H245668   3.733   1.430  13.525 -0.4408  0.4951  1.1540
 8085TIP3   OH245669   6.535   1.990  15.729 -0.3948 -0.2712  0.0090
 8085TIP3    H145670   6.445   2.008  15.755 -0.8881 -2.7511  0.2835
 8085TIP3    H245671   6.533   1.989  15.633 -0.4327  0.6164 -0.0035
 8086TIP3   OH245672   2.781   4.806  14.723 -0.5008 -0.3906  0.4037
 8086TIP3    H145673   2.771   4.891  14.767 -2.6142  0.4978 -1.5880
 8086TIP3    H245674   2.691   4.781  14.700  0.2347 -2.4345 -0.4307
 8087TIP3   OH245675   5.338   2.798  12.244 -0.3630  0.1652  0.0325
 8087TIP3    H145676   5.274   2.868  12.233 -0.3375  0.4300  1.3659
 8087TIP3    H245677   5.418   2.842  12.273 -0.5278 -0.4315  1.5006
 8088TIP3   OH245678   4.587   4.868   3.391  0.1965 -0.5004  0.1145
 8088TIP3    H145679   4.658   4.804   3.389  1.4805  0.6927  2.8225
 8088TIP3    H245680   4.509   4.817   3.410  0.4346 -1.6897 -1.8179
 8089TIP3   OH245681   0.325   3.992  10.631  0.5066  0.3262  0.6451
 8089TIP3    H145682   0.315   3.897  10.634 -0.9010  0.3412 -1.2696
 8089TIP3    H245683   0.250   4.026  10.681  0.1016  0.3971  0.0122
 8090TIP3   OH245684   4.230   3.706   5.564  0.1402 -0.0457 -0.1381
 8090TIP3    H145685   4.145   3.749   5.552  0.4844  0.2759 -1.6335
 8090TIP3    H245686   4.226   3.630   5.505 -0.0915 -1.5498  1.7329
 8091TIP3   OH245687   2.936   5.305   5.714 -0.5249 -0.9832 -0.4713
 8091TIP3    H145688   2.859   5.337   5.668 -0.0168  1.9488  0.5089
 8091TIP3    H245689   2.902   5.273   5.798 -0.7937 -0.8491 -0.5281
 8092TIP3   OH245690   2.917   6.122   5.196  0.0229  0.3346  0.0244
 8092TIP3    H145691   2.849   6.182   5.225  0.6501  0.1713  1.9593
 8092TIP3    H245692   2.873   6.064   5.133 -1.6324  0.2281  1.2178
 8093TIP3   OH245693   6.506   6.262  11.986 -0.7754 -0.0953 -0.2243
 8093TIP3    H145694   6.493   6.319  12.062 -2.8958 -0.2057 -0.4380
 8093TIP3    H245695   6.449   6.299  11.918  0.7642 -0.2355 -1.6573
 8094TIP3   OH245696   2.220   0.693  15.606 -0.5482 -0.1868  0.0089
 8094TIP3    H145697   2.205   0.781  15.640  1.7212  0.1753  0.2568
 8094TIP3    H245698   2.198   0.635  15.679  0.1679  0.3266  0.6458
 8095TIP3   OH245699   4.830   1.343   5.253  0.5338  0.3547 -0.5691
 8095TIP3    H145700   4.890   1.417   5.258  1.8236 -0.4932 -2.5911
 8095TIP3    H245701   4.883   1.267   5.275 -0.4229 -0.1695  0.0228
 8096TIP3   OH245702   6.554   1.933   2.380  0.0168  0.0472  0.2570
 8096TIP3    H145703   6.485   1.935   2.314 -0.1891  1.8955  0.4654
 8096TIP3    H245704   6.597   1.849   2.368 -0.1490  0.2356 -2.1128
 8097TIP3   OH245705   3.934   0.645   0.047  0.9307  0.0681  0.0762
 8097TIP3    H145706   3.903   0.685   0.128 -0.3330  1.0697 -0.8398
 8097TIP3    H245707   4.015   0.691   0.026  0.4875  0.8453  0.0293
 8098TIP3   OH245708   1.435   6.527   1.905  0.3579  0.4033 -0.0180
 8098TIP3    H145709   1.408   6.492   1.820 -0.7458  0.0351  0.4738
 8098TIP3    H245710   1.484   6.456   1.946 -0.2657  0.1086  0.2097
 8099TIP3   OH245711   3.153   5.828  14.731  0.2782 -0.1130  0.3917
 8099TIP3    H145712   3.230   5.793  14.774 -0.0222 -0.0973  0.9481
 8099TIP3    H245713   3.121   5.897  14.789  0.7538  0.9764 -0.5911
 8100TIP3   OH245714   6.495   1.648  14.151 -0.4057 -0.0877 -0.1799
 8100TIP3    H145715   6.423   1.594  14.184 -1.1573  1.2350  0.4370
 8100TIP3    H245716   6.464   1.681  14.067  0.2811 -1.0332 -0.8245
 8101TIP3   OH245717   4.888   3.928   4.846  0.1114  0.1534 -0.0418
 8101TIP3    H145718   4.886   3.868   4.771  1.2710 -0.4795  0.4023
 8101TIP3    H245719   4.803   3.919   4.887 -0.1414 -0.3131 -0.6564
 8102TIP3   OH245720   0.603   4.689  15.642 -0.3818 -0.5147 -0.4862
 8102TIP3    H145721   0.550   4.622  15.687 -2.1870  0.6597 -0.7593
 8102TIP3    H245722   0.617   4.652  15.555  0.4255 -1.4300  0.0165
 8103TIP3   OH245723   2.442   4.755   5.494 -1.0486 -0.3061 -0.4174
 8103TIP3    H145724   2.382   4.683   5.475 -2.7406  1.4058 -2.1090
 8103TIP3    H245725   2.507   4.751   5.423 -1.8454  0.5010 -1.2139
 8104TIP3   OH245726   5.073   1.063   1.726  0.5133 -0.3956 -0.0227
 8104TIP3    H145727   5.021   1.079   1.805  1.0017  0.7838  0.0798
 8104TIP3    H245728   5.077   1.147   1.682 -1.2966 -1.3940 -2.3175
 8105TIP3   OH245729   0.800   6.268  14.503 -0.0646 -0.2078 -0.3717
 8105TIP3    H145730   0.764   6.193  14.550 -2.2206  0.2037 -1.2519
 8105TIP3    H245731   0.839   6.231  14.424 -3.1471 -0.3047 -1.9663
 8106TIP3   OH245732   1.967   1.196  16.611  0.0779 -0.3845 -0.2944
 8106TIP3    H145733   2.024   1.273  16.614  0.4851 -0.6088 -1.6148
 8106TIP3    H245734   2.000   1.145  16.537 -0.9071 -1.2656 -0.1448
 8107TIP3   OH245735   4.207   0.169  15.236  0.6300  0.1309 -0.4523
 8107TIP3    H145736   4.255   0.088  15.218  0.4869 -0.2572  0.8036
 8107TIP3    H245737   4.250   0.206  15.313 -1.8637 -0.9794  1.6491
 8108TIP3   OH245738   0.391   1.687  13.615 -0.1981  0.2815  0.0313
 8108TIP3    H145739   0.445   1.649  13.545 -0.0419  0.8609 -0.1692
 8108TIP3    H245740   0.440   1.670  13.695 -0.2117 -0.0869 -0.0365
 8109TIP3   OH245741   3.021   6.088   3.231 -0.5805 -0.3035  0.1399
 8109TIP3    H145742   3.073   6.025   3.281  0.3676  0.2713 -0.0958
 8109TIP3    H245743   3.003   6.044   3.148 -0.2722 -0.4311  0.1384
 8110TIP3   OH245744   5.299   4.791   3.458 -0.1637 -0.1748  0.4186
 8110TIP3    H145745   5.221   4.847   3.457 -0.2696 -0.3025 -0.8052
 8110TIP3    H245746   5.267   4.706   3.490 -0.5807 -0.2736 -0.2273
 8111TIP3   OH245747   0.999   2.782  16.311  0.2061 -0.2502  0.4912
 8111TIP3    H145748   1.073   2.821  16.357  0.1100  1.1361 -0.4538
 8111TIP3    H245749   1.004   2.818  16.223 -2.4510  1.1415  0.8093
 8112TIP3   OH245750   2.095   5.570  15.994  0.0600  0.8228 -0.4331
 8112TIP3    H145751   2.092   5.586  16.088  0.5374 -0.8457 -0.0997
 8112TIP3    H245752   2.004   5.554  15.969  0.0156  0.5699 -0.1154
 8113TIP3   OH245753   1.835   4.309   6.410 -0.3601 -0.2688 -0.0330
 8113TIP3    H145754   1.900   4.242   6.390 -0.0809 -0.4272  1.3740
 8113TIP3    H245755   1.755   4.260   6.430 -0.2789 -0.1612  0.5494
 8114TIP3   OH245756   1.556   3.133   2.880  0.5144 -0.0502 -0.3444
 8114TIP3    H145757   1.613   3.075   2.931 -0.7164 -0.4863  0.5678
 8114TIP3    H245758   1.470   3.123   2.919  0.2525  2.4968 -0.1050
 8115TIP3   OH245759   6.226   0.551   2.305  0.3789 -0.0701 -0.2151
 8115TIP3    H145760   6.318   0.571   2.324  0.7458 -2.1793  0.5720
 8115TIP3    H245761   6.217   0.564   2.211  2.2977 -2.4002 -0.8473
 8116TIP3   OH245762   1.454   1.516   6.202  0.0820 -0.4733  0.1258
 8116TIP3    H145763   1.479   1.527   6.110 -0.4775 -0.9304 -0.0840
 8116TIP3    H245764   1.535   1.489   6.245  0.2925 -0.4903 -0.2769
 8117TIP3   OH245765   2.223   6.604   0.976 -0.5201  0.5627 -0.2799
 8117TIP3    H145766   2.304   6.655   0.971  0.4127 -0.7981  0.3161
 8117TIP3    H245767   2.199   6.607   1.068 -1.2687  1.1003 -0.4811
 8118TIP3   OH245768   3.682   2.023   1.129 -0.0971 -0.4126 -0.3309
 8118TIP3    H145769   3.688   1.928   1.123  0.5020 -0.3773 -0.3228
 8118TIP3    H245770   3.752   2.048   1.189 -0.4290  0.0101 -0.1171
 8119TIP3   OH245771   1.575   3.842   0.658  0.4279  0.0981  0.3617
 8119TIP3    H145772   1.509   3.774   0.644  2.3425 -1.6698 -0.5010
 8119TIP3    H245773   1.577   3.855   0.753 -0.4213 -0.5562  0.4768
 8120TIP3   OH245774   2.961   2.332  12.761 -0.4199  0.0813 -0.4912
 8120TIP3    H145775   3.011   2.392  12.706 -0.2872  0.4233 -0.0062
 8120TIP3    H245776   2.946   2.255  12.706 -1.3146  0.8866 -1.3918
 8121TIP3   OH245777   6.054   2.291   6.114  0.0539  0.0290 -0.2918
 8121TIP3    H145778   6.047   2.379   6.151 -1.2188  0.3473 -1.2205
 8121TIP3    H245779   6.111   2.303   6.037  0.4913 -0.1191  0.0016
 8122TIP3   OH245780   6.684   0.427   5.095  0.1072 -0.5097 -0.2436
 8122TIP3    H145781   6.655   0.439   5.004  1.5479  0.0195 -0.6674
 8122TIP3    H245782   6.640   0.347   5.124 -1.3526 -0.0074 -0.9845
 8123TIP3   OH245783   1.336   2.232  12.590  0.0386  1.0212 -0.3861
 8123TIP3    H145784   1.367   2.288  12.518  1.7158  1.4486  0.6135
 8123TIP3    H245785   1.313   2.294  12.660 -1.3700  0.5962 -0.4396
 8124TIP3   OH245786   4.084   4.177  14.136 -0.2704  0.5746  0.5746
 8124TIP3    H145787   4.092   4.270  14.159  1.5361  0.2514  1.3822
 8124TIP3    H245788   4.084   4.176  14.041  1.0348  1.3294  0.5473
 8125TIP3   OH245789   0.714   4.598  11.294  0.1600 -0.3357  0.1845
 8125TIP3    H145790   0.741   4.607  11.202 -0.6014  0.0853 -0.0070
 8125TIP3    H245791   0.657   4.673  11.309  2.3592  1.1387  1.7879
 8126TIP3   OH245792   6.534   4.729   4.634 -0.1054  0.3061 -0.3513
 8126TIP3    H145793   6.531   4.821   4.608 -2.1620 -0.0811 -1.8026
 8126TIP3    H245794   6.469   4.722   4.704 -1.1825 -0.2864 -1.3663
 8127TIP3   OH245795   4.981   6.696   0.489 -0.4974  0.8972  0.0193
 8127TIP3    H145796   4.985   6.750   0.567  1.3007 -0.7692  1.1809
 8127TIP3    H245797   4.952   6.610   0.521 -1.0583  0.5394 -1.3779
 8128TIP3   OH245798   1.537   5.272   0.554 -0.1504 -0.4882  0.1048
 8128TIP3    H145799   1.615   5.304   0.509 -0.9722 -1.0859 -1.8483
 8128TIP3    H245800   1.484   5.351   0.568  0.5714 -0.1530  0.9849
 8129TIP3   OH245801   3.699   6.214  12.678  0.3574 -0.2197  0.1646
 8129TIP3    H145802   3.605   6.212  12.658  0.4170 -0.1769 -0.1187
 8129TIP3    H245803   3.710   6.150  12.748 -0.1074  0.7463  1.1415
 8130TIP3   OH245804   4.515   4.513  13.823 -0.2199  0.0547  0.0140
 8130TIP3    H145805   4.448   4.470  13.769  0.0580 -1.0082  0.4730
 8130TIP3    H245806   4.598   4.477  13.791  0.1914  1.6645 -0.8176
 8131TIP3   OH245807   1.027   3.377  15.344  0.0530  0.2295  0.4049
 8131TIP3    H145808   1.073   3.444  15.396 -0.8954  1.4157 -0.2227
 8131TIP3    H245809   1.078   3.369  15.264 -0.2913  0.8522  0.1143
 8132TIP3   OH245810   5.575   5.547   5.530  0.0461 -0.2712  0.6481
 8132TIP3    H145811   5.543   5.527   5.617  0.6444  1.8438  1.4078
 8132TIP3    H245812   5.668   5.566   5.542 -0.2265  1.8034 -0.0899
 8133TIP3   OH245813   2.145   1.794  15.365 -0.2962 -0.1592  0.1319
 8133TIP3    H145814   2.169   1.703  15.383  1.8518  0.3172 -0.0336
 8133TIP3    H245815   2.084   1.789  15.292  0.0218 -1.4583 -0.0648
 8134TIP3   OH245816   4.892   1.823  16.494  0.0557  0.2811 -0.2435
 8134TIP3    H145817   4.875   1.778  16.577  0.9166  2.4851  1.2224
 8134TIP3    H245818   4.982   1.799  16.472 -0.8537 -2.0547 -1.8006
 8135TIP3   OH245819   0.627   2.355  15.046 -0.6826 -0.2621 -0.1573
 8135TIP3    H145820   0.630   2.403  14.963  0.2786  1.1179  0.6319
 8135TIP3    H245821   0.555   2.292  15.035 -1.5896  0.9352 -1.4768
 8136TIP3   OH245822   0.896   4.160  16.746  0.4530 -0.4440  0.6985
 8136TIP3    H145823   0.934   4.194  16.665 -1.2592  0.5460  0.2398
 8136TIP3    H245824   0.932   4.073  16.756 -1.5677 -1.8904 -2.8501
 8137TIP3   OH245825   6.434   0.345  16.881  0.2046  0.2215 -0.2195
 8137TIP3    H145826   6.390   0.273  16.926  0.8787 -0.6195 -0.8650
 8137TIP3    H245827   6.382   0.358  16.801 -1.0687  1.8002  0.8214
 8138TIP3   OH245828   1.377   4.063   0.753  0.3894  0.0426  0.1959
 8138TIP3    H145829   1.354   4.028   0.667  0.6471 -0.1645  0.2092
 8138TIP3    H245830   1.433   4.138   0.734  1.3251 -0.6415  0.1978
 8139TIP3   OH245831   3.643   1.675  10.568 -0.3867  0.4691 -0.2763
 8139TIP3    H145832   3.643   1.604  10.504  3.0217 -0.8898  1.0189
 8139TIP3    H245833   3.676   1.751  10.520 -0.2818  0.1439 -0.7264
 8140TIP3   OH245834   1.073   4.072   1.331 -0.4040  0.4789  0.0388
 8140TIP3    H145835   1.065   4.140   1.398 -0.2058  0.3666  0.1792
 8140TIP3    H245836   1.166   4.050   1.331 -0.3645  0.6265 -0.4217
 8141TIP3   OH245837   3.243   4.830  16.002  0.2331 -0.4405 -0.2297
 8141TIP3    H145838   3.266   4.919  16.031 -1.0310  0.0256 -0.5785
 8141TIP3    H245839   3.250   4.834  15.907  0.2329 -0.7321 -0.2402
 8142TIP3   OH245840   3.594   3.549   2.216 -0.3146 -0.4440 -0.2888
 8142TIP3    H145841   3.679   3.528   2.177 -0.6919 -1.1213 -0.7589
 8142TIP3    H245842   3.611   3.626   2.271  0.7648 -1.0164  0.2091
 8143TIP3   OH245843   2.836   4.494  16.451 -0.4786  0.2121  0.0996
 8143TIP3    H145844   2.896   4.451  16.391 -1.3642 -0.1581 -0.5395
 8143TIP3    H245845   2.781   4.549  16.395 -2.0430 -0.9769  0.3872
 8144TIP3   OH245846   0.064   1.526   2.077 -0.0094  0.3032  0.2234
 8144TIP3    H145847   0.141   1.492   2.031  0.0101  1.5118 -0.6624
 8144TIP3    H245848   0.083   1.511   2.170  0.0045 -2.0627 -0.0853
 8145TIP3   OH245849   1.316   1.009  12.920  0.3794  0.6819  0.2890
 8145TIP3    H145850   1.357   1.045  12.842  1.1047  0.1655  0.4203
 8145TIP3    H245851   1.313   0.915  12.904  0.4398  0.5849  0.8351
 8146TIP3   OH245852   1.862   0.917   1.661  0.3078  0.1334 -0.3549
 8146TIP3    H145853   1.839   0.926   1.569 -1.4303  2.7141  0.2146
 8146TIP3    H245854   1.934   0.978   1.674 -0.1411  0.5606  0.1827
 8147TIP3   OH245855   5.327   4.727   1.049  0.8950 -0.0871 -0.5131
 8147TIP3    H145856   5.300   4.728   1.141  0.7945 -0.6390 -0.5296
 8147TIP3    H245857   5.315   4.636   1.022 -0.9656  0.4315 -1.6323
 8148TIP3   OH245858   6.509   4.614  12.804 -0.2246  0.0042  0.1486
 8148TIP3    H145859   6.568   4.553  12.849  2.9717  1.7447 -1.3054
 8148TIP3    H245860   6.471   4.564  12.732 -2.0063 -1.6105  2.0719
 8149TIP3   OH245861   2.852   1.397   6.151  0.1938  0.0368  0.3900
 8149TIP3    H145862   2.939   1.363   6.130 -0.9092 -1.4322 -2.3623
 8149TIP3    H245863   2.803   1.321   6.182 -0.7652  0.2863 -0.4487
 8150TIP3   OH245864   1.784   5.955   3.105 -0.0323 -0.0668  0.7875
 8150TIP3    H145865   1.816   6.023   3.045  1.1341 -0.8227  0.5220
 8150TIP3    H245866   1.826   5.975   3.188 -0.6024  0.2008  1.0163
 8151TIP3   OH245867   2.030   5.656   3.390  0.2532 -0.2183  0.1550
 8151TIP3    H145868   2.095   5.604   3.438  0.3391  0.0122  0.2925
 8151TIP3    H245869   2.035   5.743   3.431  1.3464  0.3996 -1.2054
 8152TIP3   OH245870   4.518   0.786  13.486 -0.5439  0.4956  0.2333
 8152TIP3    H145871   4.479   0.712  13.439 -0.7990  1.6294 -1.4306
 8152TIP3    H245872   4.571   0.746  13.554 -0.4058 -1.2426 -0.8423
 8153TIP3   OH245873   3.674   4.795  17.145 -0.2144 -0.3325  0.1618
 8153TIP3    H145874   3.618   4.870  17.163 -0.6237 -0.5618 -0.1426
 8153TIP3    H245875   3.762   4.832  17.134 -0.5200  0.1800 -0.6326
 8154TIP3   OH245876   5.426   4.959   2.888 -0.5614 -0.0584 -0.2218
 8154TIP3    H145877   5.517   4.989   2.883 -0.3165 -0.4785  1.3157
 8154TIP3    H245878   5.432   4.864   2.894 -0.8051  0.0343  3.9236
 8155TIP3   OH245879   3.851   5.007   0.264  0.0796  0.1915  0.0889
 8155TIP3    H145880   3.839   5.023   0.170 -2.0635 -0.4206  0.2040
 8155TIP3    H245881   3.769   5.037   0.304  0.5795 -0.4297  1.6447
 8156TIP3   OH245882   5.019   4.522   0.872  0.0617  0.2458 -0.4582
 8156TIP3    H145883   4.981   4.434   0.866 -0.5723  0.2813  2.1278
 8156TIP3    H245884   4.951   4.579   0.836 -1.7201  0.1180  2.4535
 8157TIP3   OH245885   2.131   5.905  13.635 -0.1227  0.1368 -0.0416
 8157TIP3    H145886   2.130   5.996  13.607 -0.4924  0.0155 -0.4430
 8157TIP3    H245887   2.055   5.866  13.592  1.8610 -1.1797 -2.6752
 8158TIP3   OH245888   1.553   5.620   5.203 -0.1668 -0.1464  0.1914
 8158TIP3    H145889   1.537   5.560   5.130  0.3855  1.0714 -0.9722
 8158TIP3    H245890   1.483   5.685   5.197 -0.1309 -0.0476  0.7676
 8159TIP3   OH245891   0.958   4.790   0.087 -0.4322 -0.1813 -0.3910
 8159TIP3    H145892   1.002   4.835   0.015 -0.8019 -0.6814 -0.9391
 8159TIP3    H245893   0.866   4.789   0.063 -1.0572  2.2860  1.5218
 8160TIP3   OH245894   6.429   4.860  11.952 -0.4993  0.1461  0.0854
 8160TIP3    H145895   6.377   4.904  11.885 -0.2834  0.4624  0.1168
 8160TIP3    H245896   6.465   4.783  11.909 -0.0240  0.5717 -0.2896
 8161TIP3   OH245897   1.891   1.300  12.513 -0.0984 -0.6288  0.3151
 8161TIP3    H145898   1.812   1.350  12.491  0.0634  0.0507  1.2300
 8161TIP3    H245899   1.937   1.354  12.576  1.5583 -0.6182 -0.8521
 8162TIP3   OH245900   0.357   1.491   2.493  0.0634 -0.0489  0.1697
 8162TIP3    H145901   0.400   1.521   2.574  2.2583 -2.9086  0.2266
 8162TIP3    H245902   0.423   1.438   2.449 -1.8917 -0.6231 -2.2997
 8163TIP3   OH245903   3.018   0.958  16.837  0.6564  0.4660  0.2944
 8163TIP3    H145904   3.064   0.934  16.917 -0.1230 -0.8596  0.3794
 8163TIP3    H245905   2.925   0.946  16.858  0.4449  0.0610 -0.7933
 8164TIP3   OH245906   6.092   5.295  12.255  0.0333  0.0383  0.7233
 8164TIP3    H145907   6.004   5.288  12.293  0.3326  0.7507  1.5665
 8164TIP3    H245908   6.150   5.305  12.331  0.9893 -1.6484  0.2657
 8165TIP3   OH245909   0.506   6.370  16.433  0.4929  0.3468 -0.3662
 8165TIP3    H145910   0.491   6.447  16.489 -1.3327  0.0862 -0.4171
 8165TIP3    H245911   0.594   6.341  16.455  2.2151  3.7820 -2.0087
 8166TIP3   OH245912   2.020   0.302  15.916 -0.2803 -0.3112 -0.6936
 8166TIP3    H145913   2.026   0.247  15.838  0.8460 -1.5289  0.2045
 8166TIP3    H245914   1.982   0.245  15.983  1.7746 -0.3754  0.5224
 8167TIP3   OH245915   2.662   2.139   6.044  0.3982  0.3312  0.0083
 8167TIP3    H145916   2.729   2.143   5.977  2.0196  1.9223  1.6101
 8167TIP3    H245917   2.613   2.059   6.024  1.5715  0.1079 -2.2968
 8168TIP3   OH245918   5.691   1.631   4.843 -0.0390  0.1447 -0.3533
 8168TIP3    H145919   5.675   1.634   4.937 -0.0346  2.9943 -0.3469
 8168TIP3    H245920   5.622   1.574   4.808 -1.8334  1.3093  1.1107
 8169TIP3   OH245921   6.687   4.243  14.757 -0.1830  0.2701  0.8879
 8169TIP3    H145922   6.752   4.243  14.828 -0.2241 -2.4995  1.0354
 8169TIP3    H245923   6.604   4.226  14.801 -0.7697  1.8621  0.4742
 8170TIP3   OH245924   1.083   3.485  14.483  0.8665  0.0141  0.4486
 8170TIP3    H145925   1.116   3.415  14.427  0.6217 -0.9114  1.4339
 8170TIP3    H245926   1.143   3.558  14.467  1.6281 -0.6838  0.0276
 8171TIP3   OH245927   3.095   4.960   3.522  0.6114 -0.1177 -0.2220
 8171TIP3    H145928   3.176   4.986   3.566  1.0101 -0.3322 -0.8035
 8171TIP3    H245929   3.026   4.974   3.587  0.7888  2.3166 -0.4668
 8172TIP3   OH245930   3.758   6.645  15.241  0.6864  0.3380  0.0415
 8172TIP3    H145931   3.833   6.702  15.259 -0.5603  1.4338  2.1287
 8172TIP3    H245932   3.698   6.660  15.314 -0.9468 -1.5966 -0.8024
 8173TIP3   OH245933   6.004   4.745  12.064  0.0416 -0.0604  0.4644
 8173TIP3    H145934   6.045   4.692  11.996  0.5700  0.7178  0.1506
 8173TIP3    H245935   5.922   4.775  12.024  0.2304  0.1883  0.2561
 8174TIP3   OH245936   6.418   1.730  14.671  0.2156  0.1672  0.1254
 8174TIP3    H145937   6.332   1.691  14.660 -0.2462  1.1916 -0.0041
 8174TIP3    H245938   6.476   1.656  14.689 -0.7879 -0.4695  0.8040
 8175TIP3   OH245939   3.040   1.928   2.923  0.4226 -0.8250 -0.4586
 8175TIP3    H145940   2.952   1.962   2.941  0.0997 -1.8504 -0.0128
 8175TIP3    H245941   3.079   1.917   3.010  1.1424 -0.0328 -0.6651
 8176TIP3   OH245942   2.323   3.254  13.179  0.3556 -0.2343  0.1325
 8176TIP3    H145943   2.251   3.223  13.234 -0.4757 -0.6482 -1.1252
 8176TIP3    H245944   2.306   3.347  13.166 -0.4956 -0.5022 -0.8757
 8177TIP3   OH245945   4.106   3.499  11.648 -0.4684 -0.1138  0.0521
 8177TIP3    H145946   4.060   3.425  11.688  0.7120 -0.6996  0.3786
 8177TIP3    H245947   4.110   3.477  11.555 -2.2496  0.7279 -0.2670
 8178TIP3   OH245948   0.985   1.901   3.986  0.1768  0.2589 -0.2819
 8178TIP3    H145949   1.031   1.907   3.903  0.3496 -0.8759 -0.2816
 8178TIP3    H245950   1.034   1.836   4.037 -1.9617 -1.8670 -0.6999
 8179TIP3   OH245951   2.016   1.647   2.172  0.1172 -0.0134  0.2106
 8179TIP3    H145952   2.041   1.590   2.244  0.9238  1.3247  1.0359
 8179TIP3    H245953   2.063   1.613   2.096 -0.5206 -1.2691  0.3480
 8180TIP3   OH245954   2.500   1.816   3.655 -0.5028 -0.5809  0.6452
 8180TIP3    H145955   2.498   1.752   3.584  2.5426 -0.3368  0.2158
 8180TIP3    H245956   2.472   1.898   3.615  0.8489 -0.5216 -0.2581
 8181TIP3   OH245957   5.249   3.778   1.443  0.4277  0.0651  0.1793
 8181TIP3    H145958   5.194   3.793   1.367  1.0424  1.3925 -0.0414
 8181TIP3    H245959   5.335   3.811   1.417  0.5255  1.0123  1.5985
 8182TIP3   OH245960   2.877   1.713  16.556 -0.4563 -0.2062  0.0569
 8182TIP3    H145961   2.856   1.690  16.466  0.7256  0.4605 -0.4168
 8182TIP3    H245962   2.914   1.801  16.550  1.2431 -0.8094  0.9395
 8183TIP3   OH245963   2.484   2.766   5.390 -0.4447 -0.1631  0.2124
 8183TIP3    H145964   2.542   2.769   5.314 -0.1071 -0.4717  0.4571
 8183TIP3    H245965   2.543   2.762   5.465 -0.7723  0.2863  0.5016
 8184TIP3   OH245966   6.075   5.317   1.810  0.2962  0.5363 -0.0338
 8184TIP3    H145967   6.161   5.313   1.770 -0.0907 -0.0012 -0.8417
 8184TIP3    H245968   6.037   5.399   1.778  0.3434  0.5633 -0.0198
 8185TIP3   OH245969   0.733   6.280   0.498  0.7293 -0.1274  0.1668
 8185TIP3    H145970   0.784   6.259   0.576  2.4485  1.0951 -0.5677
 8185TIP3    H245971   0.690   6.197   0.475  1.9778 -1.0822  1.1233
 8186TIP3   OH245972   5.433   3.274   1.921  0.2900  0.5357 -0.4429
 8186TIP3    H145973   5.429   3.209   1.991 -0.1095  0.4190 -0.5745
 8186TIP3    H245974   5.489   3.234   1.854 -1.3538 -0.4472 -1.3095
 8187TIP3   OH245975   5.225   2.013  16.503  0.2182 -0.1375 -0.6458
 8187TIP3    H145976   5.182   1.984  16.423 -0.8488 -2.9792  0.8019
 8187TIP3    H245977   5.152   2.030  16.564  0.9745 -1.5703  0.7540
 8188TIP3   OH245978   4.150   2.754  16.058  0.6703  0.0174  0.0284
 8188TIP3    H145979   4.187   2.667  16.076  0.6954  0.0356  0.0625
 8188TIP3    H245980   4.060   2.736  16.030  0.3619  0.0446  0.9662
 8189TIP3   OH245981   5.839   0.812   2.361 -0.3284  0.4514  0.0873
 8189TIP3    H145982   5.754   0.779   2.330  0.3177 -1.4347  0.2030
 8189TIP3    H245983   5.874   0.742   2.415  2.4389  0.0333 -2.0154
 8190TIP3   OH245984   4.183   6.532   2.137  0.1913  0.2810 -0.1324
 8190TIP3    H145985   4.203   6.477   2.062 -1.6433 -0.9241  0.2091
 8190TIP3    H245986   4.186   6.621   2.102 -2.2194 -0.3156 -2.0919
 8191TIP3   OH245987   2.128   1.848   3.678  0.7426  0.3080  0.7747
 8191TIP3    H145988   2.058   1.897   3.722  0.5175 -0.2119  1.0102
 8191TIP3    H245989   2.116   1.758   3.709 -0.0204 -0.2689 -1.1046
 8192TIP3   OH245990   5.619   6.182   1.564 -0.1725 -0.1510 -1.0143
 8192TIP3    H145991   5.647   6.210   1.651 -0.1879 -0.9483 -0.7453
 8192TIP3    H245992   5.639   6.088   1.561  2.6425  0.3860 -2.9935
 8193TIP3   OH245993   0.687   6.472   1.536  0.1413 -0.0438  0.5972
 8193TIP3    H145994   0.719   6.464   1.445  1.8244  1.4225  0.9847
 8193TIP3    H245995   0.675   6.566   1.548 -1.3778 -0.3350  1.4996
 8194TIP3   OH245996   0.246   0.079  11.418 -0.2429 -0.4603 -0.5262
 8194TIP3    H145997   0.205   0.068  11.333 -1.5340 -0.4526  0.0767
 8194TIP3    H245998   0.177   0.060  11.481  0.8565 -1.1418  0.5356
 8195TIP3   OH245999   4.587   2.075  14.556 -0.0891  0.2337  0.0173
 8195TIP3    H146000   4.506   2.116  14.526 -1.0108 -2.1204 -0.9779
 8195TIP3    H246001   4.599   2.108  14.645 -1.5954  1.3924 -0.1670
 8196TIP3   OH246002   0.995   6.188   5.723 -0.3611  0.1146 -0.6092
 8196TIP3    H146003   1.028   6.249   5.657 -0.5492  0.4412 -0.4024
 8196TIP3    H246004   0.936   6.240   5.777  1.3899  0.4030  1.1396
 8197TIP3   OH246005   6.581   3.026  14.442  0.5202  0.3760  0.7749
 8197TIP3    H146006   6.647   2.958  14.430  0.5733  0.6323 -0.4576
 8197TIP3    H246007   6.612   3.077  14.517  0.8016 -0.5674  1.3174
 8198TIP3   OH246008   1.638   4.422   4.557 -0.1745 -0.1336 -0.3500
 8198TIP3    H146009   1.709   4.364   4.531  1.0147  1.1366 -0.0485
 8198TIP3    H246010   1.672   4.510   4.544 -1.3747  0.5172  0.6419
 8199TIP3   OH246011   5.834   6.210   1.119  0.5870 -0.6113 -0.7975
 8199TIP3    H146012   5.798   6.124   1.140  2.2893 -1.2040 -0.1643
 8199TIP3    H246013   5.927   6.195   1.106  0.9360  1.1446 -0.6218
 8200TIP3   OH246014   0.511   3.376   0.271 -0.2375  0.3521  0.1296
 8200TIP3    H146015   0.471   3.295   0.240 -0.1369  0.5740 -0.6098
 8200TIP3    H246016   0.462   3.446   0.226 -0.1007  0.6878  0.4932
 8201TIP3   OH246017   1.905   3.360  15.684  0.0559 -0.0043  0.8096
 8201TIP3    H146018   1.883   3.449  15.711  0.2151  0.3650 -0.2379
 8201TIP3    H246019   1.826   3.328  15.641  0.5902  0.3167 -0.4669
 8202TIP3   OH246020   6.235   3.904  15.640 -0.3474 -0.0054  0.0755
 8202TIP3    H146021   6.170   3.852  15.688 -0.9415  1.2491  0.6786
 8202TIP3    H246022   6.317   3.889  15.687  0.2509 -2.9345 -1.6708
 8203TIP3   OH246023   0.030   6.476   3.383 -0.0996  0.0548  0.2676
 8203TIP3    H146024  -0.051   6.455   3.430 -0.2152 -0.6574 -0.2285
 8203TIP3    H246025   0.007   6.464   3.290  0.4772  0.1883  0.1076
 8204TIP3   OH246026   0.446   2.646  13.561  0.7086 -0.0858  0.1383
 8204TIP3    H146027   0.402   2.580  13.615 -1.9961  0.6577 -0.9900
 8204TIP3    H246028   0.413   2.730  13.593  1.0994  0.5103 -0.9493
 8205TIP3   OH246029   5.430   2.839   1.661  0.4977 -0.5406  0.6407
 8205TIP3    H146030   5.471   2.753   1.652  0.4152 -0.5002 -0.1567
 8205TIP3    H246031   5.387   2.836   1.746 -0.8759 -1.8641 -0.0665
 8206TIP3   OH246032   2.700   1.459  16.784 -0.3299 -0.0640 -0.7001
 8206TIP3    H146033   2.638   1.515  16.737 -0.7568  0.5638  0.5561
 8206TIP3    H246034   2.651   1.429  16.861  0.3117 -1.1450 -0.6966
 8207TIP3   OH246035   2.660   0.991  16.049  0.0043 -0.2792 -0.9363
 8207TIP3    H146036   2.614   1.038  15.980 -0.1452  0.1178 -0.5717
 8207TIP3    H246037   2.601   0.920  16.074 -1.1042  1.1042  0.5612
 8208TIP3   OH246038   4.605   5.471   5.725  0.0658 -0.1273  0.0868
 8208TIP3    H146039   4.526   5.438   5.767 -0.3794  0.6943 -0.0795
 8208TIP3    H246040   4.673   5.464   5.792  0.2314 -2.2754 -0.2449
 8209TIP3   OH246041   4.005   6.472  10.843 -0.5103 -0.1258  0.4920
 8209TIP3    H146042   4.078   6.420  10.810  0.4827  0.6861  1.3787
 8209TIP3    H246043   4.044   6.552  10.876 -1.6156 -0.2915  2.3560
 8210TIP3   OH246044   5.936   5.592  11.669 -0.4544 -0.6919 -0.5757
 8210TIP3    H146045   5.981   5.529  11.612  2.8195  1.6619 -0.8811
 8210TIP3    H246046   5.919   5.667  11.612 -0.4952  0.2685  0.6754
 8211TIP3   OH246047   4.254   5.356   5.283 -0.5953 -0.0464 -0.2455
 8211TIP3    H146048   4.173   5.325   5.323 -0.3272  2.0884  2.2848
 8211TIP3    H246049   4.248   5.452   5.288  2.4009  0.1863  0.9270
 8212TIP3   OH246050   0.074   6.343   3.065 -1.0569  0.2580  0.1427
 8212TIP3    H146051   0.169   6.344   3.065 -1.0287 -0.5270 -0.8578
 8212TIP3    H246052   0.049   6.436   3.067 -0.2639  0.5019 -0.6057
 8213TIP3   OH246053   6.727   5.793  11.929 -0.3827  0.2949 -0.0458
 8213TIP3    H146054   6.681   5.710  11.940 -0.9217  0.2606 -2.2563
 8213TIP3    H246055   6.816   5.769  11.903 -0.5091  0.4060 -0.5841
 8214TIP3   OH246056   0.116   4.753   2.585  0.2296 -0.1600 -0.3214
 8214TIP3    H146057   0.119   4.833   2.637  0.5564  1.0283 -2.0630
 8214TIP3    H246058   0.199   4.752   2.538 -0.5187 -0.5118 -1.7007
 8215TIP3   OH246059   3.004   0.864  13.046  0.2535  0.3607 -0.1832
 8215TIP3    H146060   3.099   0.870  13.040  0.2431 -0.3875 -1.5567
 8215TIP3    H246061   2.973   0.868  12.955 -0.8336 -1.9163  0.0033
 8216TIP3   OH246062   5.065   2.325   3.489  0.5200  0.1478 -0.3712
 8216TIP3    H146063   5.028   2.364   3.569 -0.5833 -1.1122 -0.2411
 8216TIP3    H246064   4.999   2.340   3.422 -0.4090 -2.2707 -0.1012
 8217TIP3   OH246065   2.014   5.615  11.875 -0.2849  0.1177 -0.5868
 8217TIP3    H146066   1.945   5.623  11.809 -0.8378 -0.1587 -0.0491
 8217TIP3    H246067   2.020   5.703  11.913 -0.2217  0.1858 -0.7534
 8218TIP3   OH246068   2.558   1.867  14.465 -0.9139 -0.0482 -0.1894
 8218TIP3    H146069   2.633   1.807  14.472 -1.6853 -1.0461 -0.1918
 8218TIP3    H246070   2.557   1.915  14.548 -0.7777 -0.6511  0.1641
 8219TIP3   OH246071   3.109   3.268  15.529 -0.0986  0.3878  0.3167
 8219TIP3    H146072   3.051   3.228  15.463 -0.0515 -1.9243  1.5733
 8219TIP3    H246073   3.109   3.206  15.602  3.2914  0.6765  0.7329
 8220TIP3   OH246074   6.289   5.617   2.490  0.2590  0.4461 -0.5756
 8220TIP3    H146075   6.228   5.685   2.517  0.4414  0.3430  0.1058
 8220TIP3    H246076   6.366   5.664   2.459  0.7997  0.5561  0.8589
 8221TIP3   OH246077   0.297   2.785   1.564  0.4426 -0.2796 -0.3265
 8221TIP3    H146078   0.202   2.801   1.564  0.3482 -0.6976  0.7694
 8221TIP3    H246079   0.308   2.709   1.507  0.1692  0.0396 -0.8076
 8222TIP3   OH246080   3.420   2.840   4.810 -0.4794  0.3594  0.1131
 8222TIP3    H146081   3.463   2.864   4.892 -2.0846  0.7956  0.8710
 8222TIP3    H246082   3.485   2.787   4.764  0.6056  0.4101  1.4980
 8223TIP3   OH246083   4.613   6.561  12.938  0.5908  0.3403 -0.5728
 8223TIP3    H146084   4.661   6.492  12.893  0.0744  0.6969 -1.6952
 8223TIP3    H246085   4.581   6.520  13.018  0.9368 -0.5066 -0.8644
 8224TIP3   OH246086   2.146   0.558   1.961  0.5621 -0.2518  0.1112
 8224TIP3    H146087   2.120   0.617   1.890  1.3115  0.8657  0.7331
 8224TIP3    H246088   2.084   0.485   1.955 -0.3166  0.5306 -0.7665
 8225TIP3   OH246089   0.468   1.540  14.008 -0.3484 -0.1596  0.4421
 8225TIP3    H146090   0.401   1.481  13.974  0.5143  0.4758 -2.7033
 8225TIP3    H246091   0.513   1.573  13.930  2.9335  0.2977  2.3442
 8226TIP3   OH246092   1.757   4.144  14.216  0.0415 -0.0158  0.3020
 8226TIP3    H146093   1.717   4.177  14.296 -1.2859  1.2518 -0.8158
 8226TIP3    H246094   1.750   4.217  14.154 -0.9223 -1.6145 -1.5883
 8227TIP3   OH246095   6.010   1.144  15.633  0.0086  0.3643  0.1611
 8227TIP3    H146096   6.087   1.166  15.581 -0.3790 -0.0473 -0.5975
 8227TIP3    H246097   6.039   1.071  15.689  0.7388  1.5030  1.3269
 8228TIP3   OH246098   5.206   2.583  11.716  0.6242 -0.1641  0.4672
 8228TIP3    H146099   5.259   2.601  11.638  1.7445 -1.0747  0.9992
 8228TIP3    H246100   5.118   2.611  11.691  0.9075 -0.6120 -1.1975
 8229TIP3   OH246101   5.455   4.151  11.074  0.2410  0.3550 -0.0087
 8229TIP3    H146102   5.517   4.080  11.056  1.1909  0.5242  2.2460
 8229TIP3    H246103   5.370   4.115  11.051  0.8710 -0.9173 -0.4661
 8230TIP3   OH246104   3.301   1.020   2.595  0.0029  0.0544 -0.3769
 8230TIP3    H146105   3.285   0.984   2.508  0.6367 -2.3648  0.4057
 8230TIP3    H246106   3.219   1.004   2.642  0.1396  0.0231 -0.1462
 8231TIP3   OH246107   3.562   1.008  12.979 -0.3125 -0.1002 -0.2749
 8231TIP3    H146108   3.639   1.044  13.023  1.0263 -1.0359 -1.7499
 8231TIP3    H246109   3.542   1.070  12.909  0.0002 -0.5749 -0.7917
 8232TIP3   OH246110   5.039   4.533  15.975  0.3145 -0.0758  0.4675
 8232TIP3    H146111   5.050   4.622  15.942 -0.5594 -0.8044 -2.0408
 8232TIP3    H246112   5.040   4.478  15.897  1.0297 -2.3172  1.9518
 8233TIP3   OH246113   4.931   6.724  15.603  0.0599 -0.4077  0.1228
 8233TIP3    H146114   5.010   6.688  15.643 -0.5557 -0.6541  1.1707
 8233TIP3    H246115   4.918   6.808  15.648 -0.9206 -0.9136  0.8352
 8234TIP3   OH246116   4.595   3.824   1.100  0.7790  0.0195 -0.6757
 8234TIP3    H146117   4.515   3.872   1.121  0.6559 -1.0219  1.6269
 8234TIP3    H246118   4.621   3.856   1.014  0.2596  3.5164  0.3159
 8235TIP3   OH246119   0.686   4.051   1.253  0.3120 -0.0302  0.3603
 8235TIP3    H146120   0.695   3.997   1.332 -0.4829 -0.2793  0.2927
 8235TIP3    H246121   0.695   4.141   1.285 -1.5057 -0.0292  1.0168
 8236TIP3   OH246122   3.873   4.430   3.097 -0.4265  0.3975  0.3408
 8236TIP3    H146123   3.788   4.426   3.053  0.5007  1.0401 -1.5850
 8236TIP3    H246124   3.937   4.423   3.027  1.2199 -3.0861  1.9288
 8237TIP3   OH246125   2.416   1.165  16.832  0.1760  0.7070  0.3137
 8237TIP3    H146126   2.439   1.156  16.924 -2.2275  0.8680  1.0034
 8237TIP3    H246127   2.343   1.227  16.832  0.0557  0.6309 -1.7031
 8238TIP3   OH246128   5.270   5.221  17.139  0.0018 -0.2282 -0.0109
 8238TIP3    H146129   5.249   5.314  17.150  1.9037  0.3061 -0.4719
 8238TIP3    H246130   5.186   5.180  17.119 -1.0719  1.1883  1.2846
 8239TIP3   OH246131   2.438   4.299  15.308 -0.1483  0.4316  0.3112
 8239TIP3    H146132   2.461   4.391  15.295 -2.1153  0.7932 -1.2083
 8239TIP3    H246133   2.405   4.271  15.223 -0.0490 -1.5572  0.8877
 8240TIP3   OH246134   3.659   3.601   5.313  0.0131  0.0962 -0.2259
 8240TIP3    H146135   3.751   3.618   5.296  0.3831 -1.7995 -0.3495
 8240TIP3    H246136   3.655   3.580   5.407  0.3410 -3.0519 -0.8000
 8241TIP3   OH246137   3.737   2.039   4.478  0.0073  0.2954  0.1394
 8241TIP3    H146138   3.797   1.984   4.528 -0.0314  0.3688  0.2667
 8241TIP3    H246139   3.752   2.128   4.512 -0.0333  0.3420  0.0349
 8242TIP3   OH246140   5.533   4.261   2.293 -0.1157 -0.3626  0.8970
 8242TIP3    H146141   5.558   4.171   2.272 -0.0274 -0.1451 -0.0155
 8242TIP3    H246142   5.608   4.297   2.339  1.1077  0.1048 -1.3018
 8243TIP3   OH246143   5.691   0.201   5.541 -0.2213  0.3406 -0.0099
 8243TIP3    H146144   5.748   0.205   5.618  1.1365  1.5756 -1.0259
 8243TIP3    H246145   5.750   0.185   5.468 -1.2232  1.2487 -1.0545
 8244TIP3   OH246146   2.890   4.480   0.886  0.3736  0.0713  0.2737
 8244TIP3    H146147   2.904   4.519   0.800  0.8371 -1.1743 -0.2569
 8244TIP3    H246148   2.796   4.488   0.902 -0.3983 -2.6795 -1.9550
 8245TIP3   OH246149   0.766   5.525   4.568 -0.2010 -0.1979 -0.2693
 8245TIP3    H146150   0.835   5.592   4.562  1.8066 -2.1644 -0.5103
 8245TIP3    H246151   0.710   5.555   4.639  1.3657  1.1280  0.4885
 8246TIP3   OH246152   1.112   4.117   5.543  0.2469  0.6486  0.4819
 8246TIP3    H146153   1.175   4.187   5.559 -0.2858  0.5915  3.2731
 8246TIP3    H246154   1.042   4.132   5.606 -1.2097 -0.8626 -0.6941
 8247TIP3   OH246155   1.851   5.120  11.261  0.1819  0.2601 -0.5334
 8247TIP3    H146156   1.833   5.085  11.348 -0.3042  1.8211  0.0401
 8247TIP3    H246157   1.850   5.044  11.203  3.0346 -1.2030  1.1202
 8248TIP3   OH246158   3.985   1.733  15.072 -0.1088 -0.3163 -0.0463
 8248TIP3    H146159   4.061   1.743  15.130 -0.3800 -0.0875  0.2765
 8248TIP3    H246160   3.962   1.823  15.047 -0.1638 -0.3967 -0.2834
 8249TIP3   OH246161   2.144   5.305   3.315 -0.1825  0.2374  0.6487
 8249TIP3    H146162   2.194   5.334   3.239 -1.2162  0.3512 -0.0103
 8249TIP3    H246163   2.193   5.229   3.349  2.4266  2.4755  2.2707
 8250TIP3   OH246164   2.719   1.946   3.795  0.3007 -0.2435  0.8755
 8250TIP3    H146165   2.765   2.005   3.734  0.1253  2.0331  2.7916
 8250TIP3    H246166   2.675   1.883   3.738  2.0387  0.2878 -1.2302
 8251TIP3   OH246167   6.334   2.614   5.763  0.3356  0.6328  0.6593
 8251TIP3    H146168   6.337   2.706   5.736  1.8140  0.5077  0.2759
 8251TIP3    H246169   6.314   2.617   5.857 -2.0323  1.2028  0.2015
 8252TIP3   OH246170   2.841   2.048   4.136  0.5106  0.2846  0.4845
 8252TIP3    H146171   2.793   1.983   4.186 -3.6118  0.7649 -2.4176
 8252TIP3    H246172   2.788   2.128   4.142  0.2964  0.6447 -3.5766
 8253TIP3   OH246173   4.892   0.797  16.671  0.5218 -0.5106 -0.0953
 8253TIP3    H146174   4.933   0.729  16.617 -0.8856 -1.1417 -0.4315
 8253TIP3    H246175   4.868   0.865  16.608  2.2358  0.5156  0.2852
 8254TIP3   OH246176   5.006   1.928  13.688 -0.5332  0.5373  0.2380
 8254TIP3    H146177   5.021   2.019  13.715 -1.2260  0.3945  1.1430
 8254TIP3    H246178   4.912   1.916  13.697 -0.4789 -0.1995 -0.1325
 8255TIP3   OH246179   0.281   1.367   6.336  0.0813 -0.2564 -0.4470
 8255TIP3    H146180   0.254   1.449   6.376  0.9598 -0.0259 -0.3110
 8255TIP3    H246181   0.324   1.318   6.406  3.3039  0.9154 -1.4368
 8256TIP3   OH246182   6.691   0.094  10.802 -0.0001 -0.0080  0.1052
 8256TIP3    H146183   6.734   0.143  10.732 -1.1861  1.1061  0.1183
 8256TIP3    H246184   6.657   0.161  10.861 -2.0325 -0.7993 -0.0728
 8257TIP3   OH246185   0.349   6.326  15.128 -0.1411 -0.3467 -0.1861
 8257TIP3    H146186   0.319   6.409  15.165 -1.3406 -1.0142  0.4100
 8257TIP3    H246187   0.440   6.317  15.159  0.0854  0.8467 -0.4711
 8258TIP3   OH246188   2.332   4.862  16.876  0.1926 -0.8169 -0.4490
 8258TIP3    H146189   2.239   4.878  16.886  0.4102 -0.0781  0.4963
 8258TIP3    H246190   2.372   4.899  16.955  0.9957 -3.9120  0.7056
 8259TIP3   OH246191   6.375   4.444  14.254  0.5595  0.5471  0.0596
 8259TIP3    H146192   6.354   4.384  14.326 -2.6870  0.2343 -0.9808
 8259TIP3    H246193   6.307   4.511  14.259  1.3354  1.5182 -1.6396
 8260TIP3   OH246194   3.654   5.831   3.611 -0.0438  0.0359 -0.3997
 8260TIP3    H146195   3.740   5.853   3.647 -1.0946  1.8084  1.2358
 8260TIP3    H246196   3.607   5.791   3.683 -0.4488 -1.4950 -1.4593
 8261TIP3   OH246197   3.563   2.037   1.506  0.5025 -0.6279 -0.2887
 8261TIP3    H146198   3.656   2.053   1.489  0.5665 -0.6264  0.0543
 8261TIP3    H246199   3.522   2.040   1.420  0.9225 -1.3246 -0.5186
 8262TIP3   OH246200   3.323   6.127   6.092 -0.3563 -0.3174  0.1916
 8262TIP3    H146201   3.319   6.221   6.110  1.0211 -0.1542 -0.2884
 8262TIP3    H246202   3.304   6.086   6.177  1.8638  0.4271  1.1107
 8263TIP3   OH246203   3.276   4.352  17.054 -0.3780  0.1917  0.4995
 8263TIP3    H146204   3.296   4.280  16.995  2.2768 -0.7770  2.3812
 8263TIP3    H246205   3.231   4.311  17.128  1.6162  0.2487  1.8308
 8264TIP3   OH246206   5.960   0.103   3.341 -0.0067  0.2175 -0.1236
 8264TIP3    H146207   5.871   0.095   3.377 -0.8868  0.7858 -2.0163
 8264TIP3    H246208   6.008   0.155   3.406 -1.4295  0.9581  0.3868
 8265TIP3   OH246209   1.266   2.670  14.628  0.4928  0.2485 -0.1826
 8265TIP3    H146210   1.185   2.710  14.597 -0.5019 -0.5118  1.2938
 8265TIP3    H246211   1.334   2.707  14.572 -0.5536  2.7431  0.0470
 8266TIP3   OH246212   1.290   4.808  14.902  0.2947 -0.5338 -0.0917
 8266TIP3    H146213   1.336   4.887  14.873  0.0990  0.9701  3.1436
 8266TIP3    H246214   1.359   4.742  14.910  1.1589  0.4183  0.5919
 8267TIP3   OH246215   5.665   5.846   0.739 -0.0549  0.7101  0.2898
 8267TIP3    H146216   5.756   5.876   0.733  0.3577 -0.4306  0.5432
 8267TIP3    H246217   5.635   5.880   0.824 -0.4750  2.6157 -0.5733
 8268TIP3   OH246218   3.358   3.123  11.910 -0.7305  0.2819 -0.4977
 8268TIP3    H146219   3.416   3.067  11.962  0.8169  0.9471 -1.4364
 8268TIP3    H246220   3.365   3.088  11.821 -0.1165  1.6366 -1.0052
 8269TIP3   OH246221   1.916   6.380   2.722 -0.0489 -0.0311  0.3798
 8269TIP3    H146222   1.902   6.448   2.655  0.4568 -0.4329 -0.1464
 8269TIP3    H246223   1.842   6.390   2.782  0.5408  1.6409  0.8814
 8270TIP3   OH246224   0.862   6.414   3.281  0.0784 -0.2183 -0.0510
 8270TIP3    H146225   0.814   6.409   3.364 -0.2900  0.2208 -0.2360
 8270TIP3    H246226   0.861   6.324   3.248  0.1829 -0.3869  0.3931
 8271TIP3   OH246227   4.521   0.106   6.080  0.4014  0.0526  0.1437
 8271TIP3    H146228   4.526   0.191   6.124  3.8939 -0.1787  0.5008
 8271TIP3    H246229   4.567   0.047   6.139  2.4858 -0.9391 -2.2941
 8272TIP3   OH246230   2.083   5.299   2.998  0.3460 -0.0400  0.2209
 8272TIP3    H146231   2.008   5.247   3.024  0.0673  1.1069  1.8360
 8272TIP3    H246232   2.057   5.339   2.914  0.1391 -1.5430 -0.4576
 8273TIP3   OH246233   3.584   4.397   0.032 -0.4548  0.0581  0.1390
 8273TIP3    H146234   3.676   4.379   0.014 -0.8747  0.0357 -2.2689
 8273TIP3    H246235   3.545   4.310   0.041 -0.1431  0.0704  2.0176
 8274TIP3   OH246236   0.891   3.064   1.385 -0.1876 -0.1899 -0.0014
 8274TIP3    H146237   0.930   3.106   1.308 -0.0041  0.2942  0.3510
 8274TIP3    H246238   0.799   3.088   1.380 -0.3674 -0.9630 -0.5909
 8275TIP3   OH246239   6.573   3.152  11.300  0.1733 -0.4202  0.9681
 8275TIP3    H146240   6.566   3.236  11.347 -1.8360  0.3780 -0.6334
 8275TIP3    H246241   6.512   3.094  11.345  0.3240 -0.5217  1.0432
 8276TIP3   OH246242   4.449   0.750   0.420  0.0890 -0.1608  0.1727
 8276TIP3    H146243   4.467   0.776   0.510 -0.5990  2.3507 -0.3460
 8276TIP3    H246244   4.356   0.768   0.408  0.3325  0.2501 -1.2540
 8277TIP3   OH246245   3.105   5.148  10.302  0.3565  0.2275 -0.3829
 8277TIP3    H146246   3.070   5.078  10.247  2.3354 -1.6343  0.5304
 8277TIP3    H246247   3.048   5.150  10.379 -0.1324  0.0855 -0.7435
 8278TIP3   OH246248   1.246   5.815  15.769 -0.0694 -0.4320  0.2151
 8278TIP3    H146249   1.282   5.732  15.799 -1.1706 -1.3883 -0.9992
 8278TIP3    H246250   1.225   5.800  15.677  0.6291  1.5253 -0.3162
 8279TIP3   OH246251   6.047   1.111   1.628  0.3286 -0.1332  0.3482
 8279TIP3    H146252   5.995   1.133   1.551  1.0093  2.0475  0.4432
 8279TIP3    H246253   6.123   1.065   1.593  1.3161  2.0095 -0.5441
 8280TIP3   OH246254   1.697   0.829  11.790 -0.8420  0.0285 -0.2572
 8280TIP3    H146255   1.712   0.748  11.839  1.2808  1.7797  2.3122
 8280TIP3    H246256   1.633   0.877  11.843 -2.2219  0.0203 -1.8463
 8281TIP3   OH246257   4.193   0.254  11.745 -0.1511  0.9928  0.0832
 8281TIP3    H146258   4.183   0.160  11.756 -1.1556  0.8817 -1.4498
 8281TIP3    H246259   4.287   0.270  11.758  0.3097 -0.4622 -1.1297
 8282TIP3   OH246260   4.436   6.161  13.456 -0.1653  0.2777 -0.3918
 8282TIP3    H146261   4.384   6.169  13.376 -1.2264  0.3730  0.2907
 8282TIP3    H246262   4.468   6.071  13.456 -1.6985 -0.2868 -0.0104
 8283TIP3   OH246263   0.157   3.691  15.131  0.7106 -0.6247  0.4273
 8283TIP3    H146264   0.065   3.664  15.131  0.9201 -1.3849  1.4582
 8283TIP3    H246265   0.180   3.697  15.224  1.1404  1.5639  0.2441
 8284TIP3   OH246266   6.082   4.609  12.520 -0.3251 -0.4387  0.2530
 8284TIP3    H146267   6.153   4.602  12.583 -0.5564  0.4983  0.6274
 8284TIP3    H246268   6.124   4.596  12.435  0.2325 -0.2371  0.4942
 8285TIP3   OH246269   1.709   2.092  15.290  0.1323  0.2791 -0.2667
 8285TIP3    H146270   1.713   2.098  15.195 -1.2501  1.0930 -0.2954
 8285TIP3    H246271   1.719   2.182  15.320  0.8363 -0.0021  0.3886
 8286TIP3   OH246272   3.280   5.027   1.222  0.0771 -0.4844  0.3671
 8286TIP3    H146273   3.204   4.995   1.270 -0.3664 -1.2738 -0.8167
 8286TIP3    H246274   3.249   5.039   1.133  0.5571  2.1486  0.4651
 8287TIP3   OH246275   3.545   0.559   3.532  0.4166  0.2245  0.2273
 8287TIP3    H146276   3.556   0.467   3.555 -0.1576  0.1474  0.2234
 8287TIP3    H246277   3.618   0.579   3.473 -0.6007 -0.8225 -1.5010
 8288TIP3   OH246278   1.564   2.161  15.021  0.3818  0.3629 -0.0597
 8288TIP3    H146279   1.470   2.170  15.034  0.4638  0.7327  0.2801
 8288TIP3    H246280   1.575   2.161  14.926 -0.0736 -0.9074 -0.1432
 8289TIP3   OH246281   5.136   2.499  13.736  0.0458 -0.1491 -0.4510
 8289TIP3    H146282   5.087   2.572  13.773  0.2406 -0.4463  0.4180
 8289TIP3    H246283   5.078   2.462  13.669 -0.7474 -0.2505  0.2823
 8290TIP3   OH246284   5.191   5.506  12.826 -0.1503 -0.4028  0.4668
 8290TIP3    H146285   5.191   5.474  12.916  1.5518 -0.2474  0.5450
 8290TIP3    H246286   5.236   5.590  12.830 -1.6531  0.4902 -0.2678
 8291TIP3   OH246287   0.152   4.462   3.250  0.4044  0.1444  0.2525
 8291TIP3    H146288   0.168   4.553   3.277 -0.3327  0.0595  1.0082
 8291TIP3    H246289   0.070   4.439   3.293 -1.9900  0.6324 -3.6088
 8292TIP3   OH246290   2.513   5.261  14.825 -0.5159 -0.1144  0.0782
 8292TIP3    H146291   2.551   5.235  14.909  1.7994 -1.1104 -1.1806
 8292TIP3    H246292   2.478   5.180  14.788 -0.5498  0.1047 -0.3787
 8293TIP3   OH246293   6.545   5.929  11.768 -0.6130 -0.6054  0.2503
 8293TIP3    H146294   6.567   5.942  11.676 -1.1843  0.1189  0.2058
 8293TIP3    H246295   6.611   5.868  11.800 -0.1947 -0.5860 -0.5486
 8294TIP3   OH246296   1.837   6.189   4.552  0.6047  0.2099  0.5616
 8294TIP3    H146297   1.843   6.126   4.481  0.1690  0.9654 -0.1629
 8294TIP3    H246298   1.806   6.138   4.627 -1.1911 -0.1833 -0.3928
 8295TIP3   OH246299   1.847   4.171  11.942  0.0520 -0.5372 -0.5557
 8295TIP3    H146300   1.809   4.083  11.945 -0.4047 -0.3167  0.7880
 8295TIP3    H246301   1.842   4.202  12.032  0.9123  0.5780 -0.8733
 8296TIP3   OH246302   6.411   1.015   5.646  0.4201 -0.2002  0.0661
 8296TIP3    H146303   6.499   1.001   5.682  1.0147 -0.4674 -1.4228
 8296TIP3    H246304   6.426   1.047   5.557 -0.9770 -1.2702 -0.5927
 8297TIP3   OH246305   1.842   5.840   2.577 -0.0278 -0.6179 -0.1067
 8297TIP3    H146306   1.876   5.783   2.508 -2.1546  1.6829 -3.3316
 8297TIP3    H246307   1.753   5.808   2.593 -0.4895  0.4395 -0.4402
 8298TIP3   OH246308   6.259   3.952  11.204  0.0839 -0.3348 -0.5072
 8298TIP3    H146309   6.239   3.952  11.110 -1.0896 -0.4442 -0.2754
 8298TIP3    H246310   6.319   3.878  11.216 -1.2620 -1.5325 -0.8912
 8299TIP3   OH246311   2.460   0.247  13.723  0.1496  0.1004 -0.0816
 8299TIP3    H146312   2.366   0.234  13.709 -0.3805 -1.0874  3.4892
 8299TIP3    H246313   2.501   0.169  13.684 -0.7732 -1.1867  1.4077
 8300TIP3   OH246314   3.639   2.657  10.935 -0.7969 -0.4571  0.0321
 8300TIP3    H146315   3.691   2.612  10.868 -0.3036  0.0191  0.0891
 8300TIP3    H246316   3.639   2.749  10.908  0.5038 -0.0209  1.3574
 8301TIP3   OH246317   1.695   0.047   3.907 -0.2196 -0.1794 -0.0656
 8301TIP3    H146318   1.616   0.073   3.860 -0.3863 -3.4762 -1.9198
 8301TIP3    H246319   1.767   0.067   3.846  0.4571  2.2743  1.3816
 8302TIP3   OH246320   4.566   1.235  15.551 -0.0293 -0.2698 -0.1281
 8302TIP3    H146321   4.543   1.142  15.553  2.5918 -1.0170 -0.5731
 8302TIP3    H246322   4.606   1.252  15.637 -0.3713  0.4140 -0.0985
 8303TIP3   OH246323   5.523   6.382   2.713 -0.3980 -0.4375 -0.0337
 8303TIP3    H146324   5.577   6.335   2.649  1.5049  0.9800  0.4504
 8303TIP3    H246325   5.517   6.324   2.788  1.5925 -0.1416  0.4047
 8304TIP3   OH246326   0.698   6.119  10.874 -0.1026 -0.4144  0.2318
 8304TIP3    H146327   0.627   6.171  10.835  0.1783  0.3930  0.7677
 8304TIP3    H246328   0.733   6.069  10.801  0.3075  0.9485 -0.5470
 8305TIP3   OH246329   2.266   5.315   5.124 -0.4119  0.9132  0.7118
 8305TIP3    H146330   2.246   5.394   5.173  1.9068 -0.3280  3.9788
 8305TIP3    H246331   2.361   5.312   5.120 -0.4669 -0.7479 -1.1047
 8306TIP3   OH246332   2.662   4.333   3.755  0.2651  0.1338 -0.1368
 8306TIP3    H146333   2.753   4.329   3.784  0.3356  0.7031 -0.2705
 8306TIP3    H246334   2.659   4.405   3.692 -0.2557  0.0536 -0.2157
 8307TIP3   OH246335   5.384   2.803   1.371 -0.0971  0.1822 -0.2006
 8307TIP3    H146336   5.456   2.864   1.357 -0.4200  0.8414  0.8817
 8307TIP3    H246337   5.377   2.796   1.466 -1.3052 -0.0537 -0.2924
 8308TIP3   OH246338   4.574   4.343  12.824  0.5209 -0.1584  0.0676
 8308TIP3    H146339   4.628   4.369  12.749  0.2175  2.1955  0.5959
 8308TIP3    H246340   4.487   4.375  12.802  0.5714  1.2286  1.6963
 8309TIP3   OH246341   6.179   4.668  14.602 -0.4943 -0.3907 -0.0923
 8309TIP3    H146342   6.125   4.596  14.571 -0.7167 -1.0431  1.6906
 8309TIP3    H246343   6.132   4.702  14.679 -0.6256  1.9638 -1.1248
 8310TIP3   OH246344   4.414   3.309   3.192 -0.2322  0.2221  0.0878
 8310TIP3    H146345   4.387   3.241   3.131 -0.5034 -1.1157  1.6234
 8310TIP3    H246346   4.498   3.339   3.158 -0.7782  0.1660 -1.4072
 8311TIP3   OH246347   1.961   2.981   4.252  0.1399  0.2752  0.4053
 8311TIP3    H146348   2.007   2.927   4.316 -0.3908  1.7997  2.1654
 8311TIP3    H246349   2.030   3.031   4.208  0.4397 -0.1755  0.3569
 8312TIP3   OH246350   6.662   0.132  12.835  0.2005  0.0699  0.5623
 8312TIP3    H146351   6.678   0.192  12.908  0.6506 -0.0391  0.5554
 8312TIP3    H246352   6.725   0.061  12.848  0.5474  0.2419 -0.1509
 8313TIP3   OH246353   0.792   2.717   3.196  0.2766  0.5468  0.3198
 8313TIP3    H146354   0.717   2.742   3.141 -0.1836 -0.7631  0.3201
 8313TIP3    H246355   0.766   2.743   3.284  0.8543  2.2947  0.0216
 8314TIP3   OH246356   0.883   2.171   6.061  0.3219 -0.0076  0.3150
 8314TIP3    H146357   0.959   2.184   6.005  1.8431  1.1514  2.5138
 8314TIP3    H246358   0.812   2.217   6.017  1.8200  2.1262  0.0237
 8315TIP3   OH246359   5.823   2.453  14.459 -0.7161  0.6003  0.4038
 8315TIP3    H146360   5.729   2.460  14.449 -0.7333 -1.7521 -2.7461
 8315TIP3    H246361   5.837   2.366  14.497  0.1821  0.0810 -1.0339
 8316TIP3   OH246362   5.783   4.291  15.310  0.7690 -0.2720 -0.0972
 8316TIP3    H146363   5.831   4.214  15.277  0.4815 -0.8431  0.7929
 8316TIP3    H246364   5.693   4.275  15.282  1.1750  1.2605 -2.6103
 8317TIP3   OH246365   6.011   4.375  11.099 -0.2021 -0.2575  0.3566
 8317TIP3    H146366   6.084   4.407  11.047  0.5215  1.0699  2.1002
 8317TIP3    H246367   6.052   4.320  11.166 -0.7977  0.3683  1.2518
 8318TIP3   OH246368   5.429   0.076  14.785  0.6545 -0.4876 -0.4819
 8318TIP3    H146369   5.401  -0.005  14.828  1.2241 -0.5248 -0.1683
 8318TIP3    H246370   5.523   0.081  14.803  0.8035 -0.2412 -1.2990
 8319TIP3   OH246371   5.318   5.450  15.735 -0.4531 -0.0430  0.3107
 8319TIP3    H146372   5.392   5.497  15.696 -1.2019 -0.7684 -2.1796
 8319TIP3    H246373   5.357   5.394  15.801  1.2851 -0.4816 -1.0129
 8320TIP3   OH246374   4.470   1.601   3.805 -0.3901 -0.1169  1.2551
 8320TIP3    H146375   4.404   1.595   3.874  0.0627 -2.0530  1.5943
 8320TIP3    H246376   4.508   1.688   3.814 -1.8657  0.4894  1.9927
 8321TIP3   OH246377   1.624   4.147   4.370 -0.3863  0.1489 -0.2619
 8321TIP3    H146378   1.675   4.088   4.425  0.4702 -0.0325 -1.2154
 8321TIP3    H246379   1.546   4.166   4.421  0.3834  0.0002  1.0075
 8322TIP3   OH246380   0.825   0.126  12.281 -0.2248  0.0920  0.3309
 8322TIP3    H146381   0.861   0.204  12.239 -0.9205  0.1142 -0.2447
 8322TIP3    H246382   0.838   0.141  12.374  0.8259  0.3033  0.1620
 8323TIP3   OH246383   4.045   4.715   2.186 -0.2437 -0.4897 -0.2657
 8323TIP3    H146384   4.066   4.625   2.162 -1.8859 -0.7656 -0.7852
 8323TIP3    H246385   4.013   4.755   2.105 -1.4506 -0.0606  0.3980
 8324TIP3   OH246386   0.005   4.089   4.673  0.1300  0.0360 -0.4633
 8324TIP3    H146387   0.014   4.132   4.589  0.1034  2.6093  0.7602
 8324TIP3    H246388  -0.026   4.158   4.733 -0.5099 -1.8362  1.5174
 8325TIP3   OH246389   1.892   5.746  11.364 -0.0171 -0.3843  0.5874
 8325TIP3    H146390   1.951   5.671  11.370  1.4903  0.6323 -0.5253
 8325TIP3    H246391   1.895   5.787  11.451  1.0242 -0.3082  0.5292
 8326TIP3   OH246392   4.984   3.281   4.460  0.2697  0.1426 -0.7207
 8326TIP3    H146393   4.903   3.232   4.474  0.6422 -0.7411 -1.4964
 8326TIP3    H246394   5.049   3.235   4.513  0.6274 -0.2294 -1.4684
 8327TIP3   OH246395   0.489   2.567  15.882 -0.0675 -0.3413 -0.0566
 8327TIP3    H146396   0.462   2.550  15.973  0.8667  0.9353  0.4864
 8327TIP3    H246397   0.443   2.647  15.858  0.6855  0.0439 -0.2443
 8328TIP3   OH246398   3.235   0.389   3.731 -0.4857 -0.2519 -0.0750
 8328TIP3    H146399   3.191   0.313   3.767 -1.3126 -0.7025 -1.9007
 8328TIP3    H246400   3.234   0.375   3.636  0.7098  1.3023 -0.3722
 8329TIP3   OH246401   1.328   0.920   1.939  0.2537  0.3484  0.3726
 8329TIP3    H146402   1.290   0.877   2.015 -0.0921  0.5703  0.3263
 8329TIP3    H246403   1.422   0.901   1.944  0.0200 -1.0016 -0.0161
 8330TIP3   OH246404   2.852   4.458  11.317  0.0748  0.2224 -0.3383
 8330TIP3    H146405   2.912   4.508  11.261  2.9630 -1.2760  1.2229
 8330TIP3    H246406   2.903   4.382  11.346 -2.3455 -0.7479  1.7492
 8331TIP3   OH246407   3.259   0.283   3.152  0.0647  0.6086 -0.4678
 8331TIP3    H146408   3.321   0.348   3.118  1.8905 -0.9163 -0.2003
 8331TIP3    H246409   3.308   0.237   3.220 -1.8933  0.3322  0.8217
 8332TIP3   OH246410   2.666   5.829  12.777  0.3713  0.2288  0.4138
 8332TIP3    H146411   2.654   5.921  12.801  1.8218  0.7052 -0.5381
 8332TIP3    H246412   2.759   5.821  12.759 -0.2124 -0.5224 -3.0103
 8333TIP3   OH246413   5.668   6.058   0.083  0.0420 -0.0879  0.2803
 8333TIP3    H146414   5.617   6.003   0.142 -0.3512  1.6031  1.6150
 8333TIP3    H246415   5.759   6.041   0.106  0.2526 -3.1874 -2.1707
 8334TIP3   OH246416   0.804   2.504   1.594 -0.2967 -0.2880 -0.1168
 8334TIP3    H146417   0.861   2.489   1.518  2.0018 -1.3556  1.7072
 8334TIP3    H246418   0.801   2.599   1.602  1.8149 -0.1969  0.0977
 8335TIP3   OH246419   5.433   0.209   5.850 -0.4633 -0.0676  0.2377
 8335TIP3    H146420   5.496   0.147   5.886 -1.0263 -0.2434  0.9400
 8335TIP3    H246421   5.445   0.203   5.755  0.0400 -0.6644  0.3338
 8336TIP3   OH246422   5.213   4.354  15.328 -0.2184 -0.1676  0.1353
 8336TIP3    H146423   5.199   4.331  15.237  0.6757 -0.3260  0.0279
 8336TIP3    H246424   5.300   4.395  15.330  0.3432 -1.3248  1.1015
 8337TIP3   OH246425   0.291   5.473   0.027  0.0444  0.1666  0.0218
 8337TIP3    H146426   0.296   5.559  -0.013  1.0815 -0.5993 -1.5715
 8337TIP3    H246427   0.368   5.468   0.084  0.4424  0.0055 -0.5206
 8338TIP3   OH246428   5.253   4.747  15.469 -0.2819  0.2662 -0.0542
 8338TIP3    H146429   5.323   4.809  15.492 -0.4060 -0.0113  1.1664
 8338TIP3    H246430   5.177   4.803  15.451 -0.2917  0.4938  0.6653
 8339TIP3   OH246431   0.612   2.975  15.926 -0.5093 -0.0800 -0.2033
 8339TIP3    H146432   0.557   2.907  15.888 -0.5910  0.2914 -0.7761
 8339TIP3    H246433   0.591   2.975  16.019 -1.5796  0.1375 -0.4289
 8340TIP3   OH246434   1.044   0.429  14.485 -0.0639 -0.1569 -0.4249
 8340TIP3    H146435   0.990   0.430  14.565  0.6200  1.4222  0.0536
 8340TIP3    H246436   1.067   0.337  14.473 -0.0040 -0.4060  1.3353
 8341TIP3   OH246437   6.244   6.467   0.517 -0.2610 -0.9220 -0.5643
 8341TIP3    H146438   6.326   6.422   0.496  0.0563 -0.1205 -1.1207
 8341TIP3    H246439   6.271   6.542   0.570 -0.2606  0.9067 -2.9699
 8342TIP3   OH246440   4.746   0.394   3.923  0.3181  0.2898  0.2369
 8342TIP3    H146441   4.778   0.308   3.950 -0.1819  0.2716  0.7654
 8342TIP3    H246442   4.753   0.448   4.001 -1.3328  0.1779  0.4924
 8343TIP3   OH246443   1.155   2.231   6.821  0.3236  0.0417 -0.1815
 8343TIP3    H146444   1.147   2.320   6.855  1.8748 -0.3292  1.2764
 8343TIP3    H246445   1.073   2.188   6.845  0.3763  0.5240  0.8927
 8344TIP3   OH246446   1.102   6.689   2.279 -0.3659  0.5642  0.2577
 8344TIP3    H146447   1.034   6.623   2.291 -0.4789  0.8364  1.1295
 8344TIP3    H246448   1.142   6.666   2.195 -1.2198  0.1262 -0.0429
 8345TIP3   OH246449   6.780   5.049   1.930 -0.5913 -0.1613  0.1784
 8345TIP3    H146450   6.830   4.992   1.871 -3.5047 -0.8616 -1.7998
 8345TIP3    H246451   6.787   5.136   1.892  0.2094  0.0349  0.7269
 8346TIP3   OH246452   5.477   2.658   4.225  0.3999 -0.8839  0.3404
 8346TIP3    H146453   5.561   2.677   4.268  1.2428  2.1444 -2.2083
 8346TIP3    H246454   5.499   2.595   4.157  1.0004  0.7557 -1.0773
 8347TIP3   OH246455   4.403   3.900  16.802 -0.8097 -0.4897 -0.1712
 8347TIP3    H146456   4.427   3.992  16.795 -1.3276 -0.1694  1.6132
 8347TIP3    H246457   4.421   3.877  16.894 -2.6473 -1.5664 -0.0160
 8348TIP3   OH246458   1.538   0.958  14.426 -0.4154 -0.3311  0.9142
 8348TIP3    H146459   1.457   0.908  14.421 -0.4175 -0.3773  1.3806
 8348TIP3    H246460   1.570   0.944  14.515 -0.1741  0.1154  0.9026
 8349TIP3   OH246461   6.470   5.013   1.618 -0.0330 -0.0237  0.3278
 8349TIP3    H146462   6.520   5.094   1.633  1.6438 -1.1221  0.8868
 8349TIP3    H246463   6.468   5.005   1.522 -2.6339  2.0703  0.0872
 8350TIP3   OH246464   5.059   5.539   1.263 -0.0881 -0.0040 -0.0513
 8350TIP3    H146465   5.149   5.513   1.244 -0.5469 -1.4113 -0.4367
 8350TIP3    H246466   5.052   5.534   1.359  0.5151  1.1107  0.0601
 8351TIP3   OH246467   5.891   4.306  10.389 -0.3697  0.2211 -0.0549
 8351TIP3    H146468   5.801   4.290  10.361 -0.1111  0.8298 -1.3186
 8351TIP3    H246469   5.883   4.374  10.457 -1.0017 -1.1973  1.3479
 8352TIP3   OH246470   2.204   6.734  15.838  0.2038  0.3813 -0.0873
 8352TIP3    H146471   2.212   6.640  15.823  0.5229  0.0192  2.0588
 8352TIP3    H246472   2.230   6.747  15.929 -1.3040  2.3462  0.1559
 8353TIP3   OH246473   4.154   6.502   3.352 -0.0645 -0.1225 -0.0987
 8353TIP3    H146474   4.178   6.411   3.333 -0.5186 -0.2166 -0.2511
 8353TIP3    H246475   4.097   6.496   3.429  0.8938  0.1545  0.6437
 8354TIP3   OH246476   6.309   1.025   1.506 -0.0030  1.0008  0.1186
 8354TIP3    H146477   6.325   0.941   1.550  0.5111  1.0163 -0.0281
 8354TIP3    H246478   6.339   1.011   1.416 -0.6402  1.1052 -0.1174
 8355TIP3   OH246479   1.738   2.212  10.954 -0.5727 -0.2141 -0.0490
 8355TIP3    H146480   1.743   2.119  10.930 -0.9398 -0.2806  0.1337
 8355TIP3    H246481   1.780   2.258  10.880  0.3420 -0.5736  0.2335
 8356TIP3   OH246482   0.443   3.193  12.824  0.0635  0.0128  0.9722
 8356TIP3    H146483   0.511   3.250  12.860  0.3398  0.0231  0.4459
 8356TIP3    H246484   0.463   3.107  12.861  1.3853 -0.3437 -0.4714
 8357TIP3   OH246485   0.558   2.072   2.033  0.1131 -0.1020 -0.1288
 8357TIP3    H146486   0.595   1.985   2.048 -0.2481 -0.3050 -0.3980
 8357TIP3    H246487   0.466   2.064   2.059  0.3431  0.5087  0.9266
 8358TIP3   OH246488   4.769   6.635   4.978 -0.1994  0.0308  0.2168
 8358TIP3    H146489   4.799   6.689   4.906  0.8011 -1.3705 -0.4614
 8358TIP3    H246490   4.805   6.676   5.057  0.6194  0.2841 -0.2872
 8359TIP3   OH246491   2.760   3.987  13.224 -0.1206 -0.0552  0.2914
 8359TIP3    H146492   2.778   3.915  13.284  1.0144 -0.2885 -0.3066
 8359TIP3    H246493   2.843   4.034  13.217 -0.1097 -0.2675 -1.4063
 8360TIP3   OH246494   3.856   1.113  14.471 -0.2045 -0.4432 -0.0763
 8360TIP3    H146495   3.777   1.167  14.468 -0.3399 -0.6585 -0.4281
 8360TIP3    H246496   3.923   1.170  14.508 -0.1168  0.2643 -1.2656
 8361TIP3   OH246497   5.465   1.903  16.625  0.1349  0.7786 -0.4111
 8361TIP3    H146498   5.531   1.970  16.645 -0.3900  1.0130  0.6526
 8361TIP3    H246499   5.402   1.948  16.568 -0.5635  1.4334  0.8193
 8362TIP3   OH246500   5.930   4.754  11.342 -0.3372 -0.6077  0.4783
 8362TIP3    H146501   5.940   4.826  11.280 -1.1235 -0.7557  0.1688
 8362TIP3    H246502   6.019   4.719  11.353 -0.2979 -1.0784 -1.1683
 8363TIP3   OH246503   4.266   0.331   5.849 -0.2802  0.1261 -0.2391
 8363TIP3    H146504   4.240   0.355   5.938 -1.8275  1.5546 -1.0332
 8363TIP3    H246505   4.202   0.265   5.823  0.7519 -1.0167  0.0051
 8364TIP3   OH246506   5.867   5.488   4.444 -0.0784  0.2603 -0.5346
 8364TIP3    H146507   5.941   5.438   4.410  0.2239 -0.2430  0.7983
 8364TIP3    H246508   5.903   5.574   4.464  0.0223  0.1895 -0.4076
 8365TIP3   OH246509   3.680   6.549   5.187  0.1205  0.3213 -0.3210
 8365TIP3    H146510   3.674   6.454   5.195 -0.5597  0.3911  0.0687
 8365TIP3    H246511   3.716   6.564   5.100 -0.6480 -0.2844 -0.7536
 8366TIP3   OH246512   3.163   1.360  13.522 -0.1735 -0.3265  0.5206
 8366TIP3    H146513   3.183   1.288  13.462  0.7576  0.2191  0.1610
 8366TIP3    H246514   3.074   1.387  13.499  0.5341  0.5604 -1.3393
 8367TIP3   OH246515   0.311   3.766  14.365  0.4475  0.1257 -0.3185
 8367TIP3    H146516   0.287   3.779  14.457 -1.4807 -1.9841 -0.4501
 8367TIP3    H246517   0.272   3.840  14.319 -0.6285 -0.0503  0.2851
 8368TIP3   OH246518   1.841   0.750  14.765  0.7893 -0.3881 -0.3260
 8368TIP3    H146519   1.821   0.692  14.838 -0.7381 -0.2529 -0.6046
 8368TIP3    H246520   1.882   0.694  14.699  1.6107 -0.6305  0.3859
 8369TIP3   OH246521   4.832   4.568  12.898  0.2124 -0.1679  0.1805
 8369TIP3    H146522   4.768   4.523  12.953 -0.0301  0.1190  0.1353
 8369TIP3    H246523   4.826   4.525  12.813 -0.8113  0.6533 -0.1894
 8370TIP3   OH246524   2.711   1.029  12.360 -0.1645 -0.4610 -0.0861
 8370TIP3    H146525   2.703   0.945  12.315 -0.4070 -0.3732 -0.2095
 8370TIP3    H246526   2.772   1.012  12.432  0.3908 -0.5537 -0.5690
 8371TIP3   OH246527   6.481   1.156   5.412 -0.2129  0.1519  0.7272
 8371TIP3    H146528   6.567   1.118   5.394 -0.3212 -0.1341  0.8134
 8371TIP3    H246529   6.489   1.247   5.385 -0.6482 -0.4560 -1.7411
 8372TIP3   OH246530   3.573   1.371   4.102  0.2519  0.1293 -0.4679
 8372TIP3    H146531   3.569   1.461   4.069  0.4529  0.0007 -0.8548
 8372TIP3    H246532   3.589   1.380   4.196 -1.5090  0.5183 -0.1746
 8373TIP3   OH246533   4.827   2.235   5.740 -0.4661  0.6665  0.4169
 8373TIP3    H146534   4.792   2.324   5.751 -4.6989 -0.8205  0.7690
 8373TIP3    H246535   4.768   2.179   5.789 -0.5464 -2.7923 -3.1027
 8374TIP3   OH246536   0.389   0.896   0.983 -0.0135  0.2643  0.5073
 8374TIP3    H146537   0.457   0.960   1.003 -0.1237  0.4696  0.2284
 8374TIP3    H246538   0.400   0.828   1.050  0.0301  0.6264  0.8752
 8375TIP3   OH246539   2.391   3.648  16.692 -0.3051  0.3322 -0.0761
 8375TIP3    H146540   2.376   3.731  16.736  0.1805 -0.0061  0.7628
 8375TIP3    H246541   2.486   3.639  16.690 -0.3276 -1.2826  2.0234
 8376TIP3   OH246542   0.605   6.670   4.264 -0.1147 -0.0470  0.0363
 8376TIP3    H146543   0.556   6.592   4.236 -2.0867  1.2179 -0.1981
 8376TIP3    H246544   0.616   6.722   4.184 -0.6512  0.8681  0.5416
 8377TIP3   OH246545   2.223   0.414  16.861  0.1802  0.3473  0.3735
 8377TIP3    H146546   2.199   0.507  16.867 -1.2756 -0.0157  0.5325
 8377TIP3    H246547   2.172   0.371  16.929 -0.8541 -0.8765 -1.0990
 8378TIP3   OH246548   2.023   4.937   0.995 -0.3326  0.0500 -1.0483
 8378TIP3    H146549   1.986   5.017   1.035 -0.8342  0.0575 -1.5038
 8378TIP3    H246550   2.083   4.902   1.061 -1.0503  0.1271 -0.3363
 8379TIP3   OH246551   4.795   5.560   2.762  0.2403  0.4124  0.4865
 8379TIP3    H146552   4.766   5.651   2.756 -0.3136  0.2033 -0.0704
 8379TIP3    H246553   4.887   5.566   2.791  0.4540  1.1744 -0.3263
 8380TIP3   OH246554   1.205   2.872  16.802  0.6944  0.5528  0.2259
 8380TIP3    H146555   1.245   2.849  16.886  1.9257  2.5371  0.2479
 8380TIP3    H246556   1.275   2.859  16.738  0.4766  1.2044 -0.1559
 8381TIP3   OH246557   1.637   0.913   2.642 -0.1052  0.5692 -0.5880
 8381TIP3    H146558   1.706   0.951   2.589  0.9092  0.4228  0.5755
 8381TIP3    H246559   1.653   0.947   2.730  0.6947 -2.2306  0.4591
 8382TIP3   OH246560   5.610   1.000   2.391 -0.0489 -0.6715  0.6450
 8382TIP3    H146561   5.672   0.949   2.339 -0.7509 -1.4955  0.5886
 8382TIP3    H246562   5.643   0.996   2.480  0.9328  0.3919  0.3525
 8383TIP3   OH246563   2.297   0.721  13.441  0.4317 -0.1978 -0.7094
 8383TIP3    H146564   2.386   0.696  13.416 -0.0446 -1.0331 -1.6257
 8383TIP3    H246565   2.267   0.649  13.497  0.3307  0.0872 -0.3959
 8384TIP3   OH246566   1.025   3.840   1.190 -0.3747  0.2302 -0.5607
 8384TIP3    H146567   1.088   3.871   1.125  0.1019  0.1248 -0.1581
 8384TIP3    H246568   1.016   3.913   1.251 -1.9017  0.8686 -1.5024
 8385TIP3   OH246569   1.820   3.216   0.830 -0.1666 -0.1014 -0.2741
 8385TIP3    H146570   1.853   3.276   0.763 -0.0256 -0.3798 -0.4537
 8385TIP3    H246571   1.784   3.274   0.897 -2.0348  0.1857 -1.4480
 8386TIP3   OH246572   0.332   2.436   2.801  0.1118 -0.4292 -0.1945
 8386TIP3    H146573   0.368   2.508   2.852 -0.3130  0.6601 -1.3836
 8386TIP3    H246574   0.389   2.428   2.726 -0.3934 -0.7039 -0.5596
 8387TIP3   OH246575   6.265   4.316   1.563 -0.2802 -0.0573 -0.0006
 8387TIP3    H146576   6.233   4.281   1.646  3.1530  1.0626  2.0067
 8387TIP3    H246577   6.239   4.251   1.498 -1.2768 -2.0747  2.2641
 8388TIP3   OH246578   0.006   2.065  11.518  0.0451 -0.4377  0.3674
 8388TIP3    H146579   0.056   2.087  11.440 -1.2392 -0.0505 -0.3790
 8388TIP3    H246580  -0.059   2.001  11.489 -0.9888  0.3240  0.9117
 8389TIP3   OH246581   4.449   0.527   0.229 -0.1425 -0.1454 -0.2063
 8389TIP3    H146582   4.387   0.597   0.209  0.1466 -0.7307 -3.7297
 8389TIP3    H246583   4.466   0.537   0.323 -2.8653  2.1800  0.1958
 8390TIP3   OH246584   0.122   5.720  15.576 -0.1366 -0.4055  0.2248
 8390TIP3    H146585   0.082   5.654  15.519 -0.1631  1.3876 -1.9759
 8390TIP3    H246586   0.062   5.794  15.573  1.3899  0.8786  0.0814
 8391TIP3   OH246587   1.962   4.641  15.957 -0.2383  0.2783  0.2703
 8391TIP3    H146588   1.973   4.563  15.903  0.5060  1.0016 -0.6467
 8391TIP3    H246589   1.948   4.712  15.894  1.7665  1.3370  0.9284
 8392TIP3   OH246590   5.070   5.569   1.926 -0.2031  0.4008  0.0947
 8392TIP3    H146591   4.996   5.511   1.905  1.2949 -1.6250  0.1006
 8392TIP3    H246592   5.068   5.636   1.858 -0.8354 -0.8045 -1.1217
 8393TIP3   OH246593   4.747   5.314   2.205 -0.5353  0.1664 -0.5809
 8393TIP3    H146594   4.748   5.220   2.188 -1.7062  0.3224 -1.5610
 8393TIP3    H246595   4.685   5.325   2.277 -0.1576  0.1713 -0.2481
 8394TIP3   OH246596   1.397   3.155  15.936  0.1399  0.1779  0.7331
 8394TIP3    H146597   1.352   3.154  16.020  0.2279 -0.8581  0.7819
 8394TIP3    H246598   1.331   3.185  15.873  0.1213  1.1218  1.1836
 8395TIP3   OH246599   4.947   3.689  16.471  0.3117  0.1452 -0.2323
 8395TIP3    H146600   4.868   3.691  16.418 -0.6822  1.8998  1.1799
 8395TIP3    H246601   5.002   3.760  16.436  0.9363 -0.5443 -0.6924
 8396TIP3   OH246602   2.208   2.782   2.600  0.0650  0.6664 -0.1515
 8396TIP3    H146603   2.152   2.751   2.529  1.3632  0.0795 -0.9698
 8396TIP3    H246604   2.226   2.874   2.577  2.2771 -0.1088 -1.8750
 8397TIP3   OH246605   6.361   3.199  12.028  0.4450  0.5112 -0.0517
 8397TIP3    H146606   6.274   3.164  12.048  0.8884 -0.8454 -0.3897
 8397TIP3    H246607   6.410   3.190  12.110  0.3075  1.1615  0.1049
 8398TIP3   OH246608   2.442   3.589   2.418 -0.0059 -0.4124 -0.1592
 8398TIP3    H146609   2.522   3.622   2.459  0.0092 -1.4817  0.7284
 8398TIP3    H246610   2.465   3.574   2.326  0.7797 -0.5880  0.0651
 8399TIP3   OH246611   4.599   5.493  12.161  0.0052  0.3174  0.1444
 8399TIP3    H146612   4.570   5.576  12.198  2.1175  1.2497 -0.1420
 8399TIP3    H246613   4.680   5.473  12.208  1.4713  0.3085 -2.2067
 8400TIP3   OH246614   6.703   6.480   2.009  0.2567 -0.2582  0.5723
 8400TIP3    H146615   6.617   6.459   1.972  0.2453 -2.0276  1.5272
 8400TIP3    H246616   6.717   6.414   2.077  2.9991 -0.9349 -0.5236
 8401TIP3   OH246617   6.292   3.184  10.718 -0.7414 -0.6154  0.1880
 8401TIP3    H146618   6.328   3.254  10.664 -3.0140  0.9163  0.4795
 8401TIP3    H246619   6.363   3.121  10.728  1.1305  1.2250 -0.8308
 8402TIP3   OH246620   3.801   5.972   4.628  0.3493 -0.0344  0.6751
 8402TIP3    H146621   3.749   5.906   4.673 -1.5955  1.0309  0.0994
 8402TIP3    H246622   3.739   6.043   4.608  2.0137  1.2867 -0.0988
 8403TIP3   OH246623   5.181   5.107   5.993 -0.5325  0.0450 -0.3580
 8403TIP3    H146624   5.158   5.178   6.053  0.3996  1.1142 -1.2065
 8403TIP3    H246625   5.235   5.048   6.045 -1.0523  0.1151  0.2762
 8404TIP3   OH246626   6.734   1.303  13.042 -0.7511  0.2326 -0.5447
 8404TIP3    H146627   6.666   1.275  13.102  0.2283 -0.7940  0.1152
 8404TIP3    H246628   6.768   1.384  13.080  0.4463 -0.8488  0.8052
 8405TIP3   OH246629   3.479   1.775  15.158 -0.1804  0.3534 -0.0067
 8405TIP3    H146630   3.395   1.736  15.184 -0.8279 -0.5902 -3.0524
 8405TIP3    H246631   3.491   1.747  15.067  2.4703  2.1693 -0.3316
 8406TIP3   OH246632   3.175   4.713   3.829 -0.0964  0.1547 -0.2860
 8406TIP3    H146633   3.156   4.780   3.764 -2.2335  1.0029  1.0816
 8406TIP3    H246634   3.252   4.746   3.876 -0.3800  1.0729 -0.4352
 8407TIP3   OH246635   1.594   0.044  10.991  0.0918 -0.2189  0.1633
 8407TIP3    H146636   1.534   0.018  10.921 -0.7048  0.6163  0.5126
 8407TIP3    H246637   1.536   0.067  11.064  0.8625  0.1037  0.6827
 8408TIP3   OH246638   1.832   6.556   5.014  0.6701 -0.2090  0.6450
 8408TIP3    H146639   1.737   6.556   5.026  0.6412  0.2201  0.4252
 8408TIP3    H246640   1.863   6.626   5.072  0.7014  0.6945 -0.4440
 8409TIP3   OH246641   5.500   0.768  12.621  0.2079  0.2380  0.4034
 8409TIP3    H146642   5.523   0.698  12.560  0.3578  0.3749  0.3014
 8409TIP3    H246643   5.552   0.751  12.699  0.3860  0.3393  0.3092
 8410TIP3   OH246644   3.945   6.747  14.752 -0.2315  0.3077  0.0413
 8410TIP3    H146645   3.899   6.761  14.835 -0.1521  0.2811  0.0897
 8410TIP3    H246646   3.951   6.834  14.714 -0.6512  0.2631 -0.1403
 8411TIP3   OH246647   6.668   1.034   5.722 -0.5594  0.1308 -0.1486
 8411TIP3    H146648   6.741   1.096   5.711 -0.6337  0.0625 -1.1442
 8411TIP3    H246649   6.703   0.950   5.692 -0.8261 -0.0564  0.0618
 8412TIP3   OH246650   5.078   2.245   2.087  0.3464  0.4615  0.5869
 8412TIP3    H146651   5.121   2.299   2.153  0.0297  1.9978 -0.4043
 8412TIP3    H246652   5.119   2.271   2.005  0.1504 -0.8108  0.0584
 8413TIP3   OH246653   6.655   3.141   1.448 -0.5621 -1.0144  0.1409
 8413TIP3    H146654   6.567   3.144   1.486 -1.0880  0.4791 -1.1080
 8413TIP3    H246655   6.643   3.097   1.363 -0.5487  1.0659 -1.0000
 8414TIP3   OH246656   3.049   6.064   4.575  0.3941  0.8295  0.1920
 8414TIP3    H146657   2.964   6.030   4.547  0.4653  0.2444  0.6686
 8414TIP3    H246658   3.055   6.042   4.668  1.4369  0.0687 -0.0293
 8415TIP3   OH246659   5.193   0.221  14.966  0.4644  0.0624 -0.1723
 8415TIP3    H146660   5.176   0.143  14.912 -1.2029 -0.2506  0.7733
 8415TIP3    H246661   5.288   0.220  14.978  0.4727 -1.9686  0.0101
 8416TIP3   OH246662   1.526   3.925   2.608 -0.1039  0.4609  0.3763
 8416TIP3    H146663   1.597   3.989   2.598 -0.4990  0.9582  0.7226
 8416TIP3    H246664   1.515   3.916   2.703  0.1520 -0.3552  0.3353
 8417TIP3   OH246665   5.037   0.021   2.876  0.4104  0.0715  0.6570
 8417TIP3    H146666   4.957   0.071   2.895  0.9068  3.0322 -3.5422
 8417TIP3    H246667   5.008  -0.046   2.814  0.9825  0.8098 -0.4493
 8418TIP3   OH246668   1.818   6.316  16.494 -0.5670 -0.0506  0.3229
 8418TIP3    H146669   1.745   6.349  16.441 -1.9813 -1.7438  1.1116
 8418TIP3    H246670   1.779   6.248  16.549  1.6387 -1.0880  0.7226
 8419TIP3   OH246671   5.962   3.466   3.026  0.2239  0.6266  0.1192
 8419TIP3    H146672   5.968   3.502   2.937 -1.3048  0.1366 -0.2148
 8419TIP3    H246673   6.038   3.502   3.072  1.9935 -0.4025 -1.8239
 8420TIP3   OH246674   4.963   5.178  17.125  0.1189  0.2510  0.2809
 8420TIP3    H146675   4.869   5.173  17.108 -0.1915  0.5862  1.7747
 8420TIP3    H246676   4.970   5.210  17.215  1.6602 -0.5331  0.4788
 8421TIP3   OH246677   6.654   4.044   0.530  0.1731  0.4264 -0.6084
 8421TIP3    H146678   6.633   3.963   0.482 -1.2556  0.9466 -0.9184
 8421TIP3    H246679   6.710   4.092   0.470  2.6211 -1.0976  0.3186
 8422TIP3   OH246680   2.527   6.549   0.660  0.1955  0.3464 -0.4363
 8422TIP3    H146681   2.551   6.514   0.745 -0.3851  2.4412  0.6669
 8422TIP3    H246682   2.603   6.601   0.633 -0.5401  1.7320  0.0371
 8423TIP3   OH246683   6.353   3.502   3.691 -0.1762 -0.5719  0.1371
 8423TIP3    H146684   6.432   3.472   3.647 -0.8447 -1.7651 -0.3200
 8423TIP3    H246685   6.331   3.585   3.648  1.6164  0.5448  1.2839
 8424TIP3   OH246686   2.306   5.012   4.404  0.1727 -0.6082 -0.4323
 8424TIP3    H146687   2.254   5.013   4.484  2.3015 -1.0578  1.0426
 8424TIP3    H246688   2.294   4.924   4.368 -1.2277 -0.2275 -0.9468
 8425TIP3   OH246689   1.549   3.262  12.194 -0.1156  0.8936  0.0991
 8425TIP3    H146690   1.555   3.311  12.112 -1.4636  0.9570  0.0222
 8425TIP3    H246691   1.622   3.199  12.189 -0.2955  0.7574 -1.2439
 8426TIP3   OH246692   4.980   1.245  12.993 -0.1022 -0.2838 -0.0129
 8426TIP3    H146693   4.900   1.213  12.950 -0.6379  1.7025 -0.5745
 8426TIP3    H246694   5.032   1.284  12.923  0.6489 -0.1465  0.6030
 8427TIP3   OH246695   0.552   5.844   0.219  0.7916  0.4025  0.4502
 8427TIP3    H146696   0.588   5.764   0.181 -0.3785 -0.4509  1.0916
 8427TIP3    H246697   0.491   5.877   0.153  0.5085  0.2116  0.6196
 8428TIP3   OH246698   1.901   4.913  10.636  0.3146  0.3086  0.0172
 8428TIP3    H146699   1.863   4.999  10.618 -2.4922 -0.9665 -0.7798
 8428TIP3    H246700   1.985   4.913  10.589  1.0224  2.9965  1.1143
 8429TIP3   OH246701   3.325   3.452  10.479 -0.0357 -0.6577  0.4156
 8429TIP3    H146702   3.355   3.505  10.552 -0.0074 -0.6798  0.4204
 8429TIP3    H246703   3.236   3.482  10.462  0.6942  0.8442 -0.9434
 8430TIP3   OH246704   4.953   5.545  12.558  0.1534  0.0291  0.0934
 8430TIP3    H146705   4.898   5.609  12.602  0.2193 -0.5476  1.0444
 8430TIP3    H246706   4.996   5.498  12.629 -0.1113 -1.2655 -0.5742
 8431TIP3   OH246707   0.754   6.602   2.038 -0.8493 -0.1853  0.1206
 8431TIP3    H146708   0.756   6.526   1.980  0.3725 -1.2089  1.4178
 8431TIP3    H246709   0.771   6.566   2.125  0.4711  1.6373  0.6808
 8432TIP3   OH246710   2.082   2.706   0.705  0.0365  0.4590  0.2414
 8432TIP3    H146711   2.169   2.671   0.725  0.1435  0.6014  0.0294
 8432TIP3    H246712   2.029   2.628   0.686  0.5552  0.4545 -1.3347
 8433TIP3   OH246713   3.873   2.850  16.826 -0.4373 -0.2639  0.5574
 8433TIP3    H146714   3.935   2.801  16.771 -0.6444 -0.4691  0.5018
 8433TIP3    H246715   3.899   2.941  16.815  0.4002 -0.4101  1.2118
 8434TIP3   OH246716   4.391   1.803  10.019  0.0843 -0.2413  0.1991
 8434TIP3    H146717   4.370   1.749  10.095  0.9704 -1.3502 -0.3082
 8434TIP3    H246718   4.487   1.805  10.017  0.0729 -0.0828 -0.7743
 8435TIP3   OH246719   4.414   2.396   0.270  0.0084  0.3803  0.3825
 8435TIP3    H146720   4.481   2.334   0.296 -0.4951 -0.5726 -0.4793
 8435TIP3    H246721   4.403   2.454   0.345  2.5851  1.3096  0.1505
 8436TIP3   OH246722   1.385   0.743   0.805 -0.0968 -0.2567 -0.4322
 8436TIP3    H146723   1.355   0.660   0.768  0.3048 -0.7318  0.2890
 8436TIP3    H246724   1.469   0.722   0.845  0.1003  0.5468 -0.4209
 8437TIP3   OH246725   0.900   2.040   3.301 -0.6292  0.1620  0.1100
 8437TIP3    H146726   0.966   2.110   3.305 -0.7879  0.2638  1.0711
 8437TIP3    H246727   0.863   2.036   3.389 -0.7837 -0.9852  0.0101
 8438TIP3   OH246728   4.353   4.022  14.100  0.2432 -0.4768 -0.0705
 8438TIP3    H146729   4.293   4.095  14.116  1.0060  0.0315  0.5301
 8438TIP3    H246730   4.439   4.056  14.123  0.7030 -1.3526 -0.4559
 8439TIP3   OH246731   2.206   4.251  13.228  0.3342  0.1285  0.0841
 8439TIP3    H146732   2.290   4.211  13.205 -0.2405 -0.4299 -1.1504
 8439TIP3    H246733   2.173   4.197  13.299  0.5646 -0.2607 -0.1002
 8440TIP3   OH246734   2.875   3.150  15.388  0.1505 -0.5455  0.6837
 8440TIP3    H146735   2.912   3.154  15.299 -1.5280 -1.0453 -0.0899
 8440TIP3    H246736   2.797   3.096  15.378  1.1444 -2.5763  2.9376
 8441TIP3   OH246737   3.728   4.367   3.661 -0.0116 -0.0346 -0.0903
 8441TIP3    H146738   3.634   4.384   3.651  0.2178  0.8652 -0.8880
 8441TIP3    H246739   3.736   4.322   3.745 -1.1014  0.3876  0.2512
 8442TIP3   OH246740   1.843   1.252   6.643  0.7615  0.1061 -0.1116
 8442TIP3    H146741   1.831   1.240   6.737  2.6085  0.7146  0.2307
 8442TIP3    H246742   1.840   1.163   6.607 -0.4187 -0.1001  0.4221
 8443TIP3   OH246743   5.003   0.536   1.408  0.2880  0.1903  0.3310
 8443TIP3    H146744   5.084   0.561   1.362 -0.6712  0.7992 -1.0920
 8443TIP3    H246745   4.940   0.603   1.383 -1.2086 -1.3434 -0.1927
 8444TIP3   OH246746   1.994   3.661   0.349 -0.5058  0.8813  0.0090
 8444TIP3    H146747   2.045   3.638   0.427  2.6331  0.9978 -1.8061
 8444TIP3    H246748   1.975   3.754   0.359  1.4597  1.3396 -0.0915
 8445TIP3   OH246749   3.167   1.333   5.624  0.0921  0.0557 -0.2454
 8445TIP3    H146750   3.179   1.323   5.718 -1.0865 -2.7582 -0.3096
 8445TIP3    H246751   3.249   1.301   5.586  0.6788  1.4545 -0.2205
 8446TIP3   OH246752   5.107   5.501  16.857 -1.0905  0.0106  0.1959
 8446TIP3    H146753   5.142   5.448  16.786 -0.3768 -1.5143  1.6107
 8446TIP3    H246754   5.016   5.473  16.865 -1.1108  0.0256  0.0074
 8447TIP3   OH246755   2.926   0.433  16.467  0.3479 -0.0914  0.5200
 8447TIP3    H146756   2.976   0.487  16.406 -1.0130  0.1871 -0.3743
 8447TIP3    H246757   2.853   0.399  16.416 -0.9014  0.2295  2.0104
 8448TIP3   OH246758   5.654   5.105   4.404  0.2886 -0.2430 -0.0550
 8448TIP3    H146759   5.742   5.082   4.375 -0.3383 -0.7652 -1.6769
 8448TIP3    H246760   5.628   5.177   4.347 -1.0440 -1.3928 -0.9883
 8449TIP3   OH246761   0.763   1.658   2.819 -0.6031  0.2089  0.1405
 8449TIP3    H146762   0.771   1.674   2.913  1.0383  0.0315  0.0606
 8449TIP3    H246763   0.845   1.616   2.795 -2.0219 -2.1693 -0.9073
 8450TIP3   OH246764   5.539   1.354   6.059  0.3774 -0.5455  0.0679
 8450TIP3    H146765   5.631   1.356   6.034  0.3625  1.2148  0.0258
 8450TIP3    H246766   5.524   1.438   6.103 -1.3203 -0.5694 -0.3917
 8451TIP3   OH246767   4.063   5.419  12.024 -0.1629  0.4669 -0.7151
 8451TIP3    H146768   4.104   5.505  12.035 -0.9542  0.7465  0.2113
 8451TIP3    H246769   4.095   5.367  12.097 -1.0092  0.5159 -0.2968
 8452TIP3   OH246770   5.547   0.154  15.552 -0.3415  0.0457  0.2029
 8452TIP3    H146771   5.638   0.170  15.527 -0.1594 -0.3321  0.6087
 8452TIP3    H246772   5.521   0.080  15.498 -0.2383 -0.1868  0.4719
 8453TIP3   OH246773   4.060   6.785   6.570 -0.2124 -0.3629 -0.2747
 8453TIP3    H146774   3.991   6.794   6.637 -0.3646 -4.4966  0.3775
 8453TIP3    H246775   4.141   6.794   6.619 -0.2993 -0.5187 -0.1020
 8454TIP3   OH246776   2.346   1.289  13.899 -1.0700  0.4580  0.0213
 8454TIP3    H146777   2.397   1.230  13.955  0.2219  1.4220 -0.0958
 8454TIP3    H246778   2.283   1.231  13.855 -2.0726 -0.3401  2.3380
 8455TIP3   OH246779   1.608   4.453  11.413 -0.5889  0.4531 -0.2726
 8455TIP3    H146780   1.597   4.536  11.365  0.4083  0.3665 -0.6697
 8455TIP3    H246781   1.539   4.455  11.479 -1.6523  0.8382 -1.3506
 8456TIP3   OH246782   0.778   5.378   2.404  0.2658 -0.4522 -0.7666
 8456TIP3    H146783   0.753   5.302   2.457  1.2617 -0.7870 -0.7542
 8456TIP3    H246784   0.753   5.454   2.457  0.5041 -0.7806 -0.1754
 8457TIP3   OH246785   4.390   4.779  16.264 -0.0316 -0.2986 -0.4997
 8457TIP3    H146786   4.315   4.729  16.232 -0.1111  0.4871 -1.5677
 8457TIP3    H246787   4.441   4.800  16.186  1.4914 -1.0725  0.2313
 8458TIP3   OH246788   0.093   2.942  10.837  0.0352  0.1709  0.1445
 8458TIP3    H146789   0.044   2.904  10.910 -0.8156 -0.1467 -0.5663
 8458TIP3    H246790   0.164   2.881  10.821 -1.0740 -0.9328 -0.7117
 8459TIP3   OH246791   5.684   0.475  15.941  0.1987  0.0193  0.2215
 8459TIP3    H146792   5.728   0.415  16.002 -0.1547  0.4235  0.8884
 8459TIP3    H246793   5.604   0.428  15.915  0.2874 -0.1009  0.1637
 8460TIP3   OH246794   3.745   4.035  15.450 -0.0575 -0.4901 -0.2448
 8460TIP3    H146795   3.765   4.070  15.537  2.9469  1.9981 -1.7084
 8460TIP3    H246796   3.812   3.968  15.436  1.8736  1.5571 -1.7679
 8461TIP3   OH246797   1.171   5.948  16.840  0.0215 -0.0067  0.0904
 8461TIP3    H146798   1.195   5.988  16.756  0.2392  0.5319  0.4085
 8461TIP3    H246799   1.165   6.021  16.901 -1.2676 -0.2658  0.2936
 8462TIP3   OH246800   4.775   2.667   4.430 -0.6033 -0.0206 -0.5107
 8462TIP3    H146801   4.863   2.663   4.467 -0.3419 -1.3804 -1.2222
 8462TIP3    H246802   4.788   2.696   4.340 -1.1422  2.2051  0.0656
 8463TIP3   OH246803   6.643   0.404  14.440  0.6226  0.2341  0.1066
 8463TIP3    H146804   6.624   0.497  14.424 -0.5412  0.1626  0.9245
 8463TIP3    H246805   6.651   0.366  14.353  2.2072  1.2864 -0.2625
 8464TIP3   OH246806   4.502   6.159  15.417  0.2498  0.0313  0.0969
 8464TIP3    H146807   4.584   6.132  15.375 -1.1307 -0.4463 -2.4586
 8464TIP3    H246808   4.483   6.245  15.381 -0.6568 -0.1015  0.2305
 8465TIP3   OH246809   5.710   0.006  13.832  0.1639  0.5316  0.6253
 8465TIP3    H146810   5.725   0.100  13.823 -0.3297  0.4640 -1.2839
 8465TIP3    H246811   5.721  -0.011  13.926  0.8723  2.3704  0.9211
 8466TIP3   OH246812   3.781   5.295  16.641 -0.0643  0.4550 -0.2646
 8466TIP3    H146813   3.752   5.315  16.730  1.8928  0.1570  0.4943
 8466TIP3    H246814   3.701   5.268  16.595 -1.1104  0.5844  1.3992
 8467TIP3   OH246815   6.402   0.941  14.737 -0.0339  0.0614  0.1710
 8467TIP3    H146816   6.470   0.976  14.795  1.0033 -2.0033  0.3051
 8467TIP3    H246817   6.327   0.926  14.795 -0.7553  2.4945 -0.0043
 8468TIP3   OH246818   2.944   2.499   1.445 -0.0222  0.1887 -0.2144
 8468TIP3    H146819   2.960   2.593   1.438 -0.6810  0.3719  0.5808
 8468TIP3    H246820   3.016   2.467   1.498 -0.4492  0.4566  0.5428
 8469TIP3   OH246821   3.108   1.991  12.649  0.3423  0.5313 -0.0980
 8469TIP3    H146822   3.146   1.952  12.728  1.4229 -1.0744 -1.3269
 8469TIP3    H246823   3.017   1.962  12.649  0.9220 -1.4694 -0.5742
 8470TIP3   OH246824   3.064   2.454   6.165  0.3848  0.1772  0.1694
 8470TIP3    H146825   3.113   2.413   6.236  1.8570 -2.3112 -2.0825
 8470TIP3    H246826   3.126   2.517   6.127 -0.1948  1.0843  0.6995
 8471TIP3   OH246827   6.135   3.695   0.756 -0.2314 -0.1436 -0.1418
 8471TIP3    H146828   6.203   3.705   0.689 -0.0139 -2.9257 -0.4506
 8471TIP3    H246829   6.165   3.749   0.829 -0.2142  2.5721 -2.0148
 8472TIP3   OH246830   0.249   5.211  13.316  0.2809 -0.0815 -0.1287
 8472TIP3    H146831   0.233   5.278  13.249 -3.8343 -0.5101  0.2112
 8472TIP3    H246832   0.301   5.145  13.272  0.8696  1.3626 -1.7183
 8473TIP3   OH246833   1.068   1.993  16.711 -0.0724  0.4593 -0.2193
 8473TIP3    H146834   1.094   1.915  16.663 -2.1806 -0.5660  0.2048
 8473TIP3    H246835   1.096   1.978  16.801 -1.2199 -0.2139  0.0382
 8474TIP3   OH246836   3.870   1.334   2.147  0.2330  1.2217 -0.4429
 8474TIP3    H146837   3.917   1.317   2.065  0.0461 -3.1793  0.1254
 8474TIP3    H246838   3.804   1.400   2.124  0.2403  0.2228 -3.8276
 8475TIP3   OH246839   3.044   5.116   4.028 -0.3751  0.8981  0.5688
 8475TIP3    H146840   3.066   5.187   3.968  1.0619 -0.0671 -0.1149
 8475TIP3    H246841   3.025   5.159   4.111 -0.2451  2.1187 -0.0176
 8476TIP3   OH246842   2.141   2.710  11.603  0.9986  0.3778 -0.2217
 8476TIP3    H146843   2.088   2.741  11.530  0.1570 -0.2447  0.0979
 8476TIP3    H246844   2.226   2.752  11.592  1.2412 -0.5071 -2.1395
 8477TIP3   OH246845   0.461   4.926  14.843 -0.2381  0.5871 -0.4092
 8477TIP3    H146846   0.453   4.836  14.813 -0.7922  0.7615 -0.8047
 8477TIP3    H246847   0.406   4.976  14.782 -0.7861  1.0530  0.4476
 8478TIP3   OH246848   6.021   2.600   4.419  0.7357 -0.2281 -0.5349
 8478TIP3    H146849   6.114   2.620   4.432  0.9413 -0.7555 -1.1640
 8478TIP3    H246850   6.021   2.518   4.371 -0.0783 -0.7714  0.3753
 8479TIP3   OH246851   5.580   2.067   0.181  0.1004  0.3200  0.2636
 8479TIP3    H146852   5.654   2.022   0.221  0.9282 -0.5871 -2.0977
 8479TIP3    H246853   5.564   2.019   0.100 -1.5618  1.9416 -0.4511
 8480TIP3   OH246854   3.486   1.744   0.462 -0.4081  0.8326  0.0283
 8480TIP3    H146855   3.484   1.791   0.545 -2.3497 -0.4362  0.7846
 8480TIP3    H246856   3.466   1.653   0.486 -0.1048  0.2644 -1.7271
 8481TIP3   OH246857   3.882   4.925  14.899  0.6599 -0.1308 -0.0112
 8481TIP3    H146858   3.970   4.963  14.902  0.2402  0.8456  0.4734
 8481TIP3    H246859   3.887   4.858  14.831  1.8300 -0.2358  0.1527
 8482TIP3   OH246860   0.900   1.232   0.512 -0.2504  0.2175 -0.2746
 8482TIP3    H146861   0.859   1.151   0.482 -1.4297  0.7614 -0.1604
 8482TIP3    H246862   0.930   1.275   0.431 -1.7253  0.7721 -0.5518
 8483TIP3   OH246863   5.739   0.096   0.407 -0.2116 -0.0491  1.2015
 8483TIP3    H146864   5.752   0.014   0.455 -0.5912  0.3273  1.9630
 8483TIP3    H246865   5.651   0.125   0.432  0.4257  1.2882  2.0378
 8484TIP3   OH246866   4.903   5.018   4.190  0.3425 -0.7516  0.5473
 8484TIP3    H146867   4.967   5.034   4.121 -0.5270  0.6032 -0.0027
 8484TIP3    H246868   4.927   5.079   4.260  0.1364 -0.8210  0.6806
 8485TIP3   OH246869   1.595   3.817  11.154  0.1377 -0.3141  0.4263
 8485TIP3    H146870   1.548   3.758  11.096  1.1747 -1.4803  0.7212
 8485TIP3    H246871   1.550   3.900  11.146  1.1841  0.0778 -3.2944
 8486TIP3   OH246872   1.547   0.427   4.269  0.1776 -0.2446 -0.3313
 8486TIP3    H146873   1.577   0.347   4.226 -0.6089 -0.0771 -1.2271
 8486TIP3    H246874   1.512   0.481   4.199 -3.2800 -0.9118  0.6660
 8487TIP3   OH246875   3.667   2.522   4.040  0.0255 -0.2448  0.1926
 8487TIP3    H146876   3.580   2.538   4.004 -0.0194 -0.6137  0.1288
 8487TIP3    H246877   3.680   2.590   4.106  0.2256  0.6179 -0.7234
 8488TIP3   OH246878   5.862   5.603  16.143 -0.1680 -0.2291  0.6586
 8488TIP3    H146879   5.773   5.582  16.173 -0.5666 -1.7619 -1.3181
 8488TIP3    H246880   5.902   5.517  16.128  0.7093  0.4258 -0.9383
 8489TIP3   OH246881   1.393   5.948   1.406  0.5157 -0.0789  0.3667
 8489TIP3    H146882   1.352   5.868   1.438  2.7454 -1.8174 -0.7900
 8489TIP3    H246883   1.333   5.981   1.340 -0.1351 -1.1631  0.3892
 8490TIP3   OH246884   3.808   3.629  14.702  0.1150 -0.1381 -0.0964
 8490TIP3    H146885   3.756   3.699  14.739 -0.8985 -0.3967 -0.9777
 8490TIP3    H246886   3.840   3.664  14.619  3.1488  0.7847  1.3272
 8491TIP3   OH246887   4.450   1.475  12.407  0.0143  0.6934  0.1011
 8491TIP3    H146888   4.519   1.450  12.468  0.2546  1.4507  0.1567
 8491TIP3    H246889   4.443   1.401  12.347  0.5248  0.3936  0.4003
 8492TIP3   OH246890   4.383   4.384  16.733  0.1668  0.2993  0.2765
 8492TIP3    H146891   4.411   4.446  16.666 -2.8690 -0.7867 -2.2122
 8492TIP3    H246892   4.325   4.435  16.790 -1.9472  0.0225 -1.4913
 8493TIP3   OH246893   5.787   0.767  16.056  0.0410 -0.2451  0.1023
 8493TIP3    H146894   5.782   0.703  15.986  1.9313 -0.2474 -0.0850
 8493TIP3    H246895   5.714   0.827  16.040 -1.0476 -1.6717 -0.3856
 8494TIP3   OH246896   4.008   3.224  13.696  0.1671  0.5295 -0.4464
 8494TIP3    H146897   3.957   3.228  13.777  1.0392  0.1676  0.1445
 8494TIP3    H246898   4.099   3.225  13.726  0.5279 -1.7708 -1.2810
 8495TIP3   OH246899   0.261   1.134   2.096  0.3757  0.2838  0.0054
 8495TIP3    H146900   0.298   1.221   2.081 -1.1979  1.5019  2.4738
 8495TIP3    H246901   0.303   1.104   2.177 -0.4150 -0.4483  0.1596
 8496TIP3   OH246902   0.156   3.632  16.264  0.2749  0.1085 -0.1710
 8496TIP3    H146903   0.158   3.537  16.257 -1.7681 -0.1717  1.8031
 8496TIP3    H246904   0.091   3.660  16.200  0.0154  0.0635  0.0743
 8497TIP3   OH246905   4.363   4.396  15.929 -0.0532  0.0957  0.1140
 8497TIP3    H146906   4.450   4.410  15.890 -0.0459  0.1322  0.1428
 8497TIP3    H246907   4.302   4.409  15.856 -0.1023  1.1853  0.3363
 8498TIP3   OH246908   1.208   5.782   3.437 -0.0864 -0.2733 -0.8444
 8498TIP3    H146909   1.264   5.705   3.438  0.5776  0.1989 -0.8260
 8498TIP3    H246910   1.119   5.748   3.449  0.2405 -0.9942 -0.4263
 8499TIP3   OH246911   4.478   3.574   4.870  0.1662  0.5961 -0.6224
 8499TIP3    H146912   4.539   3.631   4.917 -0.1143 -0.4294  1.0584
 8499TIP3    H246913   4.518   3.488   4.872 -0.9136  0.0850 -0.2734
 8500TIP3   OH246914   5.557   1.772  15.711  0.1882 -0.2691  0.9363
 8500TIP3    H146915   5.519   1.712  15.775  0.4106 -0.4240  0.9202
 8500TIP3    H246916   5.481   1.820  15.676  0.1444  0.3707  1.8746
 8501TIP3   OH246917   3.110   4.656  10.514  0.2624  0.4794 -0.2319
 8501TIP3    H146918   3.048   4.587  10.537 -0.2841  0.8872 -0.4473
 8501TIP3    H246919   3.110   4.657  10.418  1.3929 -0.2058 -0.2511
 8502TIP3   OH246920   6.239   2.687  14.329  0.6322  0.4850 -0.8895
 8502TIP3    H146921   6.247   2.607  14.276 -2.4322 -0.1503 -0.5486
 8502TIP3    H246922   6.155   2.678  14.375  1.1253  3.0142  0.7358
 8503TIP3   OH246923   6.176   6.582  14.846 -0.2788  0.3948  0.2268
 8503TIP3    H146924   6.137   6.569  14.759 -0.0164 -0.2406  0.1948
 8503TIP3    H246925   6.123   6.651  14.886 -1.4028 -0.4035  0.1637
 8504TIP3   OH246926   3.004   4.749  14.571  0.2883  0.8337 -0.0314
 8504TIP3    H146927   3.053   4.827  14.599  0.8143  0.0982  1.2482
 8504TIP3    H246928   2.931   4.744  14.633  1.1648 -0.5384  0.9518
 8505TIP3   OH246929   5.179   0.908  10.725  0.1951  0.5596  0.2983
 8505TIP3    H146930   5.207   0.816  10.729  1.4097  0.9516  1.3917
 8505TIP3    H246931   5.210   0.939  10.640 -1.7750 -0.4833 -0.8790
 8506TIP3   OH246932   1.503   3.128   5.522  0.2189 -0.5364  0.0435
 8506TIP3    H146933   1.543   3.086   5.599  0.2439  0.4146  0.5601
 8506TIP3    H246934   1.530   3.072   5.448  0.9059 -0.9850  0.6174
 8507TIP3   OH246935   5.364   5.624   1.215  0.2902  0.0761 -0.4302
 8507TIP3    H146936   5.375   5.719   1.226 -1.2606  0.3938 -1.3028
 8507TIP3    H246937   5.419   5.585   1.284  2.2624  1.5382 -1.0692
 8508TIP3   OH246938   4.562   4.280  15.514 -0.0466  0.0234  0.5784
 8508TIP3    H146939   4.513   4.247  15.439  3.0065 -1.7478 -0.8091
 8508TIP3    H246940   4.546   4.375  15.512 -1.5979 -0.2084 -1.0800
 8509TIP3   OH246941   5.535   2.376   0.732 -0.3522 -0.0276  0.3111
 8509TIP3    H146942   5.495   2.302   0.686 -1.9178  0.9688 -0.0314
 8509TIP3    H246943   5.537   2.446   0.667 -0.2639  0.6562  1.0298
 8510TIP3   OH246944   2.860   0.627   2.235  0.2281  0.2912 -0.2661
 8510TIP3    H146945   2.840   0.537   2.260 -1.0602  0.2494 -1.3262
 8510TIP3    H246946   2.776   0.664   2.207  0.8857  1.5433 -0.6762
 8511TIP3   OH246947   6.539   0.542  10.387 -0.3683  0.3629  0.2346
 8511TIP3    H146948   6.494   0.458  10.378  1.9991 -1.0656  0.8153
 8511TIP3    H246949   6.601   0.544  10.314  2.3578 -0.3249  2.3708
 8512TIP3   OH246950   6.486   3.107   3.231 -0.1975  0.9852 -0.2093
 8512TIP3    H146951   6.467   3.096   3.325  0.0524 -1.0850 -0.3567
 8512TIP3    H246952   6.410   3.068   3.187 -0.0940  1.5156 -0.8760
 8513TIP3   OH246953   1.824   3.358   0.026  0.2671  0.3944  0.0536
 8513TIP3    H146954   1.775   3.286   0.064  0.6816 -1.2013 -2.2338
 8513TIP3    H246955   1.916   3.335   0.041  0.3989  1.0054  0.2230
 8514TIP3   OH246956   3.953   1.668   4.156 -0.7213 -0.0988 -0.3032
 8514TIP3    H146957   3.886   1.702   4.097  0.1508  0.3130 -1.0788
 8514TIP3    H246958   3.960   1.575   4.135 -1.2598 -0.2085 -0.0035
 8515TIP3   OH246959   2.529   5.161   1.364 -0.7603  0.1267  0.2332
 8515TIP3    H146960   2.542   5.072   1.397 -1.1156 -0.6429 -1.5899
 8515TIP3    H246961   2.597   5.173   1.298  1.4845  2.5186  2.7191
 8516TIP3   OH246962   2.618   0.232   3.109 -0.8252 -0.0039  0.6032
 8516TIP3    H146963   2.522   0.234   3.111 -0.8407  0.2128  0.0208
 8516TIP3    H246964   2.641   0.297   3.042 -0.2956 -0.5818  0.2156
 8517TIP3   OH246965   5.571   3.251  10.989  0.0173  0.4830 -0.0477
 8517TIP3    H146966   5.525   3.187  10.935 -0.6729  0.2754  0.7668
 8517TIP3    H246967   5.509   3.324  10.998 -0.2092  0.1750  1.1062
 8518TIP3   OH246968   5.092   1.807   3.138  0.2611  0.4307 -0.3452
 8518TIP3    H146969   5.165   1.797   3.076  1.1695  0.2037  0.7242
 8518TIP3    H246970   5.087   1.723   3.183 -0.5392  0.5158 -0.2659
 8519TIP3   OH246971   2.889   3.907  14.551  0.1564 -0.2467 -0.7253
 8519TIP3    H146972   2.921   3.937  14.466  3.1179 -1.0743 -0.0391
 8519TIP3    H246973   2.869   3.814  14.537 -0.6068 -0.0762 -0.8007
 8520TIP3   OH246974   3.190   1.725  17.046 -0.0493  0.5825  0.1330
 8520TIP3    H146975   3.175   1.676  17.127 -1.1819  0.8386  0.0916
 8520TIP3    H246976   3.134   1.802  17.053 -0.6536  0.2983 -1.1564
 8521TIP3   OH246977   0.586   2.524  11.528  0.1841 -0.3469 -0.3434
 8521TIP3    H146978   0.664   2.570  11.560 -0.0815  1.4880 -2.2037
 8521TIP3    H246979   0.513   2.582  11.548 -0.4263 -0.9202 -0.8414
 8522TIP3   OH246980   1.101   5.230   3.705 -0.3454  0.2002 -0.3959
 8522TIP3    H146981   1.010   5.231   3.675 -0.2739  0.7081 -0.6101
 8522TIP3    H246982   1.128   5.139   3.697 -0.6647  0.1446 -0.8631
 8523TIP3   OH246983   4.865   5.018   1.246  1.0512  0.0234  0.5004
 8523TIP3    H146984   4.888   4.986   1.333 -0.3402  0.0879  0.9262
 8523TIP3    H246985   4.906   4.956   1.186  0.8366 -0.8697  1.2487
 8524TIP3   OH246986   4.795   2.227  15.086 -0.0547 -0.8037  0.0980
 8524TIP3    H146987   4.735   2.262  15.021 -0.2400 -0.7062  0.3193
 8524TIP3    H246988   4.779   2.280  15.165  1.4375  0.3110 -0.2877
 8525TIP3   OH246989   5.901   3.209  11.905  0.0569  0.7747  0.4924
 8525TIP3    H146990   5.884   3.117  11.921  1.4685  0.2494 -0.7494
 8525TIP3    H246991   5.867   3.226  11.817  1.8295  0.7997 -0.2355
 8526TIP3   OH246992   2.747   3.485  14.361  0.1666 -0.4595  0.0504
 8526TIP3    H146993   2.658   3.452  14.360  0.8739 -2.5972 -1.9302
 8526TIP3    H246994   2.785   3.451  14.442 -0.1842 -1.4842 -0.2037
 8527TIP3   OH246995   0.649   1.900   1.224 -0.2572  0.1311 -0.1795
 8527TIP3    H146996   0.664   1.872   1.133 -0.2036  2.7031 -1.0256
 8527TIP3    H246997   0.577   1.962   1.219 -1.2845 -0.7940  1.8046
 8528TIP3   OH246998   3.675   0.047   4.691 -0.3317 -0.3300 -0.5295
 8528TIP3    H146999   3.639  -0.040   4.709 -0.3424  0.0658  1.6677
 8528TIP3    H247000   3.739   0.061   4.761  0.5756  0.9407 -1.5685
 8529TIP3   OH247001   3.367   4.507  13.238  0.2316 -0.1477 -0.4258
 8529TIP3    H147002   3.443   4.457  13.207 -0.4013 -1.2906 -0.1999
 8529TIP3    H247003   3.346   4.566  13.165  1.5555  0.4693 -0.3429
 8530TIP3   OH247004   6.014   0.854   3.551  0.1780  0.0906 -0.1303
 8530TIP3    H147005   6.033   0.801   3.628  0.0003  0.1367 -0.0516
 8530TIP3    H247006   6.006   0.943   3.585 -2.4131 -0.2048  0.2350
 8531TIP3   OH247007   4.858   1.803  13.338  0.3903 -0.1216 -0.3524
 8531TIP3    H147008   4.951   1.783  13.328  0.4023 -0.4156  0.2584
 8531TIP3    H247009   4.852   1.840  13.426 -0.0326  0.1365 -0.4905
 8532TIP3   OH247010   0.363   5.293  16.263 -0.3948  0.0037 -0.2997
 8532TIP3    H147011   0.306   5.370  16.252  0.0075  0.3768  0.1556
 8532TIP3    H247012   0.337   5.234  16.193 -1.6136 -0.0022  0.1314
 8533TIP3   OH247013   0.048   6.382  15.927 -0.2298  0.2891  0.3847
 8533TIP3    H147014   0.002   6.466  15.936  0.1063  0.5008  0.1672
 8533TIP3    H247015   0.135   6.406  15.895  0.4759 -0.0051  2.0305
 8534TIP3   OH247016   2.879   5.928   1.697 -0.2783  0.9451  0.3687
 8534TIP3    H147017   2.971   5.918   1.719  0.5246 -3.2508 -3.4708
 8534TIP3    H247018   2.835   5.857   1.744 -0.6572  0.0321 -1.2785
 8535TIP3   OH247019   6.449   6.078   3.065 -0.0926  0.3826  0.4984
 8535TIP3    H147020   6.481   6.139   3.131 -2.0538  0.5152  1.3946
 8535TIP3    H247021   6.404   6.010   3.114 -0.5130 -0.1980 -0.6527
 8536TIP3   OH247022   5.957   6.259  16.837 -0.6327 -0.7846 -0.2578
 8536TIP3    H147023   5.894   6.279  16.906 -1.5732 -0.3377 -1.2295
 8536TIP3    H247024   5.983   6.344  16.801 -0.0685 -1.0043 -0.3978
 8537TIP3   OH247025   6.572   1.865  11.800  0.2923  0.2296  0.0649
 8537TIP3    H147026   6.536   1.791  11.849 -1.8104  0.9657 -0.2919
 8537TIP3    H247027   6.595   1.930  11.866  1.1637 -0.2927  0.3003
 8538TIP3   OH247028   2.425   2.619   6.130 -0.2431  0.4360 -0.1595
 8538TIP3    H147029   2.445   2.702   6.087 -0.1636  0.4122 -0.1683
 8538TIP3    H247030   2.442   2.636   6.223 -0.4554  0.4998 -0.1320
 8539TIP3   OH247031   1.030   1.938   5.758  0.3519 -0.8063 -0.3019
 8539TIP3    H147032   1.106   1.879   5.753  0.8544 -0.1710 -0.2825
 8539TIP3    H247033   0.956   1.884   5.729  0.9993 -1.0967 -1.4946
 8540TIP3   OH247034   1.136   3.661   3.088 -0.4152  0.0167 -0.5382
 8540TIP3    H147035   1.059   3.628   3.134 -0.4175 -0.0415 -0.5829
 8540TIP3    H247036   1.169   3.731   3.143 -0.3621 -0.1163 -0.3992
 8541TIP3   OH247037   4.436   4.806  14.071  0.3954  0.5992  0.7160
 8541TIP3    H147038   4.453   4.764  14.155  0.8404  0.0240  0.3470
 8541TIP3    H247039   4.358   4.762  14.037  2.1401 -1.6476 -0.7283
 8542TIP3   OH247040   6.703   2.883   1.754 -0.0755  0.1810  0.1341
 8542TIP3    H147041   6.628   2.857   1.700  0.1625  0.7424 -0.4852
 8542TIP3    H247042   6.698   2.827   1.831 -0.9826  0.0295 -0.0235
 8543TIP3   OH247043   3.847   3.777   3.731 -0.1031 -0.3957 -0.1911
 8543TIP3    H147044   3.891   3.801   3.649  1.4014 -0.0720  0.6769
 8543TIP3    H247045   3.792   3.702   3.708  0.1750 -0.2032 -1.5360
 8544TIP3   OH247046   6.638   2.416  12.871  0.2726  0.4499  0.4504
 8544TIP3    H147047   6.613   2.349  12.808 -1.3520 -0.9630  2.4807
 8544TIP3    H247048   6.578   2.489  12.853 -1.0680 -0.4501  1.1668
 8545TIP3   OH247049   1.781   4.587   2.393  0.2601  0.2209 -0.2401
 8545TIP3    H147050   1.778   4.633   2.478  0.5427  1.0430 -0.6578
 8545TIP3    H247051   1.866   4.612   2.356 -0.4123  0.9422 -1.3444
 8546TIP3   OH247052   5.475   0.445   1.409  0.0502  0.1880 -0.0878
 8546TIP3    H147053   5.409   0.387   1.447  0.5595 -0.8727 -0.8067
 8546TIP3    H247054   5.475   0.424   1.316  0.2705  1.3301 -0.3576
 8547TIP3   OH247055   4.476   1.052  13.123 -0.1372 -0.4541  0.5056
 8547TIP3    H147056   4.496   0.998  13.047 -0.0431 -0.3190  0.4350
 8547TIP3    H247057   4.561   1.080  13.157 -0.2102  0.8944 -0.3472
 8548TIP3   OH247058   2.039   2.963  13.670  0.3164 -0.0820 -0.1384
 8548TIP3    H147059   2.128   2.980  13.638  0.4632  0.8351  0.7436
 8548TIP3    H247060   2.029   3.019  13.746 -0.2669 -1.7482  1.0743
 8549TIP3   OH247061   5.497   1.375  12.600 -0.1290  0.2095 -0.1367
 8549TIP3    H147062   5.428   1.435  12.629  0.3331  1.5562 -1.6397
 8549TIP3    H247063   5.549   1.427  12.538  0.3429 -1.7353 -1.4710
 8550TIP3   OH247064   0.742   2.400   1.291  0.0464 -0.1144 -0.5814
 8550TIP3    H147065   0.712   2.380   1.202 -1.5725  1.7654 -0.5144
 8550TIP3    H247066   0.666   2.385   1.346  0.8044 -0.4464  0.4009
 8551TIP3   OH247067   4.085   2.726   0.173 -0.2969 -0.3598  0.1930
 8551TIP3    H147068   4.053   2.636   0.164 -0.4481 -0.1974 -1.0033
 8551TIP3    H247069   4.135   2.742   0.093 -0.2030  0.5920  0.4332
 8552TIP3   OH247070   4.204   0.688   5.810 -0.1005 -0.1606  0.4436
 8552TIP3    H147071   4.244   0.730   5.735  1.3562 -1.3701  0.4965
 8552TIP3    H247072   4.270   0.625   5.840 -1.3497 -0.9459  1.6442
 8553TIP3   OH247073   5.303   2.278  15.380  0.4618 -0.2811 -0.3027
 8553TIP3    H147074   5.213   2.297  15.354  0.6683  2.9853  0.9150
 8553TIP3    H247075   5.354   2.290  15.300  0.1108  0.8820 -0.3741
 8554TIP3   OH247076   1.462   0.472  12.098  0.3673 -0.6594  0.2441
 8554TIP3    H147077   1.548   0.440  12.071  0.3305 -0.3771 -0.2006
 8554TIP3    H247078   1.479   0.520  12.179  0.2122 -3.1624  1.8702
 8555TIP3   OH247079   1.089   0.287  16.810 -0.2701  0.2797 -0.1038
 8555TIP3    H147080   1.010   0.305  16.860 -0.7055 -1.6482 -0.0188
 8555TIP3    H247081   1.159   0.329  16.859 -1.0929  1.0985  0.3979
 8556TIP3   OH247082   0.168   0.435   4.004  0.2072 -0.7860  0.6245
 8556TIP3    H147083   0.192   0.345   3.981  2.5809 -0.6234  2.1412
 8556TIP3    H247084   0.242   0.488   3.974 -1.4240  0.8139 -0.8343
 8557TIP3   OH247085   1.428   6.179   5.024 -0.0620  0.1980 -0.0996
 8557TIP3    H147086   1.478   6.223   4.956  0.9468  0.5715  0.8614
 8557TIP3    H247087   1.404   6.094   4.985  0.3533  0.4720 -0.9690
 8558TIP3   OH247088   5.632   0.105   0.992  0.2132 -0.6198  0.1998
 8558TIP3    H147089   5.611   0.041   0.925  0.7654  0.0792 -0.6591
 8558TIP3    H247090   5.716   0.141   0.966 -0.9408  1.8348 -0.4432
 8559TIP3   OH247091   3.879   0.986  17.023  1.2749  0.1042 -0.2706
 8559TIP3    H147092   3.920   0.981  17.109  1.6103  1.0766 -0.3583
 8559TIP3    H247093   3.796   1.031  17.038  1.0681 -0.2352 -0.3754
 8560TIP3   OH247094   0.640   4.939  11.138 -0.1171  0.1187 -0.0610
 8560TIP3    H147095   0.732   4.958  11.157 -0.1713  0.1324  0.1936
 8560TIP3    H247096   0.642   4.859  11.086  0.1848  1.3981 -2.1180
 8561TIP3   OH247097   0.648   2.601  11.929 -0.4958  0.3337 -0.5449
 8561TIP3    H147098   0.689   2.604  11.842 -0.1244 -0.8499 -0.4264
 8561TIP3    H247099   0.560   2.567  11.913 -0.9388  1.4735 -0.6176
 8562TIP3   OH247100   0.334   2.252  11.123  0.8818 -0.3247  0.7292
 8562TIP3    H147101   0.379   2.318  11.175 -1.3392  0.9318  1.2002
 8562TIP3    H247102   0.272   2.212  11.184 -0.3056 -0.2978 -0.4200
 8563TIP3   OH247103   4.421   1.032  11.436 -0.1189  0.1395 -0.0421
 8563TIP3    H147104   4.399   0.982  11.358  0.9684 -1.1649  0.4401
 8563TIP3    H247105   4.376   0.986  11.507  0.7835 -0.0874  0.3908
 8564TIP3   OH247106   0.808   0.957  14.057  0.4848  0.2057 -0.6882
 8564TIP3    H147107   0.812   0.866  14.085  0.0150  0.4193  0.0941
 8564TIP3    H247108   0.800   1.007  14.138  0.4734  0.9289 -1.1267
 8565TIP3   OH247109   4.525   0.863   1.875  0.3983 -0.1593  0.0495
 8565TIP3    H147110   4.471   0.796   1.916 -1.1582  1.1834  0.2901
 8565TIP3    H247111   4.533   0.932   1.942 -1.3601  1.6308 -1.4681
 8566TIP3   OH247112   1.716   6.196   6.198  0.1897  0.1178 -0.1931
 8566TIP3    H147113   1.731   6.220   6.289  0.1959  2.3876 -0.7279
 8566TIP3    H247114   1.663   6.117   6.202  0.1195  0.2157  1.7613
 8567TIP3   OH247115   2.631   2.597   3.701 -0.0415 -0.0288 -0.1085
 8567TIP3    H147116   2.603   2.506   3.704 -2.0899  0.5813  1.0001
 8567TIP3    H247117   2.599   2.629   3.616  1.4649 -0.5310 -0.9010
 8568TIP3   OH247118   4.828   2.369  11.016  0.4052 -0.8518  0.5526
 8568TIP3    H147119   4.874   2.287  10.998  0.7669 -0.5017 -0.1825
 8568TIP3    H247120   4.736   2.348  11.000  0.6057 -0.8307 -0.8133
 8569TIP3   OH247121   5.304   3.859   3.286  0.6086 -0.2150 -0.0919
 8569TIP3    H147122   5.230   3.905   3.326  1.0341  0.3468  0.0533
 8569TIP3    H247123   5.352   3.822   3.360  0.6375 -0.3356 -0.1707
 8570TIP3   OH247124   6.243   5.975  16.285 -0.0956 -0.0719  0.3534
 8570TIP3    H147125   6.332   5.939  16.293 -0.0687 -0.3817 -1.0068
 8570TIP3    H247126   6.202   5.920  16.218 -0.7146  1.2004 -0.3343
 8571TIP3   OH247127   1.072   4.404  12.531 -0.2516  0.3067  0.2788
 8571TIP3    H147128   1.078   4.495  12.502  0.7184  0.2869  0.3798
 8571TIP3    H247129   0.984   4.376  12.506 -0.5762  1.2875  0.2958
 8572TIP3   OH247130   5.719   6.476  15.188  0.6676  0.1577 -0.0488
 8572TIP3    H147131   5.745   6.388  15.215 -0.8396 -0.4445 -0.4159
 8572TIP3    H247132   5.800   6.519  15.163  1.5459 -0.8244  0.9906
 8573TIP3   OH247133   4.729   4.250  14.048  0.8568 -0.1548  0.0035
 8573TIP3    H147134   4.679   4.304  14.109 -1.7715  0.1857 -2.2228
 8573TIP3    H247135   4.713   4.160  14.077 -1.5371 -0.0798 -0.8450
 8574TIP3   OH247136   3.205   2.095  13.567 -0.1360 -0.2262 -0.0478
 8574TIP3    H147137   3.274   2.121  13.505 -0.1555 -0.5342 -0.2005
 8574TIP3    H247138   3.137   2.161  13.556  0.9511  1.2307  1.4981
 8575TIP3   OH247139   2.800   2.238   2.387  0.1297  0.1702  0.4881
 8575TIP3    H147140   2.731   2.187   2.345  0.1005 -1.3480  2.2465
 8575TIP3    H247141   2.765   2.261   2.472  1.3463  0.4100  0.9456
 8576TIP3   OH247142   5.443   4.355   5.448 -0.2753  0.1754 -0.0368
 8576TIP3    H147143   5.493   4.300   5.388 -1.4568 -2.1988  1.0472
 8576TIP3    H247144   5.486   4.344   5.533 -0.4442  1.0696  0.1830
 8577TIP3   OH247145   5.486   5.988   4.693  0.4574  0.0865  0.2857
 8577TIP3    H147146   5.450   6.023   4.774 -0.2393  1.0971 -0.4245
 8577TIP3    H247147   5.497   6.065   4.637  2.3671 -0.3935 -0.0567
 8578TIP3   OH247148   3.786   0.808   3.933 -0.1566 -0.2557  0.4836
 8578TIP3    H147149   3.721   0.742   3.957  0.6114 -2.1537 -2.3135
 8578TIP3    H247150   3.745   0.858   3.863 -1.0487  2.9963  3.0251
 8579TIP3   OH247151   4.392   1.129   5.598  0.1735 -0.4418  0.4711
 8579TIP3    H147152   4.326   1.198   5.596  0.9434  0.3254  0.8054
 8579TIP3    H247153   4.415   1.114   5.506 -0.8167 -1.0785  0.3138
 8580TIP3   OH247154   3.071   0.987   5.986  0.2799  0.1211 -0.0831
 8580TIP3    H147155   3.068   0.906   6.036 -0.3327 -0.3900 -0.9265
 8580TIP3    H247156   3.041   1.054   6.048 -1.6302 -0.6724 -0.0723
 8581TIP3   OH247157   1.146   6.619  16.459 -0.3185 -0.1802  0.4007
 8581TIP3    H147158   1.191   6.563  16.395 -1.5482 -0.8699  0.0935
 8581TIP3    H247159   1.120   6.696  16.408  0.2749  0.0939  0.5116
 8582TIP3   OH247160   0.616   6.265  12.981  0.1580 -0.4573  0.2862
 8582TIP3    H147161   0.614   6.275  12.886 -0.6815 -0.7276  0.2665
 8582TIP3    H247162   0.600   6.171  12.995 -1.5501 -0.1406  0.7318
 8583TIP3   OH247163   6.706   3.914   0.762  0.2100  0.0648 -0.0176
 8583TIP3    H147164   6.722   3.970   0.838  0.9180 -1.4803  1.0146
 8583TIP3    H247165   6.685   3.975   0.692  1.1993  1.6436  0.9911
 8584TIP3   OH247166   6.381   0.845   0.584 -0.2083  0.6547 -0.8361
 8584TIP3    H147167   6.366   0.922   0.529 -0.4353  1.4567  0.3075
 8584TIP3    H247168   6.464   0.863   0.628 -0.2529  0.2373 -0.5776
 8585TIP3   OH247169   3.911   0.115   0.109 -0.2533 -0.0316 -0.5970
 8585TIP3    H147170   3.824   0.118   0.069 -0.8234 -0.3790  0.5692
 8585TIP3    H247171   3.938   0.023   0.101 -0.8085 -0.3337  0.6525
 8586TIP3   OH247172   0.201   4.385  14.590 -0.0464 -1.1210 -0.1836
 8586TIP3    H147173   0.225   4.397  14.498  0.3300 -2.3452 -0.2675
 8586TIP3    H247174   0.154   4.302  14.592  0.3477 -1.3405  0.7934
 8587TIP3   OH247175   0.751   3.146   1.874  0.3304  0.2819 -0.3341
 8587TIP3    H147176   0.822   3.103   1.826  1.2357  0.8213  0.4915
 8587TIP3    H247177   0.785   3.232   1.898 -0.7090  0.6695 -0.1634
 8588TIP3   OH247178   6.049   0.854   4.408 -0.2219  0.1105 -0.1012
 8588TIP3    H147179   6.042   0.874   4.315 -1.1557  1.7460  0.2704
 8588TIP3    H247180   5.998   0.774   4.420  0.7616 -0.6987 -1.1284
 8589TIP3   OH247181   5.441   3.641  14.838  0.7953 -0.5616 -0.0544
 8589TIP3    H147182   5.388   3.563  14.853  1.1520 -0.4125  2.4328
 8589TIP3    H247183   5.392   3.711  14.882  0.5122  0.6517 -2.1701
 8590TIP3   OH247184   4.085   0.742   5.466  0.8789 -0.0651  0.2846
 8590TIP3    H147185   4.088   0.648   5.484  1.8673  0.1857  1.5654
 8590TIP3    H247186   3.994   0.759   5.441  0.5570 -1.2619  0.5945
 8591TIP3   OH247187   5.452   1.972  12.139  0.5490  0.1468 -1.3062
 8591TIP3    H147188   5.546   1.985  12.150  0.6805 -0.1236 -2.0276
 8591TIP3    H247189   5.444   1.883  12.105 -0.1941 -1.0287  1.6928
 8592TIP3   OH247190   5.215   6.723  13.966 -0.2918 -0.1846 -0.1866
 8592TIP3    H147191   5.223   6.774  14.047 -1.5953  0.7023 -0.5806
 8592TIP3    H247192   5.234   6.633  13.992  0.8594  0.3106  0.7747
 8593TIP3   OH247193   0.584   2.235   1.794 -0.1331 -0.8246  0.4485
 8593TIP3    H147194   0.553   2.200   1.878 -2.4143 -0.9243 -0.3753
 8593TIP3    H247195   0.585   2.160   1.735 -0.4891 -0.3958 -0.1165
 8594TIP3   OH247196   2.423   4.669   0.057  0.3518  0.2763 -0.1695
 8594TIP3    H147197   2.364   4.595   0.043  1.5493 -0.4301 -1.8213
 8594TIP3    H247198   2.365   4.744   0.073 -0.9365 -0.6186 -0.5152
 8595TIP3   OH247199   6.225   1.457   5.403 -0.1642  0.3310  0.2108
 8595TIP3    H147200   6.295   1.523   5.408  0.6172 -0.5449  3.1825
 8595TIP3    H247201   6.228   1.425   5.313  2.2550  1.4076 -0.1782
 8596TIP3   OH247202   2.098   4.088   4.109  0.1335 -0.2378 -0.0813
 8596TIP3    H147203   2.074   4.093   4.202  2.1279 -1.1511  0.5589
 8596TIP3    H247204   2.036   4.026   4.071 -0.2130 -0.4700  0.8358
 8597TIP3   OH247205   4.363   2.885  16.079 -0.4757  0.1035 -0.3238
 8597TIP3    H147206   4.290   2.822  16.079  0.5954 -1.1956 -0.0569
 8597TIP3    H247207   4.367   2.917  15.989  0.7405 -2.4458 -1.2743
 8598TIP3   OH247208   0.994   1.718  11.021 -0.3617  0.1465 -0.3684
 8598TIP3    H147209   0.935   1.783  10.983  0.0908  1.1161  0.5282
 8598TIP3    H247210   1.065   1.709  10.957  0.2639  1.5747  0.0749
 8599TIP3   OH247211   2.724   3.759  14.310 -0.1015  0.0389 -0.3330
 8599TIP3    H147212   2.735   3.774  14.216  0.4251  0.3729 -0.2192
 8599TIP3    H247213   2.749   3.668  14.323  0.4284  0.1683 -0.4216
 8600TIP3   OH247214   0.734   3.759   3.114 -0.0708  0.3600  0.3154
 8600TIP3    H147215   0.767   3.849   3.110  1.6395 -0.2607 -1.8715
 8600TIP3    H247216   0.790   3.716   3.178 -0.7875  0.7817  1.2464
 8601TIP3   OH247217   0.588   6.351   2.541 -0.1029 -0.4372 -0.0371
 8601TIP3    H147218   0.667   6.331   2.591  0.8472  0.4732 -1.1102
 8601TIP3    H247219   0.536   6.271   2.544 -0.1114 -0.4093  2.3972
 8602TIP3   OH247220   6.361   1.106   1.954  0.2462  0.1790  0.0614
 8602TIP3    H147221   6.325   1.183   1.910  0.3996  0.3041  0.1538
 8602TIP3    H247222   6.308   1.096   2.033  0.4873  0.4347  0.2589
 8603TIP3   OH247223   6.008   0.757   5.398  0.0951 -0.3569 -0.2913
 8603TIP3    H147224   6.078   0.703   5.362 -0.9347 -2.1106  0.2470
 8603TIP3    H247225   5.955   0.781   5.321  0.4544 -0.2228 -0.5037
 8604TIP3   OH247226   3.911   5.193  14.383  0.0285 -0.7835 -0.1317
 8604TIP3    H147227   3.889   5.128  14.449  2.6785 -2.3942 -0.6866
 8604TIP3    H247228   3.969   5.147  14.322  1.4969  1.9125 -0.9419
 8605TIP3   OH247229   4.714   4.334   4.565  0.1403  0.1386  0.0297
 8605TIP3    H147230   4.753   4.253   4.532 -0.5055 -0.6387  1.1316
 8605TIP3    H247231   4.738   4.400   4.500  0.3127 -1.0133 -1.1103
 8606TIP3   OH247232   3.496   4.381   1.367  0.6499 -0.2613  0.4043
 8606TIP3    H147233   3.412   4.394   1.325  0.9188 -0.6365 -0.2556
 8606TIP3    H247234   3.497   4.445   1.439  0.8972  1.6441 -1.2096
 8607TIP3   OH247235   2.571   2.105   5.158  0.0636 -0.2516  0.1756
 8607TIP3    H147236   2.522   2.029   5.127  0.5494 -0.3235 -0.4275
 8607TIP3    H247237   2.648   2.068   5.200  1.1546 -0.0817 -1.5670
 8608TIP3   OH247238   1.223   5.588  14.477 -0.4480  0.4455  0.1661
 8608TIP3    H147239   1.209   5.641  14.556 -1.3570  0.9084 -0.2901
 8608TIP3    H247240   1.153   5.615  14.417  0.2984  0.1953 -0.8498
 8609TIP3   OH247241   0.427   0.946   3.292  0.4639  0.1148  0.4279
 8609TIP3    H147242   0.385   0.878   3.345  0.2050 -0.2895 -0.2797
 8609TIP3    H247243   0.468   0.899   3.220 -2.6555  0.8937 -2.0679
 8610TIP3   OH247244   0.793   5.667  16.742  0.3757  0.6682 -0.0917
 8610TIP3    H147245   0.777   5.576  16.718  1.7939  0.7239 -1.4379
 8610TIP3    H247246   0.743   5.718  16.677  0.0238  0.8502  0.3203
 8611TIP3   OH247247   4.482   6.191   1.690 -0.7429 -0.2867 -0.4186
 8611TIP3    H147248   4.461   6.254   1.621 -1.0737 -1.4506 -1.4042
 8611TIP3    H247249   4.402   6.186   1.743 -0.6558  0.2429 -0.2345
 8612TIP3   OH247250   2.562   2.211  14.906 -0.5690  0.4672 -0.4600
 8612TIP3    H147251   2.535   2.221  14.998  0.6642 -5.0225  0.8565
 8612TIP3    H247252   2.655   2.234  14.906 -0.1254 -1.2199  0.1753
 8613TIP3   OH247253   6.267   5.438  14.755  0.1278  0.3174 -0.3486
 8613TIP3    H147254   6.234   5.357  14.793 -0.7721  0.6560 -0.3835
 8613TIP3    H247255   6.254   5.429  14.661 -1.2384  1.0218 -0.2582
 8614TIP3   OH247256   5.878   6.614  17.108  0.0001 -0.1974  0.5028
 8614TIP3    H147257   5.943   6.568  17.161  0.3242  1.2550  1.4400
 8614TIP3    H247258   5.917   6.619  17.021 -0.2846 -2.1128  0.2251
 8615TIP3   OH247259   6.280   2.986   0.983 -0.1173  0.1746  0.1418
 8615TIP3    H147260   6.235   2.904   0.962 -2.0498  1.0363  0.7172
 8615TIP3    H247261   6.273   2.993   1.078  0.9366  0.5386  0.2094
 8616TIP3   OH247262   2.064   4.899  12.679 -0.3358 -0.4449 -0.3569
 8616TIP3    H147263   1.989   4.843  12.659 -2.0184  0.9492  1.6315
 8616TIP3    H247264   2.025   4.978  12.718  2.1369  0.6658  0.0292
 8617TIP3   OH247265   5.785   3.140  14.099 -0.3376  0.6085  0.0673
 8617TIP3    H147266   5.710   3.106  14.050  0.1272  1.1275 -1.0267
 8617TIP3    H247267   5.856   3.143  14.035  0.9989 -1.0807  1.3928
 8618TIP3   OH247268   4.827   5.311   4.371  0.1709  0.5968 -0.2305
 8618TIP3    H147269   4.844   5.386   4.315 -0.0056 -1.9446 -4.0249
 8618TIP3    H247270   4.914   5.286   4.403  0.4496  1.3770 -0.3571
 8619TIP3   OH247271   2.151   3.056  14.567 -0.4742  0.1345 -0.2468
 8619TIP3    H147272   2.210   2.985  14.543 -1.5590 -0.2521 -1.9906
 8619TIP3    H247273   2.137   3.046  14.661  2.2117  0.2780  0.2378
 8620TIP3   OH247274   0.999   1.670  12.814  0.1648  0.2370 -0.7749
 8620TIP3    H147275   1.011   1.665  12.720 -2.0526  1.3359 -1.1960
 8620TIP3    H247276   0.991   1.764  12.832  2.0945  0.1734  0.7809
 8621TIP3   OH247277   0.893   1.907  11.232  0.3244 -0.1495  0.3109
 8621TIP3    H147278   0.835   1.857  11.175 -0.1762  0.9291 -0.1544
 8621TIP3    H247279   0.916   1.846  11.302 -2.4247 -0.2212  1.2582
 8622TIP3   OH247280   1.038   6.726  12.219  0.3332  0.6278 -0.4349
 8622TIP3    H147281   1.088   6.784  12.276 -0.8526 -0.6750  2.0854
 8622TIP3    H247282   0.953   6.769  12.209 -0.1315 -0.0711  0.4346
 8623TIP3   OH247283   4.503   2.757   2.496  0.5572 -0.5778 -0.3330
 8623TIP3    H147284   4.511   2.686   2.559 -0.3979  1.3102  2.1067
 8623TIP3    H247285   4.521   2.836   2.547  0.9744  1.0275 -2.7589
 8624TIP3   OH247286   0.007   1.711  12.473 -0.4981 -0.5505 -0.1368
 8624TIP3    H147287  -0.049   1.635  12.459 -1.3025  0.1208 -0.6913
 8624TIP3    H247288   0.081   1.678  12.523 -1.7438 -1.3244  1.2813
 8625TIP3   OH247289   4.414   2.691  15.091  0.7203 -0.2491 -0.2590
 8625TIP3    H147290   4.391   2.599  15.078  0.0804 -0.0296 -0.6682
 8625TIP3    H247291   4.336   2.740  15.067  2.4365  0.7278 -4.7839
 8626TIP3   OH247292   5.975   6.331  15.132  0.0001  0.0087  0.5354
 8626TIP3    H147293   6.061   6.327  15.089 -0.2262 -1.2376  0.1521
 8626TIP3    H247294   5.913   6.322  15.060 -0.4147 -0.6626  0.9725
 8627TIP3   OH247295   2.199   5.042  14.958 -0.2593 -0.1893 -0.0133
 8627TIP3    H147296   2.145   5.112  14.993  1.3422  0.2811  1.7225
 8627TIP3    H247297   2.226   5.073  14.871 -0.5938  0.7685  0.2124
 8628TIP3   OH247298   6.241   4.844   5.218  0.1273  0.1778  0.4380
 8628TIP3    H147299   6.188   4.897   5.278 -1.2293  1.7999 -2.0315
 8628TIP3    H247300   6.316   4.900   5.197 -1.0023  1.0121 -1.7043
 8629TIP3   OH247301   0.250   2.025  13.957  0.1768  0.6975  0.3179
 8629TIP3    H147302   0.214   2.065  14.036 -0.3988 -0.2785  0.5714
 8629TIP3    H247303   0.254   1.932  13.978  0.4905  0.4918 -0.6308
 8630TIP3   OH247304   4.465   3.545   5.823 -0.4184 -0.1723 -0.6366
 8630TIP3    H147305   4.508   3.586   5.748  0.1595  1.4898  0.5618
 8630TIP3    H247306   4.536   3.503   5.871 -0.9286 -2.1746 -1.5344
 8631TIP3   OH247307   6.713   1.217  13.335 -0.2343  0.0189  0.4565
 8631TIP3    H147308   6.802   1.232  13.366  1.3274 -1.2901 -2.9541
 8631TIP3    H247309   6.670   1.171  13.407  1.8554  0.5249  2.1274
 8632TIP3   OH247310   6.149   1.136  15.977  0.2697 -0.2124 -0.1512
 8632TIP3    H147311   6.080   1.190  15.940 -0.7299 -1.5053 -0.2409
 8632TIP3    H247312   6.228   1.164  15.931 -0.0876  1.5951  0.2745
 8633TIP3   OH247313   2.999   2.761   1.333 -0.1911  0.1759  0.0177
 8633TIP3    H147314   3.017   2.792   1.244  1.2633  1.7427  0.7832
 8633TIP3    H247315   3.053   2.818   1.389 -2.0357  0.0864  2.0052
 8634TIP3   OH247316   3.366   6.189  12.960 -0.3500 -0.6910  0.3931
 8634TIP3    H147317   3.390   6.192  12.868  0.4527  0.6450  0.6169
 8634TIP3    H247318   3.431   6.132  13.000 -0.4449 -0.9305  0.2061
 8635TIP3   OH247319   3.463   1.472  14.478  0.1173 -0.2294  0.1741
 8635TIP3    H147320   3.375   1.465  14.516 -0.7088  1.2111 -1.3450
 8635TIP3    H247321   3.450   1.520  14.396  2.4654  0.8123  0.3383
 8636TIP3   OH247322   4.399   4.841  12.993 -0.0813 -0.4635  0.1265
 8636TIP3    H147323   4.493   4.853  13.003 -0.1170 -1.0156  1.2415
 8636TIP3    H247324   4.363   4.929  12.995  0.4995 -0.1508 -1.5378
 8637TIP3   OH247325   0.266   3.246   6.200 -0.5476  0.0513  0.0512
 8637TIP3    H147326   0.258   3.151   6.205  0.9992 -0.1233 -0.4010
 8637TIP3    H247327   0.282   3.263   6.107  1.6200  0.5035  0.4474
 8638TIP3   OH247328   4.457   2.292   1.367  0.4612 -0.0072 -0.0969
 8638TIP3    H147329   4.528   2.254   1.418  0.7174 -0.1581 -0.5644
 8638TIP3    H247330   4.432   2.224   1.305 -0.2134 -0.0209  0.1782
 8639TIP3   OH247331   1.843   6.460   1.572  0.2131  0.3707  1.1227
 8639TIP3    H147332   1.814   6.438   1.660  0.9420 -0.5170  1.1554
 8639TIP3    H247333   1.881   6.379   1.538  1.4502  1.1319  0.6057
 8640TIP3   OH247334   1.492   3.845   4.671  0.5800  0.4228  0.1453
 8640TIP3    H147335   1.407   3.884   4.652 -0.0529 -0.2546  1.4279
 8640TIP3    H247336   1.474   3.751   4.678  1.9385 -0.0805 -2.1675
 8641TIP3   OH247337   3.134   4.688   4.596  0.3061 -0.0925 -0.0382
 8641TIP3    H147338   3.123   4.598   4.628 -0.6242  0.2801  0.7192
 8641TIP3    H247339   3.093   4.743   4.663 -0.3154  0.8136 -1.1331
 8642TIP3   OH247340   1.942   1.713   2.756  0.0834  0.3135 -0.0515
 8642TIP3    H147341   1.926   1.694   2.664 -0.5558 -0.4304  0.2030
 8642TIP3    H247342   2.016   1.774   2.756  0.1231  0.2706 -1.0465
 8643TIP3   OH247343   1.254   4.130  14.461 -0.3342  0.2562  0.2237
 8643TIP3    H147344   1.262   4.100  14.371  0.7987 -0.8755  0.6625
 8643TIP3    H247345   1.343   4.155  14.486 -0.1877 -1.5635  1.6962
 8644TIP3   OH247346   0.821   0.353   1.868  0.0957  0.5809 -0.2834
 8644TIP3    H147347   0.764   0.400   1.930 -0.7567  0.7999 -1.2133
 8644TIP3    H247348   0.908   0.356   1.909 -0.7380 -0.7917  1.7403
 8645TIP3   OH247349   3.482   1.059  13.244 -0.1357 -0.4867  0.2737
 8645TIP3    H147350   3.389   1.077  13.236 -0.3241 -1.6127 -0.1492
 8645TIP3    H247351   3.509   1.035  13.155  0.4692 -0.5791  0.4789
 8646TIP3   OH247352   5.486   3.101   0.137  0.1355 -0.2483 -0.1112
 8646TIP3    H147353   5.399   3.101   0.096  0.2107  1.0495 -0.2895
 8646TIP3    H247354   5.530   3.025   0.099 -0.5681 -0.3350 -0.7745
 8647TIP3   OH247355   2.786   4.704  11.073  0.2066  0.3326  0.2510
 8647TIP3    H147356   2.865   4.681  11.120  0.4166  1.3226  0.4175
 8647TIP3    H247357   2.795   4.798  11.056 -0.5644  0.3009 -0.4228
 8648TIP3   OH247358   2.596   1.877  10.805 -0.0085 -0.0503 -0.0658
 8648TIP3    H147359   2.654   1.910  10.737 -0.5029  0.8953 -0.0408
 8648TIP3    H247360   2.543   1.952  10.831 -0.7117 -0.7015  0.4589
 8649TIP3   OH247361   2.171   6.781   2.788 -0.3313 -0.2749 -0.1429
 8649TIP3    H147362   2.224   6.744   2.717 -0.3247  0.1078 -0.3456
 8649TIP3    H247363   2.234   6.826   2.844 -0.3252 -0.6678  0.1611
 8650TIP3   OH247364   1.449   2.511  13.364 -0.5804  0.0827 -0.0816
 8650TIP3    H147365   1.381   2.538  13.301 -0.6532  1.3633  0.5015
 8650TIP3    H247366   1.526   2.563  13.339 -0.2439 -0.3170  0.1252
 8651TIP3   OH247367   1.224   3.908   4.600  0.2218  0.0486  0.2516
 8651TIP3    H147368   1.150   3.909   4.661 -0.2741 -1.1744 -0.2807
 8651TIP3    H247369   1.190   3.950   4.521  0.0525 -0.5767 -0.0174
 8652TIP3   OH247370   2.149   5.783   1.162  0.6932  0.0890 -0.1087
 8652TIP3    H147371   2.193   5.850   1.109 -1.3460  0.3427 -1.6197
 8652TIP3    H247372   2.171   5.700   1.120  0.5060  0.1361 -0.3044
 8653TIP3   OH247373   4.751   3.582  13.607 -0.0472  0.0213  0.1470
 8653TIP3    H147374   4.840   3.572  13.641  0.4052  0.5497 -0.8720
 8653TIP3    H247375   4.760   3.575  13.512 -1.1710 -0.4500  0.0566
 8654TIP3   OH247376   4.242   2.518   3.385  0.3310  0.8258  0.2272
 8654TIP3    H147377   4.278   2.465   3.314  3.3480  0.7834  1.6045
 8654TIP3    H247378   4.214   2.455   3.451 -0.3464  0.9050  0.0232
 8655TIP3   OH247379   4.780   5.712   0.200 -0.1882  0.3232 -0.0395
 8655TIP3    H147380   4.702   5.737   0.150 -0.9169 -0.0456  0.8784
 8655TIP3    H247381   4.831   5.658   0.140 -1.2924 -0.5407 -0.2480
 8656TIP3   OH247382   3.296   1.137  16.472  0.1616 -0.9389  0.0977
 8656TIP3    H147383   3.202   1.155  16.461  0.4105 -0.0657 -0.7283
 8656TIP3    H247384   3.299   1.063  16.532 -1.0393 -0.5103  0.7228
 8657TIP3   OH247385   5.740   1.912   5.001 -0.2048 -0.6169 -0.2047
 8657TIP3    H147386   5.814   1.931   4.943 -0.1806 -1.8013 -0.5864
 8657TIP3    H247387   5.742   1.817   5.012 -0.8947 -0.5255  0.8338
 8658TIP3   OH247388   4.292   6.711   0.492  0.1652 -0.1912  0.0589
 8658TIP3    H147389   4.241   6.710   0.411 -0.1426 -1.9012  0.2435
 8658TIP3    H247390   4.341   6.793   0.489  0.4937 -0.4199 -2.0757
 8659TIP3   OH247391   0.890   5.882  14.255 -0.3434  0.2567 -0.3044
 8659TIP3    H147392   0.897   5.975  14.233 -0.8068  0.0146 -1.5794
 8659TIP3    H247393   0.810   5.875  14.306  0.8072  0.8520  1.6882
 8660TIP3   OH247394   3.872   0.541   1.254 -0.1823  0.1113 -0.4487
 8660TIP3    H147395   3.966   0.534   1.239 -0.2343  0.2631 -0.8790
 8660TIP3    H247396   3.862   0.542   1.349 -0.0160 -3.3518 -0.2628
 8661TIP3   OH247397   2.534   2.286  15.867 -0.4278  0.6240  0.5518
 8661TIP3    H147398   2.537   2.195  15.839 -0.2519  0.9343 -0.4816
 8661TIP3    H247399   2.626   2.313  15.872 -0.4933  1.1592 -0.6317
 8662TIP3   OH247400   1.993   6.260  17.075 -0.3078  0.3830  0.2281
 8662TIP3    H147401   2.047   6.335  17.098  0.5666  0.3189 -1.4451
 8662TIP3    H247402   2.035   6.186  17.118  0.2314  0.5245 -0.0379
 8663TIP3   OH247403   2.654   6.396   4.316 -0.1624 -0.1523 -0.3645
 8663TIP3    H147404   2.735   6.396   4.366 -0.5484  1.5188  0.3571
 8663TIP3    H247405   2.681   6.402   4.225  0.5320 -0.6446 -0.1942
 8664TIP3   OH247406   1.954   0.038   6.642  0.4681  0.0586  0.1369
 8664TIP3    H147407   1.932   0.010   6.553 -0.6407  1.8446 -0.2024
 8664TIP3    H247408   2.048   0.019   6.650  0.5817 -0.1869 -1.3825
 8665TIP3   OH247409   2.931   6.551   5.677 -0.3823  0.3154  0.4391
 8665TIP3    H147410   2.873   6.544   5.753 -2.2567 -1.8417 -1.0551
 8665TIP3    H247411   2.899   6.628   5.630  0.2604  1.1765  1.3678
 8666TIP3   OH247412   2.912   1.547   3.134  0.5918 -0.1373  0.4212
 8666TIP3    H147413   2.859   1.610   3.085  0.7223  1.0779  1.7707
 8666TIP3    H247414   2.985   1.527   3.076  0.0327  0.1751 -0.4179
 8667TIP3   OH247415   5.437   0.573  16.106 -0.4172  0.3528  0.2561
 8667TIP3    H147416   5.518   0.604  16.148 -0.7652  1.5512  0.0760
 8667TIP3    H247417   5.425   0.485  16.141  0.4425  0.5283  1.0462
 8668TIP3   OH247418   0.687   5.380  16.015  1.3052 -0.4903 -0.1166
 8668TIP3    H147419   0.752   5.401  15.948  0.7738 -0.7276 -0.7193
 8668TIP3    H247420   0.634   5.460  16.021  0.0657 -1.1598 -1.5000
 8669TIP3   OH247421   2.655   1.533   2.206  0.1768  0.3348  0.1342
 8669TIP3    H147422   2.670   1.476   2.130 -0.7928 -0.9029  0.8390
 8669TIP3    H247423   2.719   1.505   2.271 -0.9313 -0.6505  0.8369
 8670TIP3   OH247424   4.525   5.531  14.153  0.5093 -0.2843  0.0836
 8670TIP3    H147425   4.608   5.484  14.162  0.4384 -0.3959  0.1598
 8670TIP3    H247426   4.474   5.505  14.229  0.4136 -0.1956  0.0502
 8671TIP3   OH247427   6.351   6.361   1.463  0.3389  0.2579  0.5338
 8671TIP3    H147428   6.382   6.368   1.553  1.9712  0.5544 -0.0143
 8671TIP3    H247429   6.407   6.422   1.414 -0.9427  0.5844 -0.5817
 8672TIP3   OH247430   1.376   2.235   6.153 -0.1288  0.2020 -0.5622
 8672TIP3    H147431   1.467   2.261   6.138  0.8744 -2.1611  0.7567
 8672TIP3    H247432   1.350   2.282   6.232 -0.0361  0.8495 -0.9147
 8673TIP3   OH247433   2.999   2.649   3.443 -0.1001  0.2119 -0.3355
 8673TIP3    H147434   3.047   2.715   3.392  1.2239 -1.1547 -0.9683
 8673TIP3    H247435   2.921   2.631   3.391 -0.3213  1.0548 -0.3051
 8674TIP3   OH247436   2.967   3.414  14.931  0.1983  0.7213  0.0849
 8674TIP3    H147437   2.875   3.440  14.938  0.0773  0.2015  0.5106
 8674TIP3    H247438   2.979   3.351  15.002  0.1521 -1.3058 -1.6010
 8675TIP3   OH247439   4.903   4.254  12.975  0.0739 -0.2013 -0.2042
 8675TIP3    H147440   4.972   4.249  13.041 -0.2926  1.1453  0.2950
 8675TIP3    H247441   4.830   4.297  13.019 -0.2182  0.6187 -1.4429
 8676TIP3   OH247442   4.520   1.791  16.830  0.1509  0.5023 -0.2689
 8676TIP3    H147443   4.431   1.758  16.817 -0.1407  1.4997 -0.9745
 8676TIP3    H247444   4.508   1.876  16.872  0.6834  1.2471 -1.5543
 8677TIP3   OH247445   1.607   5.069  13.976 -0.0216  0.0369 -0.2297
 8677TIP3    H147446   1.685   5.092  13.925 -0.4685  1.1369 -0.4558
 8677TIP3    H247447   1.539   5.058  13.909 -0.0004 -1.2547 -0.0607
 8678TIP3   OH247448   1.593   5.991  10.592  0.5898 -0.0652  0.3052
 8678TIP3    H147449   1.591   5.918  10.654 -2.3540  1.5014  2.3281
 8678TIP3    H247450   1.529   5.968  10.525  1.7626 -0.5286 -0.7018
 8679TIP3   OH247451   2.914   0.259  13.788 -0.0465 -0.3738 -0.3596
 8679TIP3    H147452   2.915   0.197  13.716  1.3822 -1.1081  0.2640
 8679TIP3    H247453   3.006   0.273  13.810 -0.4546 -0.5765  1.6652
 8680TIP3   OH247454   6.250   1.477  11.426  0.3271  0.4311 -0.1196
 8680TIP3    H147455   6.204   1.554  11.393  0.1032  0.8322  1.0645
 8680TIP3    H247456   6.184   1.407  11.426 -0.2714  0.9393  1.3301
 8681TIP3   OH247457   2.830   1.559  15.973  0.0082  0.1191 -0.5513
 8681TIP3    H147458   2.769   1.601  15.913 -2.0218 -1.5575  0.1874
 8681TIP3    H247459   2.887   1.629  16.003 -0.6130  1.4909 -2.4020
 8682TIP3   OH247460   4.371   2.984  15.777 -0.1526  0.4721  0.3576
 8682TIP3    H147461   4.349   3.074  15.801  0.1035  1.2120 -1.9158
 8682TIP3    H247462   4.288   2.936  15.786 -0.7687  1.3849 -0.2250
 8683TIP3   OH247463   3.594   1.350   4.599 -0.8756 -0.1867  0.4394
 8683TIP3    H147464   3.637   1.367   4.516  1.0390 -1.4144  1.1204
 8683TIP3    H247465   3.505   1.385   4.588 -0.8088 -0.6752 -2.2177
 8684TIP3   OH247466   5.752   4.943  12.583 -0.1098 -0.1687 -0.5401
 8684TIP3    H147467   5.694   4.943  12.659 -1.3211  0.0827 -1.4344
 8684TIP3    H247468   5.726   5.021  12.533  1.1119  0.0408 -0.8852
 8685TIP3   OH247469   2.375   2.582   1.692  0.5323 -0.1875  0.4065
 8685TIP3    H147470   2.405   2.512   1.635  1.0955  0.3582  0.0294
 8685TIP3    H247471   2.374   2.542   1.780  1.2529 -0.5435  0.2585
 8686TIP3   OH247472   2.838   3.435   4.637 -0.7784 -0.5823 -0.0123
 8686TIP3    H147473   2.933   3.446   4.647 -0.6361  0.6875 -2.1266
 8686TIP3    H247474   2.809   3.402   4.722  0.9889  2.7839  2.1175
 8687TIP3   OH247475   3.823   3.261   0.389 -0.5809  0.3418  0.5118
 8687TIP3    H147476   3.797   3.193   0.450 -0.3584 -0.7528 -0.5743
 8687TIP3    H247477   3.909   3.290   0.419  0.0010 -0.9360  0.1338
 8688TIP3   OH247478   3.012   4.418  14.027  0.8029  0.2871 -0.1763
 8688TIP3    H147479   3.010   4.459  14.113  0.8611 -0.7649  0.3403
 8688TIP3    H247480   2.922   4.423  13.995  0.8343  0.9222 -0.1848
 8689TIP3   OH247481   6.061   2.812  12.026 -0.7153 -0.3622 -0.2382
 8689TIP3    H147482   5.981   2.762  12.043 -1.8058  0.6547 -2.1241
 8689TIP3    H247483   6.088   2.788  11.938 -1.0862  2.0456 -1.0903
 8690TIP3   OH247484   2.376   5.870   2.043  0.5698  0.0827 -0.3786
 8690TIP3    H147485   2.411   5.789   2.005 -1.2799  0.0464 -2.1958
 8690TIP3    H247486   2.294   5.845   2.084 -0.6122  1.1179 -1.9414
 8691TIP3   OH247487   5.711   1.835   4.381 -0.4645  0.2210 -0.6332
 8691TIP3    H147488   5.755   1.765   4.333 -0.5770 -0.7913  0.7086
 8691TIP3    H247489   5.779   1.901   4.395  0.6949 -1.3109  1.3943
 8692TIP3   OH247490   5.787   2.902   5.945  0.2703 -0.2355  0.7814
 8692TIP3    H147491   5.749   2.831   5.893 -0.8722 -0.1793  1.4961
 8692TIP3    H247492   5.866   2.927   5.898 -1.9728  1.5853 -2.3846
 8693TIP3   OH247493   2.592   3.938  15.340  0.0496  0.1201  0.1850
 8693TIP3    H147494   2.629   4.019  15.374  1.7537 -1.0709  1.3007
 8693TIP3    H247495   2.499   3.958  15.327  0.8644  3.1331 -2.4548
 8694TIP3   OH247496   4.853   5.277  13.369 -0.0828 -0.5996 -0.4470
 8694TIP3    H147497   4.889   5.364  13.353 -0.9751 -0.3031 -0.9165
 8694TIP3    H247498   4.929   5.220  13.379  0.5414  0.4543  1.1633
 8695TIP3   OH247499   5.215   2.410   2.496 -0.0749  0.3199 -0.0317
 8695TIP3    H147500   5.123   2.404   2.521 -0.5367  0.3804 -1.6558
 8695TIP3    H247501   5.252   2.325   2.519 -0.6331  0.1497  0.2373
 8696TIP3   OH247502   4.473   2.759  12.363  0.3315  0.3871 -0.0623
 8696TIP3    H147503   4.483   2.664  12.367  1.0857  0.4784  0.4230
 8696TIP3    H247504   4.554   2.794  12.400  0.1445  1.2261 -0.4047
 8697TIP3   OH247505   6.133   0.698  11.180 -0.4696  0.7680 -0.3119
 8697TIP3    H147506   6.159   0.631  11.243 -0.6176  0.8548 -0.1600
 8697TIP3    H247507   6.160   0.662  11.095  0.6217  1.0750 -0.1181
 8698TIP3   OH247508   5.869   6.774   1.578  0.6135  0.5098 -0.3984
 8698TIP3    H147509   5.922   6.737   1.507  0.3929 -1.9205  0.5874
 8698TIP3    H247510   5.791   6.719   1.581  0.5516  0.6213  1.6237
 8699TIP3   OH247511   1.050   2.242   4.708 -0.3131  0.1615  0.8635
 8699TIP3    H147512   1.080   2.327   4.676  2.3814 -1.0967 -0.2152
 8699TIP3    H247513   1.030   2.192   4.629 -1.0787 -0.5174  1.4647
 8700TIP3   OH247514   4.026   4.594  13.763  0.2404  0.5062 -0.3260
 8700TIP3    H147515   3.961   4.649  13.718  0.1652  2.4893  1.9962
 8700TIP3    H247516   4.106   4.605  13.711 -0.1018  1.8755 -0.6203
 8701TIP3   OH247517   0.525   4.820  13.406 -0.6736 -0.3691 -0.0671
 8701TIP3    H147518   0.572   4.888  13.358  0.5550 -0.4670  0.9570
 8701TIP3    H247519   0.434   4.830  13.378 -0.6155  2.0222  0.3876
 8702TIP3   OH247520   1.029   3.908  11.440  0.0407 -0.4723  0.4146
 8702TIP3    H147521   1.010   3.884  11.350 -0.7267  0.5729  0.2823
 8702TIP3    H247522   0.990   3.839  11.493 -3.5193  1.1091  0.1196
 8703TIP3   OH247523   3.961   6.784  14.439  0.2767 -0.3259  0.2776
 8703TIP3    H147524   4.022   6.826  14.378 -0.8736 -0.7296 -1.2230
 8703TIP3    H247525   3.977   6.690  14.427  0.1670 -0.4049  0.7449
 8704TIP3   OH247526   4.830   6.675   5.716  0.2900 -0.0272 -0.1390
 8704TIP3    H147527   4.803   6.595   5.761  1.2866  0.1207  0.7785
 8704TIP3    H247528   4.793   6.746   5.769  1.8662  0.1592  0.7748
 8705TIP3   OH247529   2.811   4.538  14.409 -0.0072  0.8343  0.1431
 8705TIP3    H147530   2.870   4.565  14.338  0.4239  1.6324  0.7910
 8705TIP3    H247531   2.867   4.534  14.487 -0.1868 -1.3574  0.2095
 8706TIP3   OH247532   0.502   5.479   0.816  0.1786 -0.4270  0.2816
 8706TIP3    H147533   0.583   5.434   0.794  0.7985  0.8398 -0.1591
 8706TIP3    H247534   0.516   5.510   0.906  0.2902 -0.0117  0.1250
 8707TIP3   OH247535   3.363   5.902   2.908 -0.1418  0.2934 -0.1766
 8707TIP3    H147536   3.344   5.995   2.892  1.3928  0.7875  0.6538
 8707TIP3    H247537   3.336   5.889   2.999  0.5060  0.1687 -0.0036
 8708TIP3   OH247538   1.527   3.088  11.663 -0.0019  0.1152 -0.0488
 8708TIP3    H147539   1.493   3.066  11.577 -1.2104  0.7386  0.2453
 8708TIP3    H247540   1.483   3.027  11.723 -0.6396  0.9286  0.3347
 8709TIP3   OH247541   0.798   1.123   0.009 -0.0586  0.2307 -0.0664
 8709TIP3    H147542   0.782   1.028   0.009 -1.2843  0.4085 -0.7537
 8709TIP3    H247543   0.711   1.161  -0.007 -0.1793  1.6001  3.1601
 8710TIP3   OH247544   2.452   1.082  12.238  0.1765  0.2199 -0.3077
 8710TIP3    H147545   2.513   1.035  12.294 -0.0302  0.2178 -0.0814
 8710TIP3    H247546   2.423   1.018  12.173 -1.5501 -0.5414  1.1178
 8711TIP3   OH247547   5.315   2.051   2.988 -0.1421  0.0523 -0.0569
 8711TIP3    H147548   5.323   1.955   2.984  0.7647  0.0649  1.1213
 8711TIP3    H247549   5.231   2.066   3.031  0.5116 -0.2406  1.3464
 8712TIP3   OH247550   3.226   3.908   5.121  0.5791 -0.5504 -0.3149
 8712TIP3    H147551   3.167   3.838   5.147 -0.8074 -0.1527 -2.1888
 8712TIP3    H247552   3.313   3.874   5.137 -0.1207 -1.8418  0.8666
 8713TIP3   OH247553   4.574   5.312  13.295 -0.1998 -0.0549  0.1733
 8713TIP3    H147554   4.555   5.231  13.343  1.8123 -1.3267 -1.0136
 8713TIP3    H247555   4.668   5.327  13.310 -0.1333  1.0521 -1.1232
 8714TIP3   OH247556   0.656   6.117  13.950  0.5187  0.6512  0.2732
 8714TIP3    H147557   0.677   6.121  14.044 -0.8088  1.6749  0.5628
 8714TIP3    H247558   0.598   6.193  13.936 -0.4292 -0.2878 -1.0786
 8715TIP3   OH247559   6.786   6.141  13.914  0.1748 -0.2697  0.4977
 8715TIP3    H147560   6.848   6.183  13.855 -1.1156 -0.7813 -1.3482
 8715TIP3    H247561   6.722   6.101  13.855 -1.4728 -0.3979  2.2808
 8716TIP3   OH247562   5.112   2.836   2.181 -0.3384 -0.4168 -0.5067
 8716TIP3    H147563   5.185   2.818   2.121 -0.1964  0.6763 -0.6895
 8716TIP3    H247564   5.153   2.873   2.258 -0.6864  0.0369 -0.5384
 8717TIP3   OH247565   0.863   0.802  13.186 -0.1161  0.9719 -0.0256
 8717TIP3    H147566   0.870   0.707  13.196 -0.6349  1.0276  0.9760
 8717TIP3    H247567   0.783   0.816  13.136 -1.7041  0.9668  2.3717
 8718TIP3   OH247568   6.631   1.629   1.984  0.2360  0.0588 -0.2739
 8718TIP3    H147569   6.701   1.570   2.014 -0.4095 -0.2166  0.7415
 8718TIP3    H247570   6.570   1.633   2.058 -0.4414  0.8979 -0.8628
 8719TIP3   OH247571   4.243   1.679   1.919  0.0964 -0.3388 -0.6834
 8719TIP3    H147572   4.226   1.597   1.966  0.5618  0.9002  1.8335
 8719TIP3    H247573   4.163   1.731   1.932 -0.5192 -0.6437 -2.9458
 8720TIP3   OH247574   3.891   5.219  12.539 -0.5540  0.0798  0.8435
 8720TIP3    H147575   3.818   5.157  12.552  0.2318 -1.3655 -1.0185
 8720TIP3    H247576   3.896   5.229  12.444  2.0104 -0.3039  0.8833
 8721TIP3   OH247577   4.413   5.221  17.056  0.0407 -0.1276 -0.8893
 8721TIP3    H147578   4.362   5.302  17.049 -0.3126 -0.2933 -0.2523
 8721TIP3    H247579   4.408   5.197  17.148 -0.2846 -1.1470 -1.1560
 8722TIP3   OH247580   0.089   5.165   0.411 -0.5498 -0.6444  0.0104
 8722TIP3    H147581   0.132   5.249   0.428 -0.6887 -0.4633 -0.5087
 8722TIP3    H247582   0.136   5.129   0.336 -0.2076 -1.2381  0.5001
 8723TIP3   OH247583   4.232   4.974  14.593 -0.1298 -0.1724  0.5510
 8723TIP3    H147584   4.294   4.927  14.649 -1.7473 -1.2020  1.5501
 8723TIP3    H247585   4.176   4.906  14.555 -1.3418  0.7904  0.5378
 8724TIP3   OH247586   3.210   0.955   2.348  0.5916 -0.2588 -0.3949
 8724TIP3    H147587   3.129   0.936   2.300  0.0412  2.1157 -0.5159
 8724TIP3    H247588   3.277   0.904   2.303 -0.8471 -2.5740 -0.0762
 8725TIP3   OH247589   2.468   1.323  15.897  0.4704  0.0251  0.1676
 8725TIP3    H147590   2.499   1.245  15.851  0.7633  0.4573 -0.3873
 8725TIP3    H247591   2.531   1.337  15.967  0.5936 -0.0560  0.0728
 8726TIP3   OH247592   3.374   2.174  13.338  0.0299  0.3321  0.0049
 8726TIP3    H147593   3.372   2.265  13.307  1.9311  0.8024  1.0781
 8726TIP3    H247594   3.394   2.122  13.261 -0.7036  0.8517 -0.5486
 8727TIP3   OH247595   6.436   4.028   3.221 -0.5351 -0.2969 -0.4718
 8727TIP3    H147596   6.486   4.085   3.162  0.8431  1.4215  2.1471
 8727TIP3    H247597   6.345   4.052   3.207 -0.0530  1.9142 -0.2027
 8728TIP3   OH247598   3.733   4.091  17.125  0.1634  0.4199  0.8481
 8728TIP3    H147599   3.782   4.105  17.044  0.7994 -1.2052  0.9264
 8728TIP3    H247600   3.738   3.997  17.141 -1.5221  0.4458  1.8042
 8729TIP3   OH247601   0.686   3.861  16.937  0.5247  0.0351 -0.6551
 8729TIP3    H147602   0.724   3.948  16.927 -1.2998  0.7499 -1.8222
 8729TIP3    H247603   0.624   3.870  17.009  0.8653 -0.5110 -0.2848
 8730TIP3   OH247604   2.033   5.531   5.004  0.0681 -0.2572  0.2206
 8730TIP3    H147605   1.971   5.532   5.077  2.1922 -1.1657  2.1591
 8730TIP3    H247606   2.004   5.603   4.947 -3.3070 -1.2805  0.4558
 8731TIP3   OH247607   6.244   4.330  14.748 -0.1394 -0.1662  0.2495
 8731TIP3    H147608   6.299   4.351  14.673 -1.6449 -0.8312 -1.0987
 8731TIP3    H247609   6.179   4.267  14.714 -0.2605 -1.2821  2.3356
 8732TIP3   OH247610   0.447   0.292  16.737 -0.3967  0.6523 -0.6882
 8732TIP3    H147611   0.470   0.330  16.821  1.4751  1.4361 -1.4974
 8732TIP3    H247612   0.387   0.221  16.758  0.2708  0.6322  1.3322
 8733TIP3   OH247613   0.049   1.855  17.109  0.8949  0.0074 -0.5507
 8733TIP3    H147614   0.097   1.903  17.042 -1.1658 -1.0579 -2.9534
 8733TIP3    H247615  -0.009   1.920  17.149  1.9308  0.5871  0.0489
 8734TIP3   OH247616   1.634   6.540  12.856 -0.1285  0.1769  0.3342
 8734TIP3    H147617   1.548   6.510  12.824 -0.2300  1.4360 -0.6614
 8734TIP3    H247618   1.620   6.631  12.880  0.5003 -0.1315  1.9776
 8735TIP3   OH247619   1.937   1.663   3.341 -0.2859 -0.2897 -0.0315
 8735TIP3    H147620   1.866   1.609   3.378 -0.2465 -1.1963 -1.1989
 8735TIP3    H247621   1.893   1.744   3.314 -0.1908  0.7437  2.5665
 8736TIP3   OH247622   3.176   2.963   1.488  0.0842  0.4717 -0.1217
 8736TIP3    H147623   3.231   3.005   1.421  0.6224  0.4527  0.3053
 8736TIP3    H247624   3.237   2.938   1.557 -0.4972  0.6791  0.4792
 8737TIP3   OH247625   1.938   1.732   1.858  0.0773 -0.0881  0.3510
 8737TIP3    H147626   2.028   1.704   1.873 -0.1145 -2.2877 -1.8705
 8737TIP3    H247627   1.944   1.796   1.787 -0.1145 -0.8222 -0.3500
 8738TIP3   OH247628   5.066   6.146  12.497  0.3964  0.4296 -0.2366
 8738TIP3    H147629   5.077   6.240  12.481  0.4746  0.5313  0.3708
 8738TIP3    H247630   5.139   6.105  12.450 -0.9390  0.4532 -2.4611
 8739TIP3   OH247631   5.002   5.829   0.457 -0.0648  0.1844 -0.4776
 8739TIP3    H147632   5.015   5.824   0.551 -0.1839  1.1457 -0.3997
 8739TIP3    H247633   5.072   5.776   0.420 -0.7156 -1.1804  0.1747
 8740TIP3   OH247634   6.679   0.851  15.526 -0.3140  0.0630 -0.1990
 8740TIP3    H147635   6.697   0.945  15.534 -0.1727  0.0522 -0.3766
 8740TIP3    H247636   6.597   0.847  15.475 -0.9104  0.1153  0.7334
 8741TIP3   OH247637   4.082   2.587  12.305  0.4445  0.0214 -0.4881
 8741TIP3    H147638   4.067   2.506  12.257 -1.5480 -1.3832  2.2167
 8741TIP3    H247639   4.177   2.599  12.302  0.7770 -2.2068 -1.2897
 8742TIP3   OH247640   0.666   4.604   1.290 -0.9093 -0.3801  0.4292
 8742TIP3    H147641   0.581   4.572   1.321 -3.2360  3.6518 -1.0304
 8742TIP3    H247642   0.709   4.636   1.369 -1.5809 -0.7650  0.9654
 8743TIP3   OH247643   3.095   3.308   4.100 -0.4524 -0.3438  0.0632
 8743TIP3    H147644   3.163   3.364   4.062 -0.5336 -0.8486 -0.8514
 8743TIP3    H247645   3.018   3.323   4.046 -1.0350  0.0960  0.9922
 8744TIP3   OH247646   4.455   3.950   4.766  0.0885  0.2091  0.0927
 8744TIP3    H147647   4.479   4.036   4.799  0.1602  0.3243 -0.2532
 8744TIP3    H247648   4.392   3.916   4.830  1.2567 -0.1451  1.0894
 8745TIP3   OH247649   3.748   1.889   0.573  0.5307 -0.4081 -0.1789
 8745TIP3    H147650   3.777   1.966   0.524  0.6961 -0.4784 -0.1927
 8745TIP3    H247651   3.753   1.916   0.665 -1.8443  0.4640 -0.2344
 8746TIP3   OH247652   2.613   5.057   0.758  0.1387 -0.1142 -0.3096
 8746TIP3    H147653   2.639   4.966   0.774 -1.1248 -0.3110  0.7329
 8746TIP3    H247654   2.692   5.108   0.776  1.1932 -1.0684 -2.0008
 8747TIP3   OH247655   5.606   1.064   6.200  0.0240 -0.5553  0.0761
 8747TIP3    H147656   5.570   1.021   6.123 -0.6409 -0.5811  0.3963
 8747TIP3    H247657   5.536   1.122   6.231  0.6877  0.2958  0.0078
 8748TIP3   OH247658   5.768   0.188  13.264 -0.6885  0.6539  0.2435
 8748TIP3    H147659   5.772   0.125  13.192 -0.2453  0.7438  0.1832
 8748TIP3    H247660   5.731   0.267  13.224 -2.7749 -0.0465  0.6902
 8749TIP3   OH247661   6.585   4.764   2.764  0.1718 -0.1027 -0.4867
 8749TIP3    H147662   6.639   4.837   2.796  1.4713 -1.1091 -0.2771
 8749TIP3    H247663   6.521   4.749   2.834  1.9419 -1.2146  1.0033
 8750TIP3   OH247664   1.371   2.714   0.039 -0.1780  0.7591  0.4250
 8750TIP3    H147665   1.362   2.805   0.011  1.1804  1.3369  1.7367
 8750TIP3    H247666   1.395   2.719   0.132  0.8737 -0.8742  0.2927
 8751TIP3   OH247667   4.846   0.633  14.837  0.3751  0.1329  0.5733
 8751TIP3    H147668   4.807   0.558  14.883 -0.4861  0.5642  0.5576
 8751TIP3    H247669   4.900   0.593  14.768 -2.5209 -0.4876 -1.4988
 8752TIP3   OH247670   1.781   6.186   3.941  0.0470  0.3330  0.6719
 8752TIP3    H147671   1.797   6.108   3.993 -2.4893  0.9058  2.4573
 8752TIP3    H247672   1.736   6.246   4.000 -0.2733  2.2083 -1.3520
 8753TIP3   OH247673   3.088   4.566  15.313 -0.2480  0.4603  0.3023
 8753TIP3    H147674   3.129   4.496  15.264 -2.0104 -0.6732  0.3491
 8753TIP3    H247675   3.126   4.646  15.278  0.6607 -0.4486 -0.8479
 8754TIP3   OH247676   6.662   0.119   5.626  0.2374  0.2461 -0.3290
 8754TIP3    H147677   6.723   0.079   5.688  1.6748 -0.8022 -2.2999
 8754TIP3    H247678   6.675   0.070   5.544 -3.1704  0.0600 -0.9157
 8755TIP3   OH247679   1.173   5.897   6.716 -0.2124  0.0983 -0.1081
 8755TIP3    H147680   1.161   5.992   6.721  1.2415  0.2983 -0.0015
 8755TIP3    H247681   1.253   5.880   6.766 -1.6974 -1.4857  1.8700
 8756TIP3   OH247682   6.318   6.438  14.592  1.0428 -0.3392  0.0659
 8756TIP3    H147683   6.399   6.485  14.574 -0.0408  0.9298 -1.7969
 8756TIP3    H247684   6.280   6.484  14.667  0.2991  1.4710 -1.3479
 8757TIP3   OH247685   2.598   6.592  14.165 -0.2030 -0.0359 -0.2658
 8757TIP3    H147686   2.558   6.647  14.232 -0.1677  0.1007 -0.3570
 8757TIP3    H247687   2.685   6.572  14.201 -0.0047  0.4260 -0.4827
 8758TIP3   OH247688   3.820   5.064   0.985 -0.4530  0.1175  0.4474
 8758TIP3    H147689   3.864   5.029   1.063 -0.1542 -2.8981 -0.9092
 8758TIP3    H247690   3.748   5.002   0.969 -0.6690  0.7992 -1.4812
 8759TIP3   OH247691   2.349   3.992  16.189  0.1493 -0.7244 -0.0075
 8759TIP3    H147692   2.334   4.019  16.280 -0.7371  0.7249 -0.5424
 8759TIP3    H247693   2.329   3.898  16.188 -3.2850 -0.1422  0.6533
 8760TIP3   OH247694   1.737   1.676  15.077  0.1322 -0.3423  0.0892
 8760TIP3    H147695   1.643   1.678  15.058  0.5160  0.6101 -1.8725
 8760TIP3    H247696   1.765   1.589  15.049  0.0553 -0.1809 -0.5014
 8761TIP3   OH247697   6.087   1.400  15.239  0.0123 -0.3391 -0.3099
 8761TIP3    H147698   6.004   1.396  15.190  0.3930 -1.7823 -0.9088
 8761TIP3    H247699   6.154   1.377  15.174  0.7940  0.0122  0.3557
 8762TIP3   OH247700   3.780   6.276   4.482 -0.0541 -0.4682  0.3469
 8762TIP3    H147701   3.693   6.250   4.514 -0.4899 -0.1183 -0.5274
 8762TIP3    H247702   3.775   6.264   4.388  0.7066 -0.0280  0.2464
 8763TIP3   OH247703   4.134   0.475   0.474 -0.7176 -0.5175 -0.0764
 8763TIP3    H147704   4.148   0.438   0.387 -0.6361 -0.9311  0.1096
 8763TIP3    H247705   4.059   0.427   0.509 -0.5150 -0.6193  0.2264
 8764TIP3   OH247706   6.423   3.116   0.081 -0.0235  0.5514  0.1333
 8764TIP3    H147707   6.393   3.040   0.132 -1.3774  1.7014  1.1488
 8764TIP3    H247708   6.494   3.082   0.026  0.0395 -1.2311  1.2333
 8765TIP3   OH247709   5.290   2.505   1.175 -0.0410  0.1029  0.4803
 8765TIP3    H147710   5.257   2.594   1.164 -0.6716 -0.0910  0.7742
 8765TIP3    H247711   5.359   2.497   1.109 -1.0432  0.2924 -0.6254
 8766TIP3   OH247712   5.758   4.731   3.916  0.1419 -0.1899  0.6239
 8766TIP3    H147713   5.674   4.686   3.912 -0.1778  0.4480 -0.1942
 8766TIP3    H247714   5.744   4.804   3.977  0.9782 -1.7668  2.8475
 8767TIP3   OH247715   1.731   4.680  14.936 -0.3973  0.0901  0.1101
 8767TIP3    H147716   1.680   4.723  15.004 -1.0802  3.0358 -2.0481
 8767TIP3    H247717   1.666   4.653  14.870  0.3323 -1.6894  0.0472
 8768TIP3   OH247718   5.279   5.806   4.372  0.1671  0.2900  0.1986
 8768TIP3    H147719   5.263   5.816   4.466  0.0704  1.0257  0.1090
 8768TIP3    H247720   5.374   5.813   4.363  0.1483  0.5970  0.2068
 8769TIP3   OH247721   5.570   5.669  11.852 -0.3119 -0.0124 -0.5937
 8769TIP3    H147722   5.629   5.600  11.821 -0.5620  0.4185 -2.1373
 8769TIP3    H247723   5.518   5.628  11.921  0.1457 -1.1006 -0.8834
 8770TIP3   OH247724   4.686   5.524   1.758  0.6132  0.0902 -0.0629
 8770TIP3    H147725   4.679   5.575   1.839  0.8620 -1.8946  1.2985
 8770TIP3    H247726   4.702   5.434   1.788  2.2118 -0.4810 -2.3559
 8771TIP3   OH247727   6.335   5.799  13.804  0.5243  0.4162  0.2757
 8771TIP3    H147728   6.251   5.807  13.760  0.3620 -0.9248  0.3003
 8771TIP3    H247729   6.351   5.885  13.841 -1.5768  0.2972  1.6103
 8772TIP3   OH247730   3.171   2.754  13.507 -0.9359 -0.3455 -0.3150
 8772TIP3    H147731   3.188   2.763  13.413 -0.5439 -0.7479 -0.2788
 8772TIP3    H247732   3.234   2.689  13.538 -0.0524  0.8625  0.5184
 8773TIP3   OH247733   1.905   5.158   5.634  0.2322  0.1643 -0.4259
 8773TIP3    H147734   1.886   5.176   5.726  3.4877 -0.7568  0.5683
 8773TIP3    H247735   1.830   5.109   5.602 -0.7888  0.1605  1.8657
 8774TIP3   OH247736   2.759   1.015   3.586 -0.1052  0.3002 -0.1086
 8774TIP3    H147737   2.758   1.106   3.618 -1.1636  0.6111 -0.9658
 8774TIP3    H247738   2.669   0.997   3.562  0.1418 -0.9105 -0.2032
 8775TIP3   OH247739   3.570   3.002   0.738 -0.4587  0.4195  0.0023
 8775TIP3    H147740   3.513   3.061   0.689 -0.5003 -0.3222 -0.8781
 8775TIP3    H247741   3.511   2.943   0.785 -0.4180  0.3669 -0.0121
 8776TIP3   OH247742   4.517   6.303   0.980 -0.3750  0.2092  0.2857
 8776TIP3    H147743   4.475   6.332   0.899 -0.3292  0.2764  0.2865
 8776TIP3    H247744   4.548   6.215   0.961  0.1607  0.4491  0.0417
 8777TIP3   OH247745   3.544   4.652   0.670 -0.7031 -0.3473  0.1807
 8777TIP3    H147746   3.535   4.563   0.635  1.7312 -0.6363  0.0887
 8777TIP3    H247747   3.519   4.644   0.762  1.5506 -1.7194  0.7776
 8778TIP3   OH247748   0.180   2.087   4.131 -0.2236  0.2046  0.1713
 8778TIP3    H147749   0.139   2.162   4.176 -1.1745 -0.2656  0.1224
 8778TIP3    H247750   0.241   2.127   4.069  0.0013  0.9099  0.8192
 8779TIP3   OH247751   3.784   3.857  16.565  0.1122 -0.1164 -0.3442
 8779TIP3    H147752   3.722   3.930  16.561  1.2057  0.8280 -0.5032
 8779TIP3    H247753   3.853   3.887  16.624  1.4379 -0.3487 -1.7300
 8780TIP3   OH247754   2.351   0.740   0.210  0.3346  0.0620  0.2533
 8780TIP3    H147755   2.386   0.829   0.221  3.0887 -0.9742  0.8210
 8780TIP3    H247756   2.398   0.705   0.134  1.5487 -1.8479  1.7880
 8781TIP3   OH247757   2.524   3.293   4.512  0.2699  0.0833  0.3880
 8781TIP3    H147758   2.519   3.352   4.588  1.6288 -1.3771  1.6751
 8781TIP3    H247759   2.600   3.324   4.463 -1.2953  1.7776 -1.1251
 8782TIP3   OH247760   3.779   3.644  14.175 -0.3828 -0.2731  0.1347
 8782TIP3    H147761   3.849   3.613  14.117  0.1011 -1.4073  1.2613
 8782TIP3    H247762   3.707   3.584  14.160 -0.4117 -0.2994  0.3673
 8783TIP3   OH247763   2.649   2.717  13.532  0.1203 -0.4650  0.6527
 8783TIP3    H147764   2.664   2.810  13.520  0.9000 -0.5372  0.9668
 8783TIP3    H247765   2.693   2.696  13.614 -1.7982 -0.7187  1.6845
 8784TIP3   OH247766   5.408   5.651   4.037 -0.4343 -0.9220 -0.4492
 8784TIP3    H147767   5.501   5.672   4.038 -0.8632  1.2129  1.0699
 8784TIP3    H247768   5.400   5.574   4.093  0.2529 -0.1945  0.6797
 8785TIP3   OH247769   0.093   4.518  15.707  0.5156 -0.1521  0.0988
 8785TIP3    H147770   0.076   4.430  15.741  0.8771  0.4213  1.8653
 8785TIP3    H247771   0.009   4.563  15.714  0.1782 -0.5077 -1.3751
 8786TIP3   OH247772   2.051   0.866  13.016 -0.5092 -0.0095 -0.0482
 8786TIP3    H147773   2.074   0.781  13.054  1.9802  0.5875 -0.0964
 8786TIP3    H247774   2.088   0.931  13.075 -0.0447  1.0027 -1.3908
 8787TIP3   OH247775   6.041   6.798   6.277 -0.4346 -0.4909  0.8068
 8787TIP3    H147776   6.006   6.782   6.365 -1.6804  3.0187  1.1440
 8787TIP3    H247777   6.025   6.892   6.263  0.1855 -0.8149 -2.9769
 8788TIP3   OH247778   6.057   1.217   0.357 -0.4497 -0.5320 -0.4911
 8788TIP3    H147779   6.038   1.154   0.426  1.9840  1.0920  1.8405
 8788TIP3    H247780   6.031   1.302   0.393  2.6973  0.6251 -0.6161
 8789TIP3   OH247781   4.079   6.682   1.625  0.3325  0.3168 -0.0384
 8789TIP3    H147782   4.150   6.725   1.576  1.4260 -0.6451  0.6260
 8789TIP3    H247783   4.104   6.690   1.717 -0.2195 -0.3610  0.1850
 8790TIP3   OH247784   6.300   6.086   1.431 -0.0886  0.1421  0.1471
 8790TIP3    H147785   6.300   6.176   1.464  1.5442  0.5651 -0.8852
 8790TIP3    H247786   6.362   6.088   1.358  0.6169 -2.0246  0.6272
 8791TIP3   OH247787   3.600   5.231  16.441 -0.2497  0.5361  0.0745
 8791TIP3    H147788   3.512   5.205  16.466 -0.7946  0.7785 -1.5375
 8791TIP3    H247789   3.636   5.156  16.395  0.3995  0.4536  0.6845
 8792TIP3   OH247790   5.139   5.183  14.262 -0.1109 -0.5330  0.2487
 8792TIP3    H147791   5.150   5.089  14.246 -0.4034 -0.4514 -0.4621
 8792TIP3    H247792   5.209   5.224  14.212 -0.6377 -0.3140 -0.3240
 8793TIP3   OH247793   5.120   0.659  16.947  0.2120  0.6170  0.3921
 8793TIP3    H147794   5.073   0.578  16.925  0.9680  0.0307  0.8906
 8793TIP3    H247795   5.206   0.648  16.906 -0.2081  1.9008 -0.9427
 8794TIP3   OH247796   4.301   3.849  15.739 -0.3719  0.2518  0.2847
 8794TIP3    H147797   4.237   3.825  15.807  0.4472  2.2172  1.8735
 8794TIP3    H247798   4.267   3.930  15.701 -0.2787 -0.2629 -0.9408
 8795TIP3   OH247799   4.024   3.497  15.126 -0.1304  0.1907  0.0270
 8795TIP3    H147800   4.008   3.492  15.032 -0.1622 -2.5623  0.0948
 8795TIP3    H247801   4.010   3.589  15.148  0.3107  1.0107 -2.7082
 8796TIP3   OH247802   4.772   6.530  15.540  0.2176  0.3415 -0.2315
 8796TIP3    H147803   4.823   6.603  15.576  1.5421 -1.0403  0.8426
 8796TIP3    H247804   4.734   6.564  15.460  0.3259  2.3783  0.5355
 8797TIP3   OH247805   2.914   0.787   3.658  0.0260 -0.0043  0.3091
 8797TIP3    H147806   2.915   0.881   3.637  0.6212 -0.3986 -1.5599
 8797TIP3    H247807   2.855   0.781   3.734  1.6797  2.1315  1.9024
 8798TIP3   OH247808   5.355   6.573  13.346  0.0319  0.7716  0.0731
 8798TIP3    H147809   5.377   6.493  13.299 -1.4790  0.3478  0.0538
 8798TIP3    H247810   5.306   6.626  13.283  0.8904  1.6736  0.1284
 8799TIP3   OH247811   2.905   4.686   2.122 -0.4572  0.1484 -0.2900
 8799TIP3    H147812   2.907   4.698   2.217  0.2963 -0.8297 -0.1743
 8799TIP3    H247813   2.925   4.773   2.087  0.2336  0.3031  0.4574
 8800TIP3   OH247814   6.458   2.760   5.376  0.6185 -0.4019  0.2886
 8800TIP3    H147815   6.385   2.807   5.335  0.2218 -2.0901 -1.0422
 8800TIP3    H247816   6.489   2.820   5.444 -1.1045  0.9452 -0.0280
 8801TIP3   OH247817   4.557   3.371  11.860  0.9504  0.1907  0.4511
 8801TIP3    H147818   4.536   3.284  11.825  1.5328 -0.5590  1.8917
 8801TIP3    H247819   4.480   3.424  11.839  0.0269 -1.0112  0.6797
 8802TIP3   OH247820   0.249   6.392  10.774 -0.4753 -0.3519  0.4632
 8802TIP3    H147821   0.170   6.342  10.791 -0.7298 -0.4070 -0.7557
 8802TIP3    H247822   0.221   6.465  10.719  0.4795 -1.1055 -1.1115
 8803TIP3   OH247823   2.951   0.246   4.771  0.2774  0.2788 -0.2567
 8803TIP3    H147824   2.974   0.322   4.824 -0.9214 -0.8825  2.0449
 8803TIP3    H247825   2.983   0.268   4.683  4.5401  1.3454  1.2860
 8804TIP3   OH247826   2.532   3.384   0.330  0.3927 -0.3220  0.0987
 8804TIP3    H147827   2.595   3.314   0.346  0.8609 -0.0764 -0.6179
 8804TIP3    H247828   2.564   3.427   0.250  1.4467  2.1860  1.7356
 8805TIP3   OH247829   0.706   0.900   4.670 -0.3764  0.5075  0.3752
 8805TIP3    H147830   0.732   0.971   4.729  0.1134  1.0118 -0.4314
 8805TIP3    H247831   0.614   0.919   4.651 -0.1443  1.1583 -0.1421
 8806TIP3   OH247832   2.846   0.399  13.413 -0.2411 -0.2144 -0.6822
 8806TIP3    H147833   2.779   0.331  13.421 -1.7693  1.2867 -0.2461
 8806TIP3    H247834   2.929   0.350  13.409 -1.3648 -2.1482 -1.9013
 8807TIP3   OH247835   2.841   6.625  14.716 -0.0176  0.1069  0.0829
 8807TIP3    H147836   2.866   6.665  14.633  0.7281  0.3172  0.4074
 8807TIP3    H247837   2.895   6.669  14.782  0.0685 -0.7085  0.5681
 8808TIP3   OH247838   6.051   5.617  14.305 -0.0783 -0.3496 -0.3241
 8808TIP3    H147839   6.034   5.540  14.250 -0.1605  1.0484 -2.3713
 8808TIP3    H247840   6.062   5.689  14.243  0.1368  1.2896  1.5104
 8809TIP3   OH247841   1.383   5.432   3.177  0.4677 -0.2462  0.2037
 8809TIP3    H147842   1.362   5.511   3.126 -0.4058 -1.5228 -1.4905
 8809TIP3    H247843   1.384   5.462   3.268 -1.8014  1.3408 -0.2122
 8810TIP3   OH247844   6.728   3.267  13.714  0.5611 -0.4209  0.2052
 8810TIP3    H147845   6.708   3.247  13.806  1.2144  0.0849  0.4622
 8810TIP3    H247846   6.792   3.201  13.689  2.4144  0.9773  0.9363
 8811TIP3   OH247847   4.500   2.540  14.728  0.6645 -0.2111  0.4460
 8811TIP3    H147848   4.546   2.623  14.717 -0.2710  0.5312  1.9179
 8811TIP3    H247849   4.470   2.518  14.639  0.9312  1.0110  0.0311
 8812TIP3   OH247850   1.667   1.119   1.457  0.0043 -0.2068  0.0340
 8812TIP3    H147851   1.611   1.090   1.528  1.3685 -1.0203  0.8072
 8812TIP3    H247852   1.705   1.039   1.421  0.7366  0.3283 -0.4262
 8813TIP3   OH247853   1.356   4.617  13.585 -0.0292  0.2922  0.0066
 8813TIP3    H147854   1.308   4.699  13.590  0.9061  0.8801 -0.3874
 8813TIP3    H247855   1.313   4.569  13.514 -0.3169  0.6166 -0.0441
 8814TIP3   OH247856   6.763   5.991   4.506  0.7760  0.0927 -0.5324
 8814TIP3    H147857   6.781   6.084   4.522  4.6245 -0.7610  1.2216
 8814TIP3    H247858   6.723   5.960   4.587 -1.6760  0.3335 -1.5567
 8815TIP3   OH247859   0.411   3.194   2.169 -0.1604 -0.0233 -0.0945
 8815TIP3    H147860   0.386   3.157   2.254  0.8231 -0.0828  0.1894
 8815TIP3    H247861   0.467   3.127   2.129  1.4569  1.0193  0.3272
 8816TIP3   OH247862   5.027   5.681   2.840  0.2925 -0.1526 -0.2247
 8816TIP3    H147863   5.110   5.646   2.873 -0.2448 -0.9184  0.3096
 8816TIP3    H247864   5.040   5.686   2.745  1.3867  0.8921 -0.0598
 8817TIP3   OH247865   4.767   4.162  12.509 -0.0432  0.0229 -0.7047
 8817TIP3    H147866   4.693   4.186  12.453 -1.0416 -1.1746  0.0271
 8817TIP3    H247867   4.744   4.075  12.542 -0.2553  1.1716  2.6749
 8818TIP3   OH247868   2.495   1.556  16.623 -0.1938 -0.0739  0.6929
 8818TIP3    H147869   2.478   1.466  16.595 -2.3306  0.4666  0.1286
 8818TIP3    H247870   2.467   1.610  16.550  1.4412  1.0919  0.8572
 8819TIP3   OH247871   4.070   0.451  13.840 -0.0841 -0.7011  0.4485
 8819TIP3    H147872   4.104   0.494  13.762  1.9845 -0.0399  1.6367
 8819TIP3    H247873   3.995   0.401  13.809  0.2270  0.1200 -1.8119
 8820TIP3   OH247874   0.461   2.213  12.750 -0.3791 -0.1660  0.0158
 8820TIP3    H147875   0.551   2.213  12.718 -0.5294  1.0893 -0.4610
 8820TIP3    H247876   0.464   2.160  12.830  0.7443 -0.2644 -0.0753
 8821TIP3   OH247877   5.600   0.686   2.295 -0.3519 -0.1952  0.7034
 8821TIP3    H147878   5.609   0.592   2.310 -1.2077 -0.4796 -0.4383
 8821TIP3    H247879   5.512   0.707   2.324  0.1098  0.4289  1.7023
 8822TIP3   OH247880   6.650   2.793   0.839 -0.4719  0.6987  0.1579
 8822TIP3    H147881   6.574   2.849   0.819 -1.8837 -0.9174  0.7998
 8822TIP3    H247882   6.724   2.840   0.800 -1.7622  2.3751 -0.4368
 8823TIP3   OH247883   4.789   4.288   0.025 -0.2254 -0.1953 -0.6469
 8823TIP3    H147884   4.816   4.243  -0.055  0.1745  0.5663 -0.9511
 8823TIP3    H247885   4.753   4.372  -0.006  0.2202  0.2371 -0.0144
 8824TIP3   OH247886   4.840   1.200  15.424 -0.5392  0.3589 -0.7389
 8824TIP3    H147887   4.751   1.171  15.401  0.1916 -3.2586  0.3437
 8824TIP3    H247888   4.829   1.290  15.453 -3.9229 -0.0168 -0.4241
 8825TIP3   OH247889   3.326   0.824   0.400 -0.1824 -0.1518 -0.1097
 8825TIP3    H147890   3.381   0.751   0.373 -0.2095 -1.3437  2.7716
 8825TIP3    H247891   3.346   0.838   0.492 -1.2458  2.5614 -0.1830
 8826TIP3   OH247892   2.551   6.123   5.308  0.2277  0.3629  0.1444
 8826TIP3    H147893   2.599   6.047   5.274  0.2503 -0.3332  1.6619
 8826TIP3    H247894   2.590   6.198   5.263  1.5623 -0.3430  0.0863
 8827TIP3   OH247895   2.031   1.839   4.074 -0.5388  0.4093  0.3559
 8827TIP3    H147896   2.098   1.857   4.141  2.3335 -0.4371 -2.0624
 8827TIP3    H247897   2.041   1.910   4.011  1.0744 -1.8298 -2.1143
 8828TIP3   OH247898   1.563   6.135   4.721 -0.0352 -0.4369 -0.2380
 8828TIP3    H147899   1.544   6.172   4.635 -4.3361 -0.5070  0.4304
 8828TIP3    H247900   1.605   6.207   4.769 -1.9379  1.3151 -1.0352
 8829TIP3   OH247901   3.668   2.365   3.028 -0.5846  0.6424  0.0895
 8829TIP3    H147902   3.715   2.288   3.059 -1.2261  0.2184  0.0302
 8829TIP3    H247903   3.636   2.340   2.941  1.9081  2.0944 -1.3833
 8830TIP3   OH247904   3.651   5.701   6.296  0.3910  0.2551 -0.2630
 8830TIP3    H147905   3.596   5.660   6.229 -0.1772 -0.8582  0.8316
 8830TIP3    H247906   3.591   5.716   6.370  1.8050 -2.6272  1.6703
 8831TIP3   OH247907   2.399   0.826  10.516 -0.1684  0.1788 -0.1949
 8831TIP3    H147908   2.438   0.779  10.590 -0.3790 -0.1668 -0.3059
 8831TIP3    H247909   2.336   0.765  10.479 -0.8266  0.7454 -0.0164
 8832TIP3   OH247910   3.397   5.197   0.789 -0.1949 -0.2664 -0.4460
 8832TIP3    H147911   3.425   5.116   0.746  0.2112 -1.0600  1.2276
 8832TIP3    H247912   3.473   5.224   0.841 -0.6161  0.7414 -0.3306
 8833TIP3   OH247913   5.834   3.144   2.790  0.4646  0.7846 -0.1291
 8833TIP3    H147914   5.795   3.230   2.805 -2.0046 -0.2997  0.0681
 8833TIP3    H247915   5.917   3.147   2.838 -0.1064  2.6465  0.8456
 8834TIP3   OH247916   2.139   2.945  10.954  0.0885 -0.0241 -0.3829
 8834TIP3    H147917   2.172   2.950  10.864  2.9253  0.8178  0.6123
 8834TIP3    H247918   2.127   3.036  10.980 -1.4009 -0.2855 -0.0980
 8835TIP3   OH247919   6.075   3.843   2.262 -0.0457  0.1441 -0.0860
 8835TIP3    H147920   6.056   3.907   2.193  1.7228  1.2077  0.3527
 8835TIP3    H247921   6.127   3.891   2.326  0.0591 -1.3527  1.0173
 8836TIP3   OH247922   0.563   0.505  15.867  0.1626 -0.1700  0.1241
 8836TIP3    H147923   0.558   0.470  15.956  0.7434  0.8950  0.6000
 8836TIP3    H247924   0.575   0.599  15.879 -0.0046  0.0239 -1.0903
 8837TIP3   OH247925   5.537   5.429   0.835 -0.7399 -0.0532 -0.0789
 8837TIP3    H147926   5.612   5.487   0.843 -0.7017 -0.0579 -0.4127
 8837TIP3    H247927   5.574   5.341   0.830 -0.4706  0.1088 -4.1303
 8838TIP3   OH247928   0.750   6.141   0.944 -0.1684  0.7486 -0.5939
 8838TIP3    H147929   0.805   6.086   0.888  0.5081 -0.8215  1.4716
 8838TIP3    H247930   0.661   6.115   0.923  0.0742  0.1897 -0.9502
 8839TIP3   OH247931   3.190   3.588  13.734 -0.3580  0.0006 -0.4380
 8839TIP3    H147932   3.267   3.639  13.760 -0.4324  1.0108 -2.0644
 8839TIP3    H247933   3.120   3.617  13.793 -0.0173  0.6427 -0.3455
 8840TIP3   OH247934   2.732   0.458   1.437 -0.3690 -0.2170  0.4615
 8840TIP3    H147935   2.717   0.397   1.509 -0.0176  1.0637  1.6555
 8840TIP3    H247936   2.770   0.536   1.478 -0.5450  0.7184 -1.0509
 8841TIP3   OH247937   6.639   6.581   1.021  0.3467 -0.5603 -0.0393
 8841TIP3    H147938   6.667   6.489   1.019  0.1532 -0.6992  1.7392
 8841TIP3    H247939   6.599   6.596   0.935  0.9137 -1.9640 -0.5752
 8842TIP3   OH247940   3.586   1.119   4.780 -0.4625 -0.5746  0.0648
 8842TIP3    H147941   3.588   1.171   4.699 -1.5097 -0.4919  0.0853
 8842TIP3    H247942   3.640   1.042   4.760  2.0697  0.9871  0.3893
 8843TIP3   OH247943   1.666   1.035   5.132  0.3905  0.0366 -0.5838
 8843TIP3    H147944   1.716   1.075   5.204 -1.0063  2.0229 -0.6128
 8843TIP3    H247945   1.699   1.078   5.053  0.4500 -0.5864 -0.9025
 8844TIP3   OH247946   0.765   2.046  13.247  0.4204  0.0439  0.6149
 8844TIP3    H147947   0.777   1.951  13.246 -0.2975 -0.0589  1.0554
 8844TIP3    H247948   0.854   2.081  13.245  0.6926 -0.6312  0.3058
 8845TIP3   OH247949   6.402   1.533   4.879  0.2477 -0.4464  0.5180
 8845TIP3    H147950   6.461   1.534   4.954  0.5610  0.0067  0.2707
 8845TIP3    H247951   6.442   1.471   4.818  1.1807  0.8200 -0.1998
 8846TIP3   OH247952   6.500   5.019  10.982  0.0236  0.2660 -0.3696
 8846TIP3    H147953   6.433   5.000  10.916 -1.5121  3.5710 -0.0106
 8846TIP3    H247954   6.579   5.039  10.931  0.0878 -1.3084 -0.9327
 8847TIP3   OH247955   1.621   0.373   3.538 -0.5065  0.6736  0.1711
 8847TIP3    H147956   1.559   0.301   3.523  0.2884 -0.1051  0.5354
 8847TIP3    H247957   1.594   0.441   3.476 -0.0527 -0.7134 -1.6383
 8848TIP3   OH247958   3.004   4.044   2.293  0.4118  0.4653 -0.3414
 8848TIP3    H147959   2.926   4.099   2.289 -0.3566 -0.6079 -0.6967
 8848TIP3    H247960   3.037   4.043   2.203  0.1838  0.0373 -0.4260
 8849TIP3   OH247961   1.396   1.697  11.859  0.0066  0.1771  0.1888
 8849TIP3    H147962   1.393   1.702  11.954 -1.0014 -0.4795  0.2021
 8849TIP3    H247963   1.489   1.695  11.838  0.2352  0.3628  1.1517
 8850TIP3   OH247964   5.832   5.696   2.692 -0.0517  0.3465 -0.3027
 8850TIP3    H147965   5.868   5.615   2.657  0.5819  0.2422  0.5653
 8850TIP3    H247966   5.760   5.717   2.633 -0.5353 -1.0945 -0.2617
 8851TIP3   OH247967   3.342   5.253  16.523  0.0771  0.0171 -0.4537
 8851TIP3    H147968   3.370   5.343  16.541 -0.2567 -0.1364  1.0345
 8851TIP3    H247969   3.309   5.255  16.433 -0.5675  1.5629 -0.2146
 8852TIP3   OH247970   5.386   6.733  16.087 -0.5127 -0.4590 -0.0858
 8852TIP3    H147971   5.450   6.769  16.025 -1.4013  1.9412  0.2727
 8852TIP3    H247972   5.431   6.733  16.171 -0.7469  0.7348  0.0693
 8853TIP3   OH247973   3.278   5.363  12.751  0.1885  0.2424 -0.1717
 8853TIP3    H147974   3.246   5.312  12.825 -0.2632  1.7111  0.6885
 8853TIP3    H247975   3.363   5.396  12.779  1.1478 -1.1512 -1.2791
 8854TIP3   OH247976   0.168   5.574  13.449  0.4535  0.3416 -0.0607
 8854TIP3    H147977   0.171   5.478  13.442  0.9018  0.0936  2.4368
 8854TIP3    H247978   0.109   5.590  13.522  0.0686  2.0078 -0.7131
 8855TIP3   OH247979   2.674   6.280  13.420  0.4689  0.4610 -0.8361
 8855TIP3    H147980   2.603   6.219  13.402  0.0598  0.3347  1.0289
 8855TIP3    H247981   2.643   6.332  13.494  2.3777  0.2736  0.1630
 8856TIP3   OH247982   4.221   1.493  14.305  0.2121 -0.0723 -0.0429
 8856TIP3    H147983   4.268   1.495  14.388  1.0630 -0.0081 -0.5175
 8856TIP3    H247984   4.262   1.422  14.256 -0.8272 -0.6533 -0.1085
 8857TIP3   OH247985   6.572   1.376  12.500 -0.4075  0.8703  0.0463
 8857TIP3    H147986   6.518   1.446  12.464  0.3735  1.1659 -0.5939
 8857TIP3    H247987   6.510   1.312  12.533 -1.1453  1.2738 -0.5217
 8858TIP3   OH247988   4.453   1.269   0.519  0.3758 -0.5923 -0.9268
 8858TIP3    H147989   4.538   1.229   0.536 -0.1997 -1.7971 -0.7760
 8858TIP3    H247990   4.459   1.302   0.429  0.9407 -0.8201 -0.9736
 8859TIP3   OH247991   6.317   4.712   4.819 -0.0359  0.1083  0.0614
 8859TIP3    H147992   6.268   4.641   4.861  0.6784  0.8584  2.3297
 8859TIP3    H247993   6.305   4.787   4.877  3.4250  0.4423  0.5961
 8860TIP3   OH247994   0.593   0.677   4.425 -0.0984 -0.2559 -0.0488
 8860TIP3    H147995   0.612   0.761   4.383  0.2791 -1.0124 -1.4564
 8860TIP3    H247996   0.674   0.656   4.472  0.1227 -0.2322 -0.4104
 8861TIP3   OH247997   4.782   1.604  12.954  0.3637  0.4015  0.5899
 8861TIP3    H147998   4.734   1.643  13.027  1.1156  0.8329  0.8767
 8861TIP3    H247999   4.870   1.588  12.989  1.2153  2.0383 -0.6187
 8862TIP3   OH248000   0.948   2.832   5.635  0.0209 -0.4285 -0.4852
 8862TIP3    H148001   0.980   2.914   5.598  0.0143  0.1618  0.7718
 8862TIP3    H248002   0.853   2.844   5.644  0.2281  0.1302  1.3196
 8863TIP3   OH248003   6.143   1.323  14.492  0.2988 -0.6751 -0.7953
 8863TIP3    H148004   6.062   1.288  14.528  0.6813 -0.0033  0.8291
 8863TIP3    H248005   6.166   1.262  14.421 -1.1631 -1.3422 -0.7399
 8864TIP3   OH248006   5.872   5.671  13.773  0.3130 -0.5294 -0.2412
 8864TIP3    H148007   5.876   5.615  13.696  0.4270 -0.6813 -0.1239
 8864TIP3    H248008   5.780   5.697  13.779  0.3708 -0.2282 -0.6352
 8865TIP3   OH248009   2.764   1.805  15.178 -0.0196 -0.1069  0.6195
 8865TIP3    H148010   2.825   1.875  15.155 -0.3340  0.9745  2.8198
 8865TIP3    H248011   2.816   1.725  15.175  0.1668  0.0263 -2.6963
 8866TIP3   OH248012   4.571   2.975   5.300  0.3376  0.8560 -0.4303
 8866TIP3    H148013   4.578   2.975   5.395  0.3956 -0.9895 -0.4046
 8866TIP3    H248014   4.478   2.958   5.283  0.5064  0.1136 -0.6745
 8867TIP3   OH248015   4.201   3.542  12.592  0.3076 -0.4155  0.7517
 8867TIP3    H148016   4.248   3.608  12.643 -1.8306  0.5076  1.6138
 8867TIP3    H248017   4.198   3.578  12.504  2.9386 -1.4498  0.1490
 8868TIP3   OH248018   2.393   5.476  11.606 -0.3256  0.0129 -0.6050
 8868TIP3    H148019   2.463   5.488  11.670  0.1327 -1.1304 -0.8701
 8868TIP3    H248020   2.438   5.465  11.523 -0.9063  1.1389 -1.0857
 8869TIP3   OH248021   0.843   0.468  12.507 -0.2988 -1.2337  0.3422
 8869TIP3    H148022   0.776   0.464  12.440 -0.6234 -1.9918  0.7004
 8869TIP3    H248023   0.925   0.480  12.459 -0.6410 -0.6637 -0.1125
 8870TIP3   OH248024   6.406   4.872  16.459  0.2704 -0.3565  0.3157
 8870TIP3    H148025   6.412   4.844  16.550  2.2428 -1.0261  0.0123
 8870TIP3    H248026   6.376   4.963  16.464 -2.0211 -1.0819  1.4845
 8871TIP3   OH248027   2.786   1.212   5.548  0.5022 -0.1820 -0.0937
 8871TIP3    H148028   2.840   1.208   5.469  0.0314 -1.2895 -0.3679
 8871TIP3    H248029   2.814   1.293   5.591 -0.4777  1.3910 -2.2780
 8872TIP3   OH248030   6.707   1.881  12.301  0.5093 -0.6158 -0.3923
 8872TIP3    H148031   6.625   1.901  12.346  0.2582  0.8563 -1.4260
 8872TIP3    H248032   6.766   1.851  12.370 -0.3520  0.0507  0.6584
 8873TIP3   OH248033   6.079   0.853   1.404  0.1960  0.3069 -0.1957
 8873TIP3    H148034   5.995   0.835   1.363  0.6926 -0.4503 -0.8909
 8873TIP3    H248035   6.063   0.838   1.498  0.0206 -1.6042 -0.5106
 8874TIP3   OH248036   2.298   4.407   1.646  0.5331  0.5850  0.1579
 8874TIP3    H148037   2.388   4.414   1.679  0.7399  1.0378 -0.4752
 8874TIP3    H248038   2.308   4.401   1.551 -0.1014  0.5515  0.0894
 8875TIP3   OH248039   2.424   5.638  14.347 -0.4717 -0.2595  0.6492
 8875TIP3    H148040   2.362   5.657  14.418 -0.5687  0.6826  0.3230
 8875TIP3    H248041   2.371   5.596  14.279 -0.0053 -3.1221  1.9244
 8876TIP3   OH248042   2.032   1.825  15.855  0.4670  0.1602  0.0549
 8876TIP3    H148043   2.012   1.759  15.788  2.5409 -0.2200 -0.2614
 8876TIP3    H248044   2.025   1.909  15.810 -0.8718  0.1117  0.1189
 8877TIP3   OH248045   2.265   6.724   5.289  0.2094  0.1202 -0.7179
 8877TIP3    H148046   2.297   6.737   5.379 -2.7551 -0.4972  0.5437
 8877TIP3    H248047   2.234   6.810   5.262 -1.7042 -0.2560  0.1173
 8878TIP3   OH248048   5.784   2.999   5.427 -0.3740  0.3098  0.5056
 8878TIP3    H148049   5.735   2.991   5.346 -1.4092  1.6785  0.9723
 8878TIP3    H248050   5.834   2.917   5.433 -0.4545  0.0939 -1.3708
 8879TIP3   OH248051   0.155   5.788  13.246 -0.0113  0.1300 -0.2964
 8879TIP3    H148052   0.102   5.785  13.326  0.3806 -0.1917 -0.0466
 8879TIP3    H248053   0.227   5.728  13.263 -0.5625 -0.8806 -1.3445
 8880TIP3   OH248054   0.708   2.314  11.806 -0.4803 -0.1957  0.8308
 8880TIP3    H148055   0.793   2.269  11.805 -0.3467 -0.0063 -1.3152
 8880TIP3    H248056   0.731   2.407  11.803 -0.7927  0.0118  2.9224
 8881TIP3   OH248057   5.208   2.335  11.547 -0.6358  0.0958  0.0760
 8881TIP3    H148058   5.227   2.398  11.617 -0.7880 -0.3307  0.5007
 8881TIP3    H248059   5.116   2.351  11.526 -0.4443  0.6033 -0.4184
 8882TIP3   OH248060   0.182   5.321   1.768  0.1266 -0.4033  0.2749
 8882TIP3    H148061   0.152   5.339   1.679 -0.0011  0.4227  0.4811
 8882TIP3    H248062   0.277   5.320   1.762  0.1252 -2.1642 -0.2101
 8883TIP3   OH248063   1.681   4.709  15.572 -0.6720 -0.1744 -0.3064
 8883TIP3    H148064   1.653   4.625  15.608 -0.5757  0.5210  1.5075
 8883TIP3    H248065   1.774   4.697  15.553 -0.5357 -0.3268  0.4395
 8884TIP3   OH248066   1.195   2.300   3.560 -0.5728 -0.0371  0.3452
 8884TIP3    H148067   1.220   2.208   3.572  0.3251  0.3451  1.6529
 8884TIP3    H248068   1.136   2.299   3.485  0.8649 -1.4387 -0.8375
 8885TIP3   OH248069   2.861   3.829  12.319  0.3735  0.2525 -0.5324
 8885TIP3    H148070   2.869   3.863  12.408  0.0047 -0.4288 -0.2255
 8885TIP3    H248071   2.768   3.838  12.299  0.5958  1.2273 -1.1998
 8886TIP3   OH248072   4.863   1.766   3.901 -0.1351  0.1877  0.4194
 8886TIP3    H148073   4.906   1.750   3.985 -0.0161  0.2285  0.3674
 8886TIP3    H248074   4.930   1.746   3.836 -0.5317 -0.7806  0.3015
 8887TIP3   OH248075   4.877   5.377   3.907 -0.1523 -0.2269  0.3000
 8887TIP3    H148076   4.941   5.351   3.841  0.2930 -0.5941  0.8602
 8887TIP3    H248077   4.930   5.403   3.982 -0.6542 -0.8642  0.8913
 8888TIP3   OH248078   2.271   4.360   2.391 -0.3121  0.3620  0.5266
 8888TIP3    H148079   2.328   4.295   2.433 -0.9667 -0.0430  0.8075
 8888TIP3    H248080   2.309   4.373   2.304  1.0020  1.1415  1.1934
 8889TIP3   OH248081   3.830   3.618  12.305  0.1307 -0.1813  0.1981
 8889TIP3    H148082   3.912   3.590  12.346  0.7820 -1.2816 -1.7406
 8889TIP3    H248083   3.766   3.612  12.376  1.5481 -0.0431  1.5675
 8890TIP3   OH248084   0.949   6.269  14.236  0.4370  0.3378  0.3473
 8890TIP3    H148085   0.975   6.206  14.168 -0.2601 -0.3407  0.7032
 8890TIP3    H248086   1.030   6.288  14.283  0.6944 -0.1390  0.1068
 8891TIP3   OH248087   4.603   2.652   1.635 -0.1654 -0.0027  0.1180
 8891TIP3    H148088   4.674   2.671   1.574 -1.2506 -0.0944 -1.2325
 8891TIP3    H248089   4.582   2.736   1.675 -1.9176  0.9129 -2.4647
 8892TIP3   OH248090   2.825   0.765   3.382 -0.5354 -0.1401 -0.5131
 8892TIP3    H148091   2.843   0.797   3.470 -0.9994  1.1458 -0.8782
 8892TIP3    H248092   2.912   0.757   3.342 -0.4123  0.6219 -0.4049
 8893TIP3   OH248093   1.377   5.582  14.066 -0.2820  0.1720  0.3591
 8893TIP3    H148094   1.382   5.613  14.157 -2.2538 -2.3533  1.4222
 8893TIP3    H248095   1.284   5.581  14.045  0.1730  1.8655 -2.2148
 8894TIP3   OH248096   2.879   5.278  13.265  0.2226 -0.4410  0.5916
 8894TIP3    H148097   2.802   5.304  13.315  0.6796 -1.5232  1.9374
 8894TIP3    H248098   2.855   5.194  13.226 -0.7865  1.2094 -2.6442
 8895TIP3   OH248099   3.947   6.636  16.029 -0.3856 -0.4301 -0.0818
 8895TIP3    H148100   3.984   6.710  16.076  1.3842 -0.2697 -1.5807
 8895TIP3    H248101   3.970   6.560  16.082  0.9605 -0.1954 -0.2877
 8896TIP3   OH248102   2.181   0.949   4.484 -0.1386  0.4829  0.2488
 8896TIP3    H148103   2.142   0.990   4.406  0.8750 -0.7651 -0.9730
 8896TIP3    H248104   2.262   0.908   4.451 -0.5795 -1.5868  1.5913
 8897TIP3   OH248105   2.515   0.704   2.683  0.3868 -0.3615  0.0393
 8897TIP3    H148106   2.589   0.669   2.632 -0.2165 -2.2340  0.3613
 8897TIP3    H248107   2.555   0.736   2.763  1.4278  3.1094 -1.6748
 8898TIP3   OH248108   0.302   5.823   5.226 -0.4126  0.4810  0.0169
 8898TIP3    H148109   0.226   5.877   5.204 -3.5246 -2.6272  2.0369
 8898TIP3    H248110   0.316   5.770   5.147 -2.7610 -1.2950  0.6693
 8899TIP3   OH248111   0.657   1.891   4.785 -0.2232  0.0397  0.3050
 8899TIP3    H148112   0.736   1.866   4.833 -0.9181 -1.3787  0.7586
 8899TIP3    H248113   0.611   1.950   4.844  0.1103  0.2531  0.3573
 8900TIP3   OH248114   6.754   2.565   5.119 -0.1942 -0.0165  0.1434
 8900TIP3    H148115   6.744   2.616   5.199 -3.6203  0.1969 -0.2702
 8900TIP3    H248116   6.845   2.534   5.121  1.2040  3.5847  1.8690
 8901TIP3   OH248117   2.660   1.675   4.765  0.1108  0.4114  0.1354
 8901TIP3    H148118   2.691   1.601   4.818 -0.5960  0.1746  0.2294
 8901TIP3    H248119   2.566   1.659   4.755  0.2246  0.4696 -1.1621
 8902TIP3   OH248120   4.192   4.466   5.462 -0.1806  0.2438  0.2252
 8902TIP3    H148121   4.273   4.515   5.445 -0.1803  0.2377  0.2090
 8902TIP3    H248122   4.152   4.457   5.376  0.3531 -0.7128  0.0669
 8903TIP3   OH248123   3.883   2.529  11.504  0.2475  0.0562  0.6134
 8903TIP3    H148124   3.924   2.566  11.426 -0.1727 -1.6962 -0.5095
 8903TIP3    H248125   3.894   2.596  11.572  0.1411  1.8785 -1.0751
 8904TIP3   OH248126   6.584   5.649   1.651 -0.5194  0.0890  0.6707
 8904TIP3    H148127   6.543   5.735   1.645 -1.5950 -0.4645 -0.4001
 8904TIP3    H248128   6.677   5.667   1.668 -0.4701  1.5065 -0.8876
 8905TIP3   OH248129   6.431   2.680   1.944 -0.7562  0.3325 -0.3750
 8905TIP3    H148130   6.413   2.592   1.911  0.0355  0.1461 -0.3330
 8905TIP3    H248131   6.349   2.708   1.984 -1.0429 -0.3483 -0.4744
 8906TIP3   OH248132   6.083   3.053   4.588 -0.8988  0.0909  0.0523
 8906TIP3    H148133   6.116   3.127   4.638 -1.0947 -0.1301  0.5082
 8906TIP3    H248134   6.034   3.000   4.651 -1.5276  0.0438 -0.4582
 8907TIP3   OH248135   2.889   0.505  11.024  0.3400 -0.5467  0.1333
 8907TIP3    H148136   2.888   0.482  11.117  0.4175  0.1094  0.2963
 8907TIP3    H248137   2.944   0.583  11.019  0.9799 -1.0243 -0.5693
 8908TIP3   OH248138   6.131   4.908   3.365 -0.0114 -0.0896 -0.1566
 8908TIP3    H148139   6.148   4.909   3.271 -0.5278 -2.0688 -0.3262
 8908TIP3    H248140   6.040   4.938   3.373 -0.1390 -0.4082 -0.3625
 8909TIP3   OH248141   2.453   4.312  11.850 -0.6543 -0.2389  0.3097
 8909TIP3    H148142   2.506   4.270  11.782 -1.8663  0.5252 -1.1648
 8909TIP3    H248143   2.368   4.270  11.844 -1.6040  1.6938 -0.5626
 8910TIP3   OH248144   5.668   6.145   5.500 -0.1766  0.0098  0.6473
 8910TIP3    H148145   5.657   6.202   5.424 -1.0731 -2.2371 -1.0118
 8910TIP3    H248146   5.617   6.187   5.569 -0.0108  1.6856 -0.2090
 8911TIP3   OH248147   4.097   0.223  17.103 -0.1100 -0.1322  0.4449
 8911TIP3    H148148   4.035   0.185  17.165  0.1267  2.1427  2.2016
 8911TIP3    H248149   4.045   0.245  17.026 -1.1679  0.2050  1.2339
 8912TIP3   OH248150   4.588   2.031   2.804  0.7347  0.0813  0.6021
 8912TIP3    H148151   4.492   2.024   2.804  0.6596  0.4918 -1.1438
 8912TIP3    H248152   4.614   1.997   2.718  2.2965 -1.3403  1.5772
 8913TIP3   OH248153   5.885   6.598   4.762  0.3023 -0.4238  0.1625
 8913TIP3    H148154   5.912   6.544   4.837  1.0411 -0.1972  0.0729
 8913TIP3    H248155   5.965   6.643   4.736  0.0834 -0.5942 -0.8477
 8914TIP3   OH248156   5.209   6.090  11.565  0.0816 -0.5030  0.2043
 8914TIP3    H148157   5.296   6.091  11.524  0.0884  1.0822  0.1803
 8914TIP3    H248158   5.212   6.015  11.625  1.5437 -0.3593  0.3663
 8915TIP3   OH248159   3.090   6.180   3.662 -1.0264  0.5469 -0.1888
 8915TIP3    H148160   3.002   6.198   3.695 -1.8041 -2.6170 -0.1683
 8915TIP3    H248161   3.132   6.131   3.733  0.0894  0.4220 -0.9099
 8916TIP3   OH248162   4.291   6.233   0.424 -0.3969 -0.5003  0.2194
 8916TIP3    H148163   4.265   6.307   0.478  2.3005  0.6730  0.0647
 8916TIP3    H248164   4.382   6.217   0.446 -0.1279 -2.0587 -1.6822
 8917TIP3   OH248165   6.750   6.436  15.016  0.5879 -0.5744 -0.0865
 8917TIP3    H148166   6.684   6.379  15.057  0.7628 -0.8107 -0.1325
 8917TIP3    H248167   6.703   6.481  14.947  0.4254 -0.5938  0.0104
 8918TIP3   OH248168   0.644   2.405   5.485  0.1138  0.8303  0.1364
 8918TIP3    H148169   0.727   2.382   5.527 -0.5173  0.1436  1.0567
 8918TIP3    H248170   0.669   2.441   5.399  1.3433  0.4811  0.3329
 8919TIP3   OH248171   3.120   1.834  15.556  0.1238  0.0817  0.4029
 8919TIP3    H148172   3.210   1.827  15.587  0.2480  0.3266  0.1054
 8919TIP3    H248173   3.100   1.750  15.516  1.0673  0.8139 -1.7557
 8920TIP3   OH248174   0.779   4.928   6.447  0.1052 -0.1680  0.0785
 8920TIP3    H148175   0.825   4.909   6.529  0.1742 -0.6725 -0.0719
 8920TIP3    H248176   0.806   5.017   6.424 -0.6429  0.3336  1.0867
 8921TIP3   OH248177   6.716   6.624  15.929  0.0646  0.4520 -0.2982
 8921TIP3    H148178   6.793   6.679  15.946 -2.1722  3.0335  2.6837
 8921TIP3    H248179   6.657   6.679  15.878 -1.4108  0.1078  0.9604
 8922TIP3   OH248180   6.135   0.390  13.592 -0.0464  0.5472 -0.2534
 8922TIP3    H148181   6.068   0.438  13.641  0.8027  1.5290 -0.0265
 8922TIP3    H248182   6.086   0.323  13.544 -0.9041 -0.4043  1.8581
 8923TIP3   OH248183   2.276   4.016   1.369  0.1864  0.0587 -0.6141
 8923TIP3    H148184   2.188   4.002   1.333 -0.0481 -1.1707  0.3337
 8923TIP3    H248185   2.268   3.991   1.461  0.8494  2.7587  0.2395
 8924TIP3   OH248186   0.670   3.450  14.068  0.1068  1.2512 -0.0752
 8924TIP3    H148187   0.717   3.451  14.151 -0.3103  1.6118  0.1597
 8924TIP3    H248188   0.726   3.501  14.009  1.3805 -0.6019 -0.5802
 8925TIP3   OH248189   5.099   0.848  13.575 -0.2293 -0.2215 -0.3191
 8925TIP3    H148190   5.117   0.929  13.527  0.4409 -0.9854 -1.4183
 8925TIP3    H248191   5.006   0.853  13.597 -0.5705  0.1685 -1.7349
 8926TIP3   OH248192   3.103   4.808  16.242  0.3933  0.3935  0.5884
 8926TIP3    H148193   3.152   4.765  16.173  2.7819  0.2399  2.2450
 8926TIP3    H248194   3.021   4.835  16.201 -0.5909 -4.1366 -1.0187
 8927TIP3   OH248195   5.797   4.365   1.386  0.0791  0.6555  0.5780
 8927TIP3    H148196   5.783   4.272   1.403  0.4745  0.3936 -0.4276
 8927TIP3    H248197   5.811   4.370   1.292  1.2168  1.5867  0.7733
 8928TIP3   OH248198   6.154   4.076  16.386  0.3009  0.0062  0.7114
 8928TIP3    H148199   6.229   4.017  16.395  1.1054  1.0824  1.1745
 8928TIP3    H248200   6.182   4.158  16.426 -0.2825  1.1996 -1.2226
 8929TIP3   OH248201   0.797   2.560  16.612  0.1962 -0.2819 -0.0308
 8929TIP3    H148202   0.734   2.490  16.625  0.2915 -0.5955 -1.1687
 8929TIP3    H248203   0.874   2.532  16.661 -0.4123 -0.0660  1.0703
 8930TIP3   OH248204   2.788   2.965   0.311  0.7302  0.3732  0.0176
 8930TIP3    H148205   2.850   2.952   0.239  0.5536 -2.2375  0.2335
 8930TIP3    H248206   2.839   2.945   0.389 -0.1790 -1.2631  0.2368
 8931TIP3   OH248207   3.965   3.075   3.181 -0.0218 -0.3082  0.4275
 8931TIP3    H148208   4.019   3.138   3.133 -1.5204 -0.3923 -1.4657
 8931TIP3    H248209   3.887   3.125   3.206 -0.2690 -0.8624  0.7830
 8932TIP3   OH248210   1.649   5.606   0.907  0.1208  0.1098  0.2731
 8932TIP3    H148211   1.741   5.612   0.881 -0.6228  1.4592 -2.4526
 8932TIP3    H248212   1.623   5.518   0.881  0.5517 -0.1617  0.7460
 8933TIP3   OH248213   5.868   5.321  12.432 -0.4776 -1.1396  0.2873
 8933TIP3    H148214   5.925   5.378  12.484  1.7417 -0.5231 -2.5857
 8933TIP3    H248215   5.805   5.381  12.392  2.1297 -0.3334 -3.0937
 8934TIP3   OH248216   3.311   1.500  16.064 -0.0952 -0.1875  0.1068
 8934TIP3    H148217   3.236   1.469  16.114  0.5115 -0.0908  1.1153
 8934TIP3    H248218   3.340   1.578  16.112  1.5811 -1.0921  0.6631
 8935TIP3   OH248219   3.512   2.395  14.520  0.2054  0.0475 -0.0234
 8935TIP3    H148220   3.433   2.349  14.492 -0.0305 -0.0126  0.7148
 8935TIP3    H248221   3.486   2.440  14.601 -0.2383  3.4065 -1.8612
 8936TIP3   OH248222   3.672   5.363  17.121  0.1732 -1.0140 -0.5018
 8936TIP3    H148223   3.716   5.435  17.076  1.3466 -1.8145 -0.6788
 8936TIP3    H248224   3.718   5.356  17.205  0.2261 -1.6998 -0.5838
 8937TIP3   OH248225   6.702   1.253  17.034 -0.3674  0.0363  0.1074
 8937TIP3    H148226   6.755   1.216  17.104 -0.9507  1.6656  1.4538
 8937TIP3    H248227   6.642   1.313  17.077 -2.2557 -0.5488 -1.5528
 8938TIP3   OH248228   3.201   4.529  15.957  0.4566 -0.1194  0.2326
 8938TIP3    H148229   3.281   4.516  15.906  0.3189  0.3717 -0.1146
 8938TIP3    H248230   3.214   4.612  16.002 -0.3934  0.6486 -0.8734
 8939TIP3   OH248231   2.868   5.930  15.114  0.1056 -0.0907  0.1319
 8939TIP3    H148232   2.890   5.874  15.039 -1.3199 -0.7680  0.1860
 8939TIP3    H248233   2.777   5.954  15.099  0.0266  0.3634  1.2889
 8940TIP3   OH248234   1.999   3.541  11.939  0.7181 -0.2189  0.3577
 8940TIP3    H148235   2.016   3.466  11.996  0.8692  0.5828  1.3974
 8940TIP3    H248236   2.085   3.562  11.902  0.3523 -1.8118 -1.6083
 8941TIP3   OH248237   0.547   4.037  13.705 -0.0861  0.8361 -0.1084
 8941TIP3    H148238   0.500   4.114  13.739  0.1912  1.0243 -0.1508
 8941TIP3    H248239   0.638   4.052  13.728 -0.0210  0.5457 -0.1714
 8942TIP3   OH248240   1.827   2.944   4.697  0.2913  0.1355 -0.0373
 8942TIP3    H148241   1.900   2.990   4.657  1.2102 -2.1874 -1.1877
 8942TIP3    H248242   1.789   2.892   4.627  0.2411 -1.9775  1.4497
 8943TIP3   OH248243   2.029   2.007  16.689 -0.1509 -1.1468  0.3878
 8943TIP3    H148244   2.110   2.018  16.639 -0.9926  2.1842 -0.5027
 8943TIP3    H248245   2.054   2.028  16.780 -0.0637  0.4252  0.0278
 8944TIP3   OH248246   4.589   2.416  11.559  0.4103 -1.0969  0.3000
 8944TIP3    H148247   4.494   2.413  11.545  0.6783 -1.0359 -1.8982
 8944TIP3    H248248   4.611   2.332  11.597 -0.4144 -1.5552 -0.2146
 8945TIP3   OH248249   2.589   0.311   1.654  0.2634  0.5620 -0.4065
 8945TIP3    H148250   2.540   0.308   1.736 -0.0343 -1.0254 -0.6046
 8945TIP3    H248251   2.681   0.308   1.681  0.1820  0.5997 -0.1178
 8946TIP3   OH248252   6.789   4.766  16.932  0.4061  0.3290  0.0843
 8946TIP3    H148253   6.710   4.782  16.984  0.6251  0.8845  0.2498
 8946TIP3    H248254   6.843   4.844  16.944  1.3824 -0.4130  0.6858
 8947TIP3   OH248255   1.145   2.894   0.489 -0.3685 -0.4652  0.0497
 8947TIP3    H148256   1.237   2.916   0.501 -0.9416  3.5319 -1.3504
 8947TIP3    H248257   1.105   2.911   0.574 -0.2338  0.8446 -0.1293
 8948TIP3   OH248258   5.519   4.123  11.392  0.2864 -0.2326 -0.4569
 8948TIP3    H148259   5.512   4.028  11.381  0.4880 -0.4337  1.0097
 8948TIP3    H248260   5.594   4.135  11.450  0.8283  0.8876 -1.3524
 8949TIP3   OH248261   1.324   4.407   3.574 -0.2988 -0.2300  0.3612
 8949TIP3    H148262   1.382   4.334   3.552  0.7865  1.2179 -2.0346
 8949TIP3    H248263   1.365   4.448   3.650  0.9549 -0.2059 -0.3007
 8950TIP3   OH248264   3.962   4.258  12.734 -0.4347 -0.4414 -0.6547
 8950TIP3    H148265   4.015   4.243  12.656 -0.5334 -1.7904 -0.4849
 8950TIP3    H248266   3.872   4.242  12.705 -0.5574 -0.0682 -0.4800
 8951TIP3   OH248267   5.074   1.711   3.535 -0.5266  0.4805 -0.2070
 8951TIP3    H148268   5.138   1.744   3.598 -0.7788  0.1111  0.2429
 8951TIP3    H248269   4.993   1.758   3.555 -1.3912 -1.5941  1.5993
 8952TIP3   OH248270   3.198   5.431   2.847 -0.2153 -0.4627  0.0084
 8952TIP3    H148271   3.171   5.470   2.764 -0.5590 -0.6767  0.0170
 8952TIP3    H248272   3.248   5.500   2.891  0.3072 -0.4791 -0.5448
 8953TIP3   OH248273   3.984   4.392  16.800 -0.2261 -0.2968 -0.4660
 8953TIP3    H148274   4.024   4.462  16.749  1.5321 -1.6548 -1.0467
 8953TIP3    H248275   3.923   4.350  16.740 -0.4286 -0.0046 -0.4689
 8954TIP3   OH248276   3.362   5.603  12.626  0.3257  0.1932  0.2387
 8954TIP3    H148277   3.301   5.551  12.678  0.6426 -0.3519  0.0761
 8954TIP3    H248278   3.416   5.649  12.691 -0.3766  0.8336  0.3811
 8955TIP3   OH248279   5.038   2.341  10.749 -0.0752  0.9837  0.3713
 8955TIP3    H148280   5.032   2.264  10.806  0.8159 -0.2693 -1.1387
 8955TIP3    H248281   5.005   2.413  10.803 -0.6215 -0.3765  1.9601
 8956TIP3   OH248282   4.461   5.555   6.258 -0.1178 -0.6619  0.6070
 8956TIP3    H148283   4.552   5.562   6.230 -0.3078 -2.5722 -0.7874
 8956TIP3    H248284   4.460   5.587   6.348  1.3177  2.2068 -0.2873
 8957TIP3   OH248285   6.581   0.102  15.303  0.1813  0.2729 -0.4193
 8957TIP3    H148286   6.616   0.119  15.390 -0.8488 -0.3589  0.1322
 8957TIP3    H248287   6.613   0.175  15.250 -1.4143  2.2019  1.1110
 8958TIP3   OH248288   2.035   1.856  11.466 -0.2305  0.7877 -0.6984
 8958TIP3    H148289   2.100   1.881  11.400  0.2767 -0.5914 -0.7612
 8958TIP3    H248290   1.994   1.777  11.431  0.7616 -0.5797  1.0406
 8959TIP3   OH248291   6.209   1.783  12.419  0.4597  0.2658  0.4980
 8959TIP3    H148292   6.131   1.824  12.380  0.0586 -0.7670  0.1797
 8959TIP3    H248293   6.184   1.692  12.431  0.8584  0.3722  2.4631
 8960TIP3   OH248294   0.233   1.084  11.204  0.6963 -0.1036  0.4354
 8960TIP3    H148295   0.184   1.076  11.122 -0.2139 -2.1722  1.0994
 8960TIP3    H248296   0.271   1.172  11.202  0.1602  0.1204 -1.8880
 8961TIP3   OH248297   1.744   4.706   3.240 -0.1506  0.2910  0.2276
 8961TIP3    H148298   1.777   4.794   3.222  0.7891 -0.2963 -1.1160
 8961TIP3    H248299   1.702   4.678   3.158  0.9164 -1.0719  0.1050
 8962TIP3   OH248300   6.456   3.394   4.879 -0.6245  0.4678  0.5577
 8962TIP3    H148301   6.448   3.347   4.796 -2.0719  1.4193  0.1322
 8962TIP3    H248302   6.540   3.364   4.915 -0.4527 -0.7279 -0.7496
 8963TIP3   OH248303   1.088   5.399   0.450 -0.2584 -0.9560 -0.0328
 8963TIP3    H148304   1.154   5.381   0.384 -2.0756 -1.2672 -1.8715
 8963TIP3    H248305   1.104   5.335   0.519 -0.0748 -2.6138 -1.5509
 8964TIP3   OH248306   6.488   6.191  16.205 -0.4208 -0.3849 -0.0811
 8964TIP3    H148307   6.577   6.210  16.176 -0.3504 -0.6422 -0.0407
 8964TIP3    H248308   6.445   6.154  16.128 -0.3708 -0.6334  0.0058
 8965TIP3   OH248309   2.020   0.854   2.722  0.1842  0.1554 -0.2761
 8965TIP3    H148310   2.000   0.843   2.814 -0.3523 -0.0347 -0.4117
 8965TIP3    H248311   2.022   0.949   2.709 -1.6070  0.2062 -0.4493
 8966TIP3   OH248312   3.070   6.145  15.130 -0.2331 -0.5775 -0.3586
 8966TIP3    H148313   3.001   6.081  15.112 -0.6399  0.1486 -1.4789
 8966TIP3    H248314   3.147   6.111  15.085 -0.3895 -0.3982 -0.7644
 8967TIP3   OH248315   1.655   5.316  12.966 -0.8841 -0.0617 -0.0953
 8967TIP3    H148316   1.654   5.300  12.871  0.6441  0.4224 -0.2341
 8967TIP3    H248317   1.653   5.411  12.974  2.6749  0.1397  0.1246
 8968TIP3   OH248318   0.287   0.971  10.897 -0.6710 -0.2133 -0.5039
 8968TIP3    H148319   0.199   0.957  10.863 -0.6922  0.6820 -0.8378
 8968TIP3    H248320   0.278   0.968  10.992 -1.5059  2.2980 -0.4534
 8969TIP3   OH248321   0.774   1.474  13.666 -0.6102  0.7602  0.2269
 8969TIP3    H148322   0.779   1.406  13.599 -1.2956  1.0717 -0.1526
 8969TIP3    H248323   0.865   1.486  13.694 -0.6556 -1.5369  1.5768
 8970TIP3   OH248324   0.628   4.234  14.764 -0.3875  0.4761  0.0246
 8970TIP3    H148325   0.574   4.312  14.773  0.4624  1.0478  0.2801
 8970TIP3    H248326   0.700   4.248  14.825 -0.4371 -0.6976  0.3724
 8971TIP3   OH248327   1.285   0.691  15.131 -0.1406  0.1913  0.2937
 8971TIP3    H148328   1.265   0.600  15.152 -2.1180  1.0568  2.5638
 8971TIP3    H248329   1.199   0.733  15.124  0.4884  1.2919 -4.2712
 8972TIP3   OH248330   2.299   1.881  12.152  0.4531  0.2479 -1.0807
 8972TIP3    H148331   2.290   1.950  12.086  0.5143  0.5937 -0.7350
 8972TIP3    H248332   2.252   1.915  12.228 -0.9429 -0.7998 -1.4285
 8973TIP3   OH248333   6.061   0.777  13.793 -0.0805 -0.1670  0.1007
 8973TIP3    H148334   6.047   0.803  13.884  0.4501  1.4175 -0.2323
 8973TIP3    H248335   6.026   0.688  13.787 -1.2601  0.1651  1.5404
 8974TIP3   OH248336   3.731   1.493  15.162 -0.3107 -0.7420  0.3105
 8974TIP3    H148337   3.821   1.499  15.196 -0.4073 -0.9608  0.6100
 8974TIP3    H248338   3.742   1.490  15.067  0.0436 -1.4233  0.3670
 8975TIP3   OH248339   0.988   3.790   4.018 -0.3382 -0.4993 -0.0894
 8975TIP3    H148340   1.013   3.775   4.109 -0.2613  1.4444  0.2588
 8975TIP3    H248341   1.071   3.785   3.970 -0.4460 -2.0346 -0.1630
 8976TIP3   OH248342   6.600   5.156   5.271  0.6924 -0.2242  0.4831
 8976TIP3    H148343   6.586   5.139   5.364  0.0117 -2.3063  0.0611
 8976TIP3    H248344   6.548   5.234   5.253 -1.1388 -1.1414  1.4014
 8977TIP3   OH248345   1.800   5.155  10.560  0.0210  0.5418  0.6666
 8977TIP3    H148346   1.781   5.165  10.467  3.9992 -0.0443 -0.3694
 8977TIP3    H248347   1.837   5.240  10.586 -0.9761  0.6732  1.7477
 8978TIP3   OH248348   4.665   5.291   4.638 -0.0111  0.5310 -0.6391
 8978TIP3    H148349   4.651   5.238   4.559  1.6191  1.4023 -1.5622
 8978TIP3    H248350   4.750   5.332   4.625 -1.2375  3.5674 -0.0995
 8979TIP3   OH248351   5.926   4.670  17.126  0.0713 -0.3343  0.1492
 8979TIP3    H148352   5.999   4.620  17.162 -0.1181  0.5454  1.8568
 8979TIP3    H248353   5.852   4.609  17.126  0.7634 -1.2234 -1.5673
 8980TIP3   OH248354   0.256   3.074   0.382  0.4360  0.1527  0.3141
 8980TIP3    H148355   0.238   3.005   0.445  0.8277  0.6507  0.9906
 8980TIP3    H248356   0.274   3.151   0.435  0.6103  0.6289 -0.4124
 8981TIP3   OH248357   0.860   1.750  15.071  0.1899 -0.4196 -0.0379
 8981TIP3    H148358   0.896   1.661  15.077 -1.0920 -1.0542 -1.2348
 8981TIP3    H248359   0.918   1.795  15.009  0.0359 -0.8469 -0.4968
 8982TIP3   OH248360   5.335   4.440  16.168 -0.5578 -0.0028 -0.0748
 8982TIP3    H148361   5.281   4.519  16.178 -1.3279 -0.6839  1.3650
 8982TIP3    H248362   5.295   4.394  16.094  0.0662  1.0526 -1.1119
 8983TIP3   OH248363   2.444   0.074   5.498 -0.4376 -0.2411  0.6172
 8983TIP3    H148364   2.445   0.170   5.498 -0.3117 -0.2375  0.0119
 8983TIP3    H248365   2.485   0.049   5.580  0.2785  0.2209  0.4038
 8984TIP3   OH248366   5.530   0.704  14.723 -0.1630  0.2105 -0.0283
 8984TIP3    H148367   5.584   0.740  14.794 -1.0435  1.3410  0.0985
 8984TIP3    H248368   5.502   0.780  14.673 -0.4890 -0.4805 -0.9224
 8985TIP3   OH248369   0.570   4.627   5.469 -0.4079 -0.1820 -0.2061
 8985TIP3    H148370   0.577   4.721   5.454 -0.0898 -0.4899 -2.2851
 8985TIP3    H248371   0.642   4.607   5.529 -1.1679  1.0287  1.1930
 8986TIP3   OH248372   4.210   1.778   3.913  0.0527  0.2437 -0.4840
 8986TIP3    H148373   4.243   1.797   3.825 -1.2101 -1.4436 -1.3892
 8986TIP3    H248374   4.213   1.862   3.959  2.4127  0.8109 -1.5376
 8987TIP3   OH248375   2.548   6.118   1.183 -0.3276 -0.0441  0.3587
 8987TIP3    H148376   2.541   6.067   1.264  0.8300 -0.1191  0.4225
 8987TIP3    H248377   2.534   6.054   1.113  2.8174 -0.8770  0.3674
 8988TIP3   OH248378   4.985   0.927   2.659  0.4074  0.1550 -0.0875
 8988TIP3    H148379   4.942   0.886   2.584  1.9387  0.8564 -1.4086
 8988TIP3    H248380   5.001   1.017   2.631  2.2868  0.0452  0.5211
 8989TIP3   OH248381   5.399   0.077   3.414 -0.9353 -0.2897  0.1595
 8989TIP3    H148382   5.376   0.146   3.477 -1.2960  0.8380 -1.1528
 8989TIP3    H248383   5.440   0.125   3.341 -0.5262 -1.5559 -0.4640
 8990TIP3   OH248384   2.221   0.568  16.110  0.7587 -0.5241  0.9608
 8990TIP3    H148385   2.239   0.634  16.043  1.2263 -2.2940 -0.7534
 8990TIP3    H248386   2.164   0.612  16.172  1.1370  1.5143 -0.0522
 8991TIP3   OH248387   2.228   0.490   1.505 -0.0995 -0.3503 -0.2314
 8991TIP3    H148388   2.306   0.539   1.480  0.4765 -0.8257  0.5688
 8991TIP3    H248389   2.261   0.404   1.530 -0.7641 -0.3074  0.8912
 8992TIP3   OH248390   2.599   4.103   4.726 -0.3590 -0.0293 -0.0320
 8992TIP3    H148391   2.590   4.029   4.786 -0.9431  1.2703  1.5457
 8992TIP3    H248392   2.524   4.096   4.668 -0.0484 -1.0318 -0.3452
 8993TIP3   OH248393   4.905   3.259  16.146 -0.1772 -0.8296  0.1517
 8993TIP3    H148394   4.953   3.294  16.071 -0.9276 -0.0254  0.0277
 8993TIP3    H248395   4.813   3.267  16.121 -0.4401 -0.5121  1.1726
 8994TIP3   OH248396   5.194   5.883   3.621  0.0628  0.1589  0.4474
 8994TIP3    H148397   5.283   5.910   3.598  0.3090 -0.3326  0.7973
 8994TIP3    H248398   5.142   5.963   3.616  0.4899  0.4146  0.0666
 8995TIP3   OH248399   4.288   1.103  16.369  0.1470  0.2312  0.2511
 8995TIP3    H148400   4.346   1.081  16.296 -0.5967  0.4985 -0.4353
 8995TIP3    H248401   4.215   1.149  16.329  0.3326  1.5193  1.3163
 8996TIP3   OH248402   4.121   4.892  11.670  0.4587  0.4910 -0.1777
 8996TIP3    H148403   4.136   4.979  11.634  2.6096  0.6241  0.8975
 8996TIP3    H248404   4.074   4.907  11.751 -1.0968  0.4455 -1.0269
 8997TIP3   OH248405   5.576   2.188  16.566 -0.4650  0.0803 -0.0797
 8997TIP3    H148406   5.554   2.278  16.590 -0.9518 -0.4782  1.6734
 8997TIP3    H248407   5.659   2.170  16.611  0.5943  0.2114 -1.8778
 8998TIP3   OH248408   4.463   3.483   2.198 -0.1553  0.0106 -0.6513
 8998TIP3    H148409   4.446   3.395   2.167  1.6949  0.1474 -2.2447
 8998TIP3    H248410   4.410   3.540   2.141 -0.7679 -0.0017 -0.1105
 8999TIP3   OH248411   3.611   2.471   1.032  0.1390 -0.4207 -0.2377
 8999TIP3    H148412   3.696   2.432   1.050  1.4917  2.3317 -0.1776
 8999TIP3    H248413   3.607   2.475   0.936  0.2034 -0.2779 -0.2341
 9000TIP3   OH248414   0.204   1.967  16.890 -0.3915  0.0987 -0.4022
 9000TIP3    H148415   0.199   2.059  16.866  1.4953  0.5932  0.8423
 9000TIP3    H248416   0.227   1.922  16.809  0.1560  0.9533 -0.7391
 9001TIP3   OH248417   2.190   0.418   5.685 -0.6362 -0.5845  0.9347
 9001TIP3    H148418   2.232   0.334   5.703 -0.6430 -1.3727 -2.2820
 9001TIP3    H248419   2.099   0.395   5.668 -0.7371  0.1332  0.4987
 9002TIP3   OH248420   3.186   5.256   2.395 -0.1724 -0.0108 -0.2726
 9002TIP3    H148421   3.201   5.234   2.304  1.4046 -0.9244  0.1837
 9002TIP3    H248422   3.251   5.323   2.415 -0.2542 -0.0930  0.2946
 9003TIP3   OH248423   4.064   2.191  13.326 -0.7436  0.3795 -0.2434
 9003TIP3    H148424   4.068   2.177  13.421 -2.6664 -2.1436 -0.4483
 9003TIP3    H248425   4.083   2.106  13.288  0.0964  1.3703 -2.1913
 9004TIP3   OH248426   1.924   5.419   2.075  0.7519  0.6736 -0.4437
 9004TIP3    H148427   1.956   5.370   1.999  1.0141 -1.3905  0.9040
 9004TIP3    H248428   1.887   5.352   2.132  1.4242  2.0099  1.6849
 9005TIP3   OH248429   6.328   4.161  13.314  0.0124 -0.0598 -0.0140
 9005TIP3    H148430   6.400   4.169  13.250 -0.4001 -0.5623 -0.5581
 9005TIP3    H248431   6.295   4.072  13.301 -0.5743  0.0957  0.3768
 9006TIP3   OH248432   0.650   3.239   2.653  0.4284 -0.0497  0.1429
 9006TIP3    H148433   0.737   3.258   2.688  0.5554 -1.2689  0.5199
 9006TIP3    H248434   0.661   3.247   2.558  1.0444 -0.5329  0.1651
 9007TIP3   OH248435   2.271   5.055  10.888 -0.3243  0.0757  0.0326
 9007TIP3    H148436   2.344   5.026  10.834  0.5873 -0.8661  1.6887
 9007TIP3    H248437   2.274   5.151  10.882  0.7605  0.0368 -0.2914
 9008TIP3   OH248438   5.782   1.810   5.728 -0.4563 -0.2010  0.2638
 9008TIP3    H148439   5.856   1.821   5.669  0.7689 -2.1605  1.2971
 9008TIP3    H248440   5.707   1.794   5.671  0.7485 -2.3558 -0.8243
 9009TIP3   OH248441   2.482   2.864  16.182 -0.0291  0.2957 -0.1692
 9009TIP3    H148442   2.406   2.903  16.138 -0.8617 -2.0366 -0.9462
 9009TIP3    H248443   2.445   2.797  16.239  1.4060 -0.8071 -0.4687
 9010TIP3   OH248444   6.373   2.868   3.617 -0.6303  0.8574 -0.4842
 9010TIP3    H148445   6.420   2.784   3.612  1.1427  1.8479 -2.9711
 9010TIP3    H248446   6.395   2.903   3.703  1.2544  0.1674 -0.6395
 9011TIP3   OH248447   1.710   1.777  14.309 -0.1838  0.0739 -0.0661
 9011TIP3    H148448   1.673   1.691  14.326 -0.3550 -0.2506 -1.9347
 9011TIP3    H248449   1.635   1.831  14.284 -0.0218  0.6757  0.7129
 9012TIP3   OH248450   0.580   5.282   2.013  0.2121 -0.7743 -0.3124
 9012TIP3    H148451   0.651   5.229   1.976 -0.5905 -1.8382 -0.3964
 9012TIP3    H248452   0.513   5.218   2.037 -2.0150  0.3368 -2.9910
 9013TIP3   OH248453   2.605   4.088   4.195  0.9001 -0.3719  0.4507
 9013TIP3    H148454   2.527   4.054   4.239 -1.1108  1.8792 -1.1502
 9013TIP3    H248455   2.662   4.117   4.266 -0.1458 -1.1441  1.6527
 9014TIP3   OH248456   1.944   2.542   2.240 -0.3055 -0.3307  1.0201
 9014TIP3    H148457   1.931   2.533   2.145 -0.3504 -0.9411  1.0782
 9014TIP3    H248458   1.933   2.453   2.274 -1.1491  0.0128  1.7008
 9015TIP3   OH248459   3.406   1.297  10.583  0.2590 -0.3543  0.5967
 9015TIP3    H148460   3.337   1.234  10.560  0.8315 -0.1419 -2.0911
 9015TIP3    H248461   3.363   1.382  10.581  0.2769 -0.3487  0.4439
 9016TIP3   OH248462   6.294   4.052   1.162 -0.1948 -0.0849  0.3335
 9016TIP3    H148463   6.300   3.957   1.168 -0.5103 -0.1288 -0.0049
 9016TIP3    H248464   6.313   4.072   1.070  2.2284  0.3807  0.8701
 9017TIP3   OH248465   3.382   3.376   1.323  0.4439 -0.3937  0.8049
 9017TIP3    H148466   3.348   3.421   1.246  0.8649 -0.7151  0.4316
 9017TIP3    H248467   3.472   3.408   1.332  0.2055  0.1249  1.5394
 9018TIP3   OH248468   6.021   1.074  12.880  0.2714 -0.2211 -0.2538
 9018TIP3    H148469   6.035   1.003  12.942  1.5200 -1.7769 -2.1667
 9018TIP3    H248470   5.927   1.074  12.863  0.2809 -1.6408 -0.4137
 9019TIP3   OH248471   1.077   5.019   1.696 -0.1963 -0.8779  0.0188
 9019TIP3    H148472   1.000   5.057   1.654 -0.6584 -1.5352  0.2597
 9019TIP3    H248473   1.048   4.996   1.784  0.1975 -1.3698  0.0265
 9020TIP3   OH248474   5.359   6.636  14.942 -0.3875  0.4250 -0.5718
 9020TIP3    H148475   5.327   6.587  14.866 -0.4507  1.4660 -1.2386
 9020TIP3    H248476   5.305   6.606  15.015  0.9848 -2.0814 -0.4789
 9021TIP3   OH248477   3.709   3.173  14.803  0.1227 -0.1019 -0.0725
 9021TIP3    H148478   3.630   3.212  14.840  0.6986  0.2662  0.8059
 9021TIP3    H248479   3.728   3.098  14.860 -0.1601 -0.8046 -0.8883
 9022TIP3   OH248480   0.924   6.653   3.875  0.2813 -0.0507 -0.6239
 9022TIP3    H148481   0.895   6.728   3.822  1.2480 -0.0931 -1.2236
 9022TIP3    H248482   0.998   6.686   3.925 -1.7743  0.5991  2.3028
 9023TIP3   OH248483   3.089   2.615   4.441  0.2333 -0.0774  0.2619
 9023TIP3    H148484   3.041   2.683   4.394 -0.1194  0.0907  0.8455
 9023TIP3    H248485   3.072   2.535   4.392 -0.6529 -0.0194  0.4547
 9024TIP3   OH248486   5.495   1.923  15.320 -0.0910 -0.4995 -0.4485
 9024TIP3    H148487   5.559   1.982  15.279 -0.1411  0.2906  0.5779
 9024TIP3    H248488   5.519   1.921  15.412 -0.7190 -1.2996 -0.2897
 9025TIP3   OH248489   4.099   3.530  12.027 -0.6103  0.0560 -0.4072
 9025TIP3    H148490   4.025   3.589  12.045 -0.8978 -0.7520  1.2611
 9025TIP3    H248491   4.064   3.465  11.967 -0.3436  1.4183 -2.1208
 9026TIP3   OH248492   4.474   4.128   0.349  0.1030  0.4107 -0.3673
 9026TIP3    H148493   4.535   4.062   0.317 -0.9402  0.3309 -2.3899
 9026TIP3    H248494   4.518   4.212   0.334 -0.3011  0.3650 -1.9964
 9027TIP3   OH248495   4.338   3.029   5.681 -0.5420  0.1553 -0.7294
 9027TIP3    H148496   4.275   2.959   5.697 -1.5491  1.0519 -0.6508
 9027TIP3    H248497   4.296   3.108   5.715  0.1892  0.9475 -1.6032
 9028TIP3   OH248498   1.672   2.749  12.163 -0.0934  0.0477  0.6071
 9028TIP3    H148499   1.738   2.764  12.095 -1.1492 -1.7409 -0.9290
 9028TIP3    H248500   1.722   2.723  12.240  1.0430 -0.1969 -0.1836
 9029TIP3   OH248501   1.850   3.200  16.164  0.3643 -0.2412 -0.0978
 9029TIP3    H148502   1.764   3.219  16.127  1.0753  1.2046 -1.0929
 9029TIP3    H248503   1.902   3.169  16.090  1.0754  0.1780  0.2178
 9030TIP3   OH248504   5.027   1.462   2.523  0.2077  0.3383 -0.6165
 9030TIP3    H148505   5.096   1.439   2.585 -1.4145  0.9215  1.5213
 9030TIP3    H248506   4.983   1.379   2.505  0.3966  0.2398 -0.6268
 9031TIP3   OH248507   1.087   1.737   3.673  0.2879 -0.2899 -0.4417
 9031TIP3    H148508   0.996   1.720   3.652 -0.4749  0.5300  1.8351
 9031TIP3    H248509   1.136   1.672   3.623 -1.5977 -1.3789 -0.9753
 9032TIP3   OH248510   2.294   1.180  11.608 -0.3005  1.1510  0.0799
 9032TIP3    H148511   2.369   1.240  11.612  0.9237 -0.1799 -1.5370
 9032TIP3    H248512   2.292   1.139  11.695 -0.4358  2.6516  0.8118
 9033TIP3   OH248513   5.260   4.331   2.512 -0.3869 -0.2799 -0.0937
 9033TIP3    H148514   5.232   4.252   2.559 -0.6456 -0.9651 -1.3674
 9033TIP3    H248515   5.184   4.355   2.459 -0.3678  0.9347  0.4033
 9034TIP3   OH248516   2.716   4.504  12.730  0.2304 -0.2083 -0.2895
 9034TIP3    H148517   2.663   4.576  12.763 -0.3561 -1.0154  0.5899
 9034TIP3    H248518   2.807   4.531  12.745  0.0368  0.5834 -0.5187
 9035TIP3   OH248519   0.268   6.273   4.150 -0.1228 -0.3634 -0.3672
 9035TIP3    H148520   0.182   6.284   4.110  0.2332  0.1838 -1.0001
 9035TIP3    H248521   0.318   6.349   4.121  0.0880  0.1712  1.2801
 9036TIP3   OH248522   2.175   2.008   6.411  0.2828  0.3561 -0.0225
 9036TIP3    H148523   2.149   1.915   6.410  0.1843  0.3843 -0.1306
 9036TIP3    H248524   2.268   2.007   6.391 -0.0447  0.3854 -1.7211
 9037TIP3   OH248525   5.590   4.898   2.145  0.3144 -0.2212 -0.2112
 9037TIP3    H148526   5.546   4.813   2.154 -0.6088  0.1118 -1.3400
 9037TIP3    H248527   5.594   4.913   2.051  1.9726  0.2433 -0.1049
 9038TIP3   OH248528   0.562   4.144  16.168 -0.0346 -0.3989  0.1564
 9038TIP3    H148529   0.656   4.155  16.154 -0.4888  1.2717 -2.1892
 9038TIP3    H248530   0.528   4.118  16.082 -1.7105 -1.1429  1.0063
 9039TIP3   OH248531   5.983   6.130   5.739  0.2276 -0.2742 -0.2597
 9039TIP3    H148532   5.896   6.093   5.755 -0.3591 -0.0687 -2.6044
 9039TIP3    H248533   5.985   6.211   5.790 -0.3801 -0.9920  0.9539
 9040TIP3   OH248534   5.386   1.050  14.365  0.1549  0.2339 -0.1250
 9040TIP3    H148535   5.396   1.027  14.273  0.5107  0.6273 -0.1864
 9040TIP3    H248536   5.365   1.143  14.365  2.6522  0.8741  0.2870
 9041TIP3   OH248537   2.459   6.287  10.710  0.1163 -0.0670  0.3769
 9041TIP3    H148538   2.536   6.331  10.743  0.7772  1.0148 -2.3620
 9041TIP3    H248539   2.410   6.355  10.664 -0.5547 -1.4683 -1.0735
 9042TIP3   OH248540   1.773   4.402   0.175 -0.6201 -0.0893 -0.2507
 9042TIP3    H148541   1.811   4.342   0.239  0.8370  0.1472 -0.8439
 9042TIP3    H248542   1.679   4.384   0.177 -0.1941 -2.7624 -0.8070
 9043TIP3   OH248543   4.899   2.992  11.001 -0.1681 -0.3673 -0.3268
 9043TIP3    H148544   4.981   3.039  10.984 -1.2372  1.4675 -0.7664
 9043TIP3    H248545   4.877   2.952  10.917  1.2474 -2.6136  0.2903
 9044TIP3   OH248546   3.886   3.724   1.461 -0.1663 -0.4359  0.0986
 9044TIP3    H148547   3.862   3.801   1.513 -1.0505 -0.0565 -0.8475
 9044TIP3    H248548   3.951   3.678   1.515  0.1428  0.7981  0.8144
 9045TIP3   OH248549   5.034   3.558  12.257  0.1020  0.7257 -1.1582
 9045TIP3    H148550   5.104   3.563  12.193  1.2295 -0.7208 -0.1128
 9045TIP3    H248551   4.970   3.499  12.218  0.3528  0.5843 -1.3593
 9046TIP3   OH248552   4.621   4.404   3.039 -0.4984  0.5434 -0.2075
 9046TIP3    H148553   4.536   4.378   3.004 -0.6304  1.1579 -0.3511
 9046TIP3    H248554   4.682   4.338   3.005 -0.7894  0.5516 -0.7592
 9047TIP3   OH248555   4.523   2.153   4.463  0.1078  0.2513 -0.4943
 9047TIP3    H148556   4.505   2.227   4.521 -2.2710 -0.7532  0.1692
 9047TIP3    H248557   4.489   2.181   4.378  0.2594  0.3540 -0.5211
 9048TIP3   OH248558   4.497   1.278  11.310  0.3768  0.0004 -0.4022
 9048TIP3    H148559   4.478   1.192  11.346  0.3276  1.0483  2.3389
 9048TIP3    H248560   4.592   1.280  11.301  0.6427  0.4141  1.8765
 9049TIP3   OH248561   4.303   5.227   1.884  0.1503  0.1500  0.5338
 9049TIP3    H148562   4.395   5.209   1.864  0.1180  0.7061 -0.1476
 9049TIP3    H248563   4.254   5.173   1.823  0.0314  0.3205  0.4770
 9050TIP3   OH248564   3.828   4.401   0.854 -0.9345 -0.7967  0.5730
 9050TIP3    H148565   3.797   4.324   0.902  2.3748 -2.8600 -0.2813
 9050TIP3    H248566   3.843   4.370   0.765  0.6792  0.7399  0.2460
 9051TIP3   OH248567   2.646   5.533  15.783 -0.4848 -0.1359 -0.0206
 9051TIP3    H148568   2.589   5.562  15.712 -0.0586 -0.9256 -0.6898
 9051TIP3    H248569   2.724   5.499  15.740  0.7418  1.3625  0.8760
 9052TIP3   OH248570   5.388   6.764   4.250 -0.1142  0.2011 -0.4299
 9052TIP3    H148571   5.352   6.683   4.213  3.2929 -0.6553 -2.2690
 9052TIP3    H248572   5.421   6.738   4.336  1.4142 -0.5879 -1.2123
 9053TIP3   OH248573   1.883   0.886   3.736 -0.7960 -0.0847 -0.2487
 9053TIP3    H148574   1.917   0.805   3.775 -1.1233 -0.5625 -0.9329
 9053TIP3    H248575   1.886   0.950   3.807  0.5676 -0.3785 -0.0212
 9054TIP3   OH248576   6.790   5.613  13.650  0.1203  0.5288  0.0594
 9054TIP3    H148577   6.744   5.534  13.619  2.1541 -0.4988 -0.5293
 9054TIP3    H248578   6.788   5.606  13.745 -0.0246 -0.0371  0.0181
 9055TIP3   OH248579   2.716   0.152   3.621 -0.1680  1.2301 -0.5132
 9055TIP3    H148580   2.683   0.099   3.549 -0.6448 -0.0347  0.5865
 9055TIP3    H248581   2.647   0.218   3.636 -0.2967  1.1829 -0.8900
 9056TIP3   OH248582   5.481   3.350   0.236  0.2683  0.2742 -0.0406
 9056TIP3    H148583   5.502   3.258   0.218  0.6292 -0.3091  2.8070
 9056TIP3    H248584   5.394   3.347   0.277  0.6643  1.0486  0.9072
 9057TIP3   OH248585   6.089   6.127   1.684 -0.0298 -0.4427  0.3809
 9057TIP3    H148586   6.074   6.100   1.593 -2.1059 -0.8209  0.7731
 9057TIP3    H248587   6.133   6.053   1.725 -0.0046 -0.6832 -0.0776
 9058TIP3   OH248588   5.505   0.430  14.238  0.6749 -0.3550 -0.0680
 9058TIP3    H148589   5.511   0.523  14.260  0.9680 -0.7043  1.4531
 9058TIP3    H248590   5.578   0.414  14.179  1.6742  0.0462  1.0144
 9059TIP3   OH248591   1.559   2.164   4.395  0.2959  0.0308  0.3846
 9059TIP3    H148592   1.522   2.232   4.340 -0.4488  0.7900  1.7679
 9059TIP3    H248593   1.587   2.096   4.334  1.0254  1.5309 -1.0367
 9060TIP3   OH248594   5.882   3.528   0.971  0.2891  0.1085 -0.1351
 9060TIP3    H148595   5.796   3.544   1.008  1.3541 -0.7381  3.0139
 9060TIP3    H248596   5.938   3.595   1.011  1.4140 -0.4069 -0.7889
 9061TIP3   OH248597   5.928   4.875   2.944 -0.0924 -0.0993  0.1462
 9061TIP3    H148598   5.966   4.813   2.882 -2.5862 -0.0042 -1.6226
 9061TIP3    H248599   5.880   4.820   3.006  0.6739 -0.0786  0.7754
 9062TIP3   OH248600   1.680   0.167  10.620 -0.5751 -0.7260 -0.2709
 9062TIP3    H148601   1.723   0.119  10.549 -0.7651 -0.9657 -0.2216
 9062TIP3    H248602   1.721   0.133  10.699 -0.9305 -1.0334 -0.2168
 9063TIP3   OH248603   5.677   4.229   4.586  0.3736  1.1264 -0.2003
 9063TIP3    H148604   5.695   4.251   4.678 -0.4369  1.0655 -0.0219
 9063TIP3    H248605   5.762   4.236   4.543  0.9560  0.2421  0.7466
 9064TIP3   OH248606   5.975   4.258  12.643 -0.2483 -0.3405 -0.3213
 9064TIP3    H148607   5.932   4.268  12.728 -1.2377  0.1152 -0.8581
 9064TIP3    H248608   5.953   4.338  12.596  0.2259 -0.6215 -1.0364
 9065TIP3   OH248609   4.815   0.092   2.397 -0.9428  0.6063  0.0908
 9065TIP3    H148610   4.792   0.042   2.318  1.0409  0.1073 -0.2259
 9065TIP3    H248611   4.806   0.183   2.371 -1.4943  0.4377 -0.3340
 9066TIP3   OH248612   2.795   0.054   3.269 -0.4593  0.6851  0.3281
 9066TIP3    H148613   2.709   0.066   3.228 -0.4307 -0.2971 -0.0364
 9066TIP3    H248614   2.856   0.095   3.207 -0.4516 -0.5093 -0.4971
 9067TIP3   OH248615   0.890   5.347   5.461 -0.2253  0.0931  0.1887
 9067TIP3    H148616   0.903   5.435   5.427  2.0290 -0.4398 -0.4866
 9067TIP3    H248617   0.962   5.334   5.523  1.1236 -2.1675 -1.6904
 9068TIP3   OH248618   1.632   6.779  12.596 -0.0800 -0.9325  0.2924
 9068TIP3    H148619   1.592   6.819  12.673  0.5418  0.6693 -0.1601
 9068TIP3    H248620   1.651   6.853  12.538 -0.2367 -2.0645 -1.2655
 9069TIP3   OH248621   1.588   1.325   4.335 -0.0841  0.2254 -0.6679
 9069TIP3    H148622   1.679   1.322   4.303 -0.5706  0.0043 -2.1237
 9069TIP3    H248623   1.591   1.279   4.418  1.0721 -0.1553 -0.8901
 9070TIP3   OH248624   6.402   0.004  14.482 -0.5765  0.1906 -0.5573
 9070TIP3    H148625   6.492   0.006  14.515  0.0283 -2.6125 -1.7554
 9070TIP3    H248626   6.396   0.079  14.423  0.8906  0.5616 -0.2569
 9071TIP3   OH248627   6.642   5.156   0.315 -0.8365 -0.3025  0.1393
 9071TIP3    H148628   6.734   5.163   0.341 -0.7121 -2.5950  0.5005
 9071TIP3    H248629   6.599   5.229   0.359  0.9335  1.4272 -0.8302
 9072TIP3   OH248630   1.318   2.605   0.534  0.8705 -0.1176 -0.1426
 9072TIP3    H148631   1.283   2.517   0.546  0.3860  0.1684  0.6425
 9072TIP3    H248632   1.306   2.624   0.441  0.5795 -0.7072 -0.2294
 9073TIP3   OH248633   3.590   3.597   1.411  0.2866 -0.6669  0.0416
 9073TIP3    H148634   3.671   3.628   1.451  0.4156 -0.1053 -0.6471
 9073TIP3    H248635   3.521   3.623   1.473  0.4193  0.7673 -0.3651
 9074TIP3   OH248636   6.096   6.683  16.452 -0.6801 -0.5812 -0.0945
 9074TIP3    H148637   6.016   6.631  16.452 -2.0573  1.3352 -2.9172
 9074TIP3    H248638   6.067   6.774  16.458  1.4100  0.1263  0.4478
 9075TIP3   OH248639   5.275   5.322   1.633  0.0713  0.3694 -0.3632
 9075TIP3    H148640   5.316   5.280   1.709 -2.1720 -0.2920  0.5660
 9075TIP3    H248641   5.340   5.385   1.603  0.9349  0.8784  2.2782
 9076TIP3   OH248642   1.161   3.182  17.101 -0.5943  0.3798 -0.0414
 9076TIP3    H148643   1.093   3.163  17.165 -1.2435  1.9714 -0.1979
 9076TIP3    H248644   1.116   3.180  17.016  0.4559 -2.7162 -0.6512
 9077TIP3   OH248645   6.081   6.481   0.092  0.0683 -0.1328 -0.4152
 9077TIP3    H148646   6.111   6.413   0.032  0.5949 -0.3230  0.0517
 9077TIP3    H248647   6.102   6.447   0.179 -0.0776  0.4265 -0.1559
 9078TIP3   OH248648   5.330   6.445  16.136  0.7521 -0.1515  0.6632
 9078TIP3    H148649   5.401   6.408  16.189  0.9204 -0.3088  0.3365
 9078TIP3    H248650   5.367   6.526  16.100  1.2310 -0.8752 -0.5413
 9079TIP3   OH248651   3.805   3.407  11.558 -1.0293  0.4298  0.1292
 9079TIP3    H148652   3.853   3.458  11.624 -0.3652  0.4689 -0.3671
 9079TIP3    H248653   3.770   3.332  11.606 -3.5233  2.1748  1.2791
 9080TIP3   OH248654   0.626   1.315  11.864 -0.3650  0.3311  0.6743
 9080TIP3    H148655   0.563   1.279  11.802  1.0390 -1.7391  0.3443
 9080TIP3    H248656   0.691   1.358  11.810  1.1078 -1.8707  0.5521
 9081TIP3   OH248657   5.840   0.853   0.694 -0.5659 -0.4651  0.0471
 9081TIP3    H148658   5.836   0.771   0.646 -0.1324 -1.3785  1.5154
 9081TIP3    H248659   5.749   0.883   0.699 -0.7204 -0.8403 -0.5140
 9082TIP3   OH248660   1.485   4.376  13.277 -0.3852 -0.1563  1.0150
 9082TIP3    H148661   1.476   4.351  13.185  0.1092  0.2765  0.8478
 9082TIP3    H248662   1.474   4.293  13.325 -3.4280 -0.0053  0.7590
 9083TIP3   OH248663   5.372   5.515  15.267 -0.0068 -0.4951  0.1952
 9083TIP3    H148664   5.327   5.565  15.335 -1.4345 -1.6029  0.1157
 9083TIP3    H248665   5.402   5.436  15.312 -1.5987 -1.5806 -0.5476
 9084TIP3   OH248666   4.349   5.049  12.059 -0.2250 -0.4992  0.1692
 9084TIP3    H148667   4.341   4.953  12.052  0.7725 -0.6553  0.9070
 9084TIP3    H248668   4.393   5.063  12.143 -3.6924  0.7826  1.9680
 9085TIP3   OH248669   5.012   1.022  16.149  0.1768  0.8466  0.4778
 9085TIP3    H148670   5.005   1.069  16.232 -0.4617 -1.4800  1.8153
 9085TIP3    H248671   4.923   1.022  16.114  0.0660  0.1182  0.7676
 9086TIP3   OH248672   4.065   3.419   2.794  0.1665 -0.2628 -0.4748
 9086TIP3    H148673   4.032   3.504   2.825 -0.2847 -0.6769  0.2151
 9086TIP3    H248674   4.129   3.441   2.727  0.1818  0.6308 -0.1797
 9087TIP3   OH248675   0.872   4.619   2.934  0.0449 -0.2971  0.1479
 9087TIP3    H148676   0.784   4.636   2.900 -0.0812 -0.0111  0.6042
 9087TIP3    H248677   0.867   4.645   3.026  0.4451 -0.8491  0.3277
 9088TIP3   OH248678   3.057   0.476   0.455  0.2997 -0.2083 -0.0917
 9088TIP3    H148679   3.104   0.393   0.461  0.9160 -0.0769 -2.1841
 9088TIP3    H248680   2.974   0.460   0.499  1.1489 -1.3311  1.1846
 9089TIP3   OH248681   3.376   6.386   2.134  0.0648  0.1885 -0.2434
 9089TIP3    H148682   3.283   6.376   2.153 -0.0260 -1.2863 -1.2074
 9089TIP3    H248683   3.421   6.347   2.209 -0.2120 -2.0436 -1.1319
 9090TIP3   OH248684   2.976   5.739   0.024 -0.8606 -0.5399  0.6045
 9090TIP3    H148685   3.035   5.677   0.067  1.7737  1.0839 -0.4248
 9090TIP3    H248686   2.999   5.824   0.061 -0.2675  0.5715 -2.0834
 9091TIP3   OH248687   5.647   5.396   0.481  0.1161 -0.2119  0.4103
 9091TIP3    H148688   5.733   5.391   0.522 -0.1368 -0.4313  0.9287
 9091TIP3    H248689   5.596   5.326   0.522  0.5322 -2.0241 -1.9510
 9092TIP3   OH248690   6.448   5.353  12.343  0.0342  0.0991  0.0508
 9092TIP3    H148691   6.380   5.381  12.405 -1.5377 -1.0298 -1.0856
 9092TIP3    H248692   6.521   5.414  12.358 -1.8171  2.4332  0.1856
 9093TIP3   OH248693   5.301   1.401  11.551  0.0309 -0.3012  0.5492
 9093TIP3    H148694   5.281   1.480  11.601 -2.1636 -0.1905 -0.3960
 9093TIP3    H248695   5.274   1.422  11.461  1.4195 -1.4043 -0.1626
 9094TIP3   OH248696   6.508   5.075   0.978  0.1014 -0.0606 -0.3869
 9094TIP3    H148697   6.539   5.091   0.889  1.2490 -0.9264 -0.1559
 9094TIP3    H248698   6.474   5.160   1.007  3.9860  1.5217  0.0432
 9095TIP3   OH248699   1.888   3.934  16.648 -0.2716  0.2399 -0.4556
 9095TIP3    H148700   1.838   3.855  16.627  0.2457  0.1816 -1.5442
 9095TIP3    H248701   1.830   3.984  16.705 -0.9688 -0.5084 -0.4871
 9096TIP3   OH248702   2.958   5.583   3.713 -0.2791 -0.0503  0.7055
 9096TIP3    H148703   3.029   5.555   3.655 -0.4284  0.8169  0.0949
 9096TIP3    H248704   2.878   5.559   3.667 -0.5100 -3.2945  2.4409
 9097TIP3   OH248705   1.243   2.117  11.946 -0.0363 -0.2958  0.0077
 9097TIP3    H148706   1.290   2.034  11.950 -1.1216 -0.8950  0.8573
 9097TIP3    H248707   1.233   2.143  12.037  0.3759  0.8247 -0.2590
 9098TIP3   OH248708   6.322   3.195  10.996  0.1073 -0.5013 -0.0611
 9098TIP3    H148709   6.335   3.214  10.903  1.1252 -0.4792  0.0748
 9098TIP3    H248710   6.394   3.136  11.018 -0.2227 -0.6335  0.6776
 9099TIP3   OH248711   3.404   3.269   4.745 -0.2999  0.0013  0.0311
 9099TIP3    H148712   3.395   3.178   4.716 -0.1157 -0.2546  0.7823
 9099TIP3    H248713   3.438   3.263   4.834 -0.7619  0.7952  0.2656
 9100TIP3   OH248714   1.621   4.018  11.961  0.8605  0.5284  0.7731
 9100TIP3    H148715   1.668   3.962  12.022 -0.1962 -1.0432  0.1997
 9100TIP3    H248716   1.556   4.063  12.015 -0.2971 -1.1089  0.8199
 9101TIP3   OH248717   1.001   2.384  15.046  0.0150  0.3067  0.3642
 9101TIP3    H148718   1.006   2.368  14.952 -0.2147  1.3505  0.1633
 9101TIP3    H248719   1.093   2.387  15.074  0.1161  0.9270 -0.0019
 9102TIP3   OH248720   4.779   3.281  13.798 -0.2118  0.3788  0.0522
 9102TIP3    H148721   4.701   3.294  13.850  0.2493 -0.5101  0.9961
 9102TIP3    H248722   4.842   3.345  13.832  0.3292 -0.6803  1.1316
 9103TIP3   OH248723   0.616   2.130  13.457  0.0630  0.2391  0.3978
 9103TIP3    H148724   0.599   2.047  13.501  2.5198 -0.1961  0.6837
 9103TIP3    H248725   0.673   2.107  13.383  2.8334  1.8161  1.8592
 9104TIP3   OH248726   6.423   3.618  15.700 -0.1449 -0.4127  0.0399
 9104TIP3    H148727   6.377   3.678  15.758 -1.2286  0.1672 -1.3634
 9104TIP3    H248728   6.515   3.642  15.709 -0.0928 -1.2669  2.5200
 9105TIP3   OH248729   3.983   4.592   0.002  0.2845 -0.6018 -0.1907
 9105TIP3    H148730   3.949   4.661   0.059 -0.4581  0.4662 -1.8448
 9105TIP3    H248731   4.065   4.566   0.043 -0.0275  0.3872  1.1462
 9106TIP3   OH248732   3.371   3.705   3.678  0.0773 -0.0321 -0.2953
 9106TIP3    H148733   3.297   3.647   3.665  0.6731 -1.5785  2.3996
 9106TIP3    H248734   3.343   3.764   3.749  1.4941 -0.9759  1.1400
 9107TIP3   OH248735   5.074   3.653  11.975  0.7042 -0.2062 -0.6786
 9107TIP3    H148736   5.080   3.581  11.913  0.1485 -3.6449  2.8494
 9107TIP3    H248737   5.149   3.709  11.955  1.2251 -1.7540 -3.5727
 9108TIP3   OH248738   5.560   5.179   4.048 -0.4353  0.8658  0.3817
 9108TIP3    H148739   5.550   5.189   3.953 -0.1372  0.7309  0.3352
 9108TIP3    H248740   5.551   5.268   4.082 -1.0319  0.8467  0.2729
 9109TIP3   OH248741   0.504   2.221  14.122  0.7160  0.5961 -0.0656
 9109TIP3    H148742   0.424   2.263  14.152  0.1830 -0.0389 -0.5687
 9109TIP3    H248743   0.517   2.255  14.033  1.6199  1.5378  0.3960
 9110TIP3   OH248744   3.283   3.386   4.453  0.6852  0.6730 -0.5808
 9110TIP3    H148745   3.320   3.308   4.495  0.6849  0.3791 -1.1027
 9110TIP3    H248746   3.340   3.401   4.377 -1.0914 -0.7270 -2.3241
 9111TIP3   OH248747   1.648   0.684   1.566 -0.7525 -0.4104  0.5301
 9111TIP3    H148748   1.600   0.732   1.499 -0.0760  0.1352  0.4194
 9111TIP3    H248749   1.640   0.592   1.541 -1.2056 -0.2769  0.1709
 9112TIP3   OH248750   2.009   0.336   1.040  0.0970 -0.5641 -0.1359
 9112TIP3    H148751   2.020   0.411   0.981  1.7707 -2.1741 -2.0349
 9112TIP3    H248752   2.068   0.354   1.113 -0.6105  0.6054  0.1696
 9113TIP3   OH248753   1.809   5.934  14.543  0.1334  0.1349 -0.4827
 9113TIP3    H148754   1.857   5.972  14.616  0.2524  0.3784 -0.6852
 9113TIP3    H248755   1.734   5.992  14.530  1.1690  1.2352 -1.8245
 9114TIP3   OH248756   3.167   6.704   2.751 -0.6276  0.4849 -0.2367
 9114TIP3    H148757   3.231   6.751   2.805 -2.1984  1.7709  0.5769
 9114TIP3    H248758   3.220   6.649   2.693  1.1810 -1.1029  2.6814
 9115TIP3   OH248759   3.842   1.569  16.868  0.5394 -0.5258 -0.6773
 9115TIP3    H148760   3.833   1.477  16.843  2.6672 -1.1562  0.5820
 9115TIP3    H248761   3.835   1.568  16.964  0.4361  0.6454 -0.6617
 9116TIP3   OH248762   1.727   5.357   5.278 -0.6665 -0.0152  0.3708
 9116TIP3    H148763   1.660   5.425   5.284 -1.3434 -0.6216 -0.0633
 9116TIP3    H248764   1.677   5.275   5.279 -0.0614 -0.4562 -1.3103
 9117TIP3   OH248765   6.366   2.089  16.259 -0.3493 -0.3643 -0.5410
 9117TIP3    H148766   6.340   2.041  16.337  0.6595 -1.3927 -0.8087
 9117TIP3    H248767   6.446   2.047  16.230 -0.9086 -0.2779 -2.3729
 9118TIP3   OH248768   3.441   3.853   5.911  0.2844  0.3189 -0.8850
 9118TIP3    H148769   3.524   3.852   5.864 -0.4373 -0.9156 -2.2232
 9118TIP3    H248770   3.466   3.857   6.004  1.7898  0.8765 -1.2853
 9119TIP3   OH248771   0.769   1.973  16.643 -0.3455 -0.4321  0.0311
 9119TIP3    H148772   0.858   1.997  16.670 -0.5132  1.3287 -0.8402
 9119TIP3    H248773   0.719   1.972  16.725 -0.0176  0.9802  0.2878
 9120TIP3   OH248774   4.264   0.070   0.210  0.0134  0.2790 -0.4579
 9120TIP3    H148775   4.212  -0.011   0.209 -0.6086  0.6724 -1.1820
 9120TIP3    H248776   4.353   0.041   0.233 -0.8404 -0.1764  2.8159
 9121TIP3   OH248777   4.802   0.287  16.533 -0.0011  0.0952  0.0231
 9121TIP3    H148778   4.893   0.295  16.561 -0.1762 -0.8034  0.9407
 9121TIP3    H248779   4.785   0.367  16.483  1.2316  0.3569 -0.0177
 9122TIP3   OH248780   3.074   2.512  10.842  0.1208 -0.3819 -0.3375
 9122TIP3    H148781   3.140   2.505  10.911  1.8180  1.5726 -1.6349
 9122TIP3    H248782   3.113   2.470  10.766 -0.8265 -0.6509 -0.6876
 9123TIP3   OH248783   5.192   6.693   1.984 -0.0348  0.4048 -0.9096
 9123TIP3    H148784   5.258   6.703   1.916 -0.4881  1.1902 -1.2572
 9123TIP3    H248785   5.238   6.651   2.057 -0.0489 -2.5202 -2.4453
 9124TIP3   OH248786   2.137   4.429  11.617  0.0814 -0.0208 -0.1466
 9124TIP3    H148787   2.154   4.496  11.551  2.4311 -0.4148 -0.0140
 9124TIP3    H248788   2.139   4.347  11.568 -1.3431 -0.1348 -0.0635
 9125TIP3   OH248789   0.087   3.414  10.884 -0.6282 -0.1271  0.0466
 9125TIP3    H148790   0.009   3.385  10.933 -0.5136 -0.4836  0.0180
 9125TIP3    H248791   0.097   3.349  10.815 -1.1015  0.6598 -0.7923
 9126TIP3   OH248792   4.756   2.158  16.882 -0.3767  0.0133  0.5444
 9126TIP3    H148793   4.673   2.202  16.899 -0.5170  0.1623 -0.4257
 9126TIP3    H248794   4.735   2.096  16.812  0.5850  0.9240 -0.5882
 9127TIP3   OH248795   0.925   3.940   2.788  0.1266 -0.1820 -0.4804
 9127TIP3    H148796   0.856   3.874   2.786 -0.3630  0.2509  0.8727
 9127TIP3    H248797   0.881   4.021   2.813  1.0875  0.1457  0.2243
 9128TIP3   OH248798   6.097   6.382   3.267 -0.3272 -0.2280  0.3725
 9128TIP3    H148799   6.056   6.433   3.336 -0.2266 -0.5568  0.6813
 9128TIP3    H248800   6.191   6.386   3.286 -0.3557 -0.9526  0.7041
 9129TIP3   OH248801   3.022   2.481  16.338 -0.1533  0.2474 -0.3534
 9129TIP3    H148802   3.026   2.557  16.279  1.1237 -0.9613 -1.9237
 9129TIP3    H248803   3.113   2.454  16.347 -0.5625 -0.9027  0.4675
 9130TIP3   OH248804   6.040   0.530   1.229  0.8741 -0.2494  0.1756
 9130TIP3    H148805   6.039   0.463   1.298  0.5345  0.3102  0.7271
 9130TIP3    H248806   5.990   0.491   1.157  0.7085 -0.5983  0.4756
 9131TIP3   OH248807   4.882   3.292   1.998  0.5050  0.6718  0.2319
 9131TIP3    H148808   4.860   3.220   2.057  0.9701 -0.5133 -0.9854
 9131TIP3    H248809   4.965   3.265   1.957 -0.6370  0.6094 -2.2294
 9132TIP3   OH248810   2.756   4.387   5.126  0.1281 -0.8481 -0.3615
 9132TIP3    H148811   2.748   4.292   5.131  1.2668 -0.9112  0.6726
 9132TIP3    H248812   2.665   4.418   5.119 -0.1953 -2.0342 -1.9642
 9133TIP3   OH248813   5.121   6.042  16.043 -0.5740 -0.2732 -0.0373
 9133TIP3    H148814   5.027   6.058  16.030 -0.9340 -1.4877  0.8702
 9133TIP3    H248815   5.164   6.102  15.983 -1.9671 -0.8273 -1.6718
 9134TIP3   OH248816   0.375   3.052  10.665  0.3810  0.1707 -0.7413
 9134TIP3    H148817   0.353   2.980  10.606 -0.4792  0.2969 -0.5907
 9134TIP3    H248818   0.466   3.037  10.689  0.3264 -0.6455 -1.0294
 9135TIP3   OH248819   5.881   2.571   1.652 -0.4783 -0.0543 -0.1658
 9135TIP3    H148820   5.916   2.644   1.703 -2.3578  0.9914 -0.2853
 9135TIP3    H248821   5.822   2.612   1.589 -2.3855 -1.7122  0.4349
 9136TIP3   OH248822   3.033   3.936   1.068 -0.5655 -0.0319  0.0980
 9136TIP3    H148823   3.035   3.930   1.163  1.6483 -0.9717  0.0614
 9136TIP3    H248824   2.968   4.004   1.049  1.7658  3.1893  2.4597
 9137TIP3   OH248825   3.591   2.359   3.538 -0.4011 -0.0727  0.2283
 9137TIP3    H148826   3.671   2.392   3.579  0.3363 -2.9442  1.3227
 9137TIP3    H248827   3.596   2.392   3.448  1.3288  0.8988  0.6235
 9138TIP3   OH248828   1.400   3.476  15.584  0.1136 -0.5109 -0.5147
 9138TIP3    H148829   1.327   3.416  15.598  1.1256 -1.2777  2.0154
 9138TIP3    H248830   1.462   3.455  15.654  2.3742  0.7152 -2.0215
 9139TIP3   OH248831   2.131   0.802   0.504  0.0160 -0.1229 -0.3125
 9139TIP3    H148832   2.066   0.735   0.524  1.5460 -1.4137  0.5914
 9139TIP3    H248833   2.083   0.885   0.507 -1.1550 -0.7972  2.6615
 9140TIP3   OH248834   5.603   3.549   4.643  0.1462 -0.1288  0.1478
 9140TIP3    H148835   5.615   3.558   4.738 -0.0839 -0.4105  0.2042
 9140TIP3    H248836   5.691   3.530   4.610  0.3161  0.4671  0.2440
 9141TIP3   OH248837   2.798   0.910  10.711  0.1668  0.4404 -0.1142
 9141TIP3    H148838   2.729   0.921  10.646  0.0032  2.2322  0.3069
 9141TIP3    H248839   2.826   0.999  10.733 -0.1826 -0.0261  2.6791
 9142TIP3   OH248840   5.659   1.238  11.018 -0.0161 -0.1031  0.0822
 9142TIP3    H148841   5.593   1.238  11.087 -1.3013 -2.4245 -1.0206
 9142TIP3    H248842   5.609   1.234  10.937  1.4809  0.4615 -0.9147
 9143TIP3   OH248843   5.719   0.597  16.741 -0.0161  0.1157  0.0381
 9143TIP3    H148844   5.729   0.503  16.725  2.6376  0.4819 -1.0507
 9143TIP3    H248845   5.686   0.602  16.831  0.4396 -1.8597  0.3802
 9144TIP3   OH248846   3.405   5.653  15.088  0.0546  0.0751  0.6616
 9144TIP3    H148847   3.447   5.679  15.170 -1.1970 -1.5475  1.8921
 9144TIP3    H248848   3.425   5.560  15.079 -0.3067  0.0974 -0.5967
 9145TIP3   OH248849   1.453   2.993   1.075 -0.3289 -0.0340  0.2395
 9145TIP3    H148850   1.455   3.089   1.079  0.1106 -0.0043 -0.4959
 9145TIP3    H248851   1.495   2.972   0.992 -0.5523 -0.8646  0.3302
 9146TIP3   OH248852   4.703   0.626   1.000 -0.7449 -0.1056  0.1847
 9146TIP3    H148853   4.753   0.578   0.934  0.7826 -0.9331  1.8660
 9146TIP3    H248854   4.738   0.715   0.998 -0.0763 -0.3580  0.4784
 9147TIP3   OH248855   5.860   3.123  16.818  0.1197  0.6428  0.0990
 9147TIP3    H148856   5.876   3.214  16.844  0.5568 -0.2121  3.2725
 9147TIP3    H248857   5.948   3.086  16.805  0.0691  0.1590  1.0260
 9148TIP3   OH248858   0.846   1.000   2.011 -0.2430 -0.0895 -0.7488
 9148TIP3    H148859   0.760   0.971   2.040  0.1655  0.2013  0.8720
 9148TIP3    H248860   0.895   0.920   1.993  0.0984 -0.3923  1.3214
 9149TIP3   OH248861   5.355   4.103   1.651  0.4313 -0.3395  0.3125
 9149TIP3    H148862   5.301   4.164   1.600  0.3349 -1.8542 -1.4911
 9149TIP3    H248863   5.293   4.062   1.712 -0.1404 -0.8764 -0.6139
 9150TIP3   OH248864   0.514   4.185   2.160  0.1361  0.0456  0.0832
 9150TIP3    H148865   0.514   4.091   2.140 -1.5648 -0.1059  0.6569
 9150TIP3    H248866   0.534   4.190   2.254  2.1039  0.3996 -0.3155
 9151TIP3   OH248867   5.852   5.497   5.601 -0.3180 -0.1980  0.9499
 9151TIP3    H148868   5.895   5.569   5.647 -0.1705  0.1974  0.2129
 9151TIP3    H248869   5.800   5.452   5.668 -0.4513  0.6283  1.4036
 9152TIP3   OH248870   0.451   4.029   4.874 -0.3211  0.1086  0.0638
 9152TIP3    H148871   0.471   3.984   4.956  0.2882  0.5888  0.1854
 9152TIP3    H248872   0.463   3.962   4.806 -0.2283 -0.1293  0.3167
 9153TIP3   OH248873   6.438   1.759   1.824 -0.2226 -0.5568 -0.0709
 9153TIP3    H148874   6.497   1.696   1.866  1.7661  0.8850 -0.5455
 9153TIP3    H248875   6.415   1.717   1.741  0.9867 -0.7581 -0.3382
 9154TIP3   OH248876   6.308   6.340  12.230  0.8718 -0.3220 -0.6744
 9154TIP3    H148877   6.318   6.325  12.325 -0.4223 -0.7263 -0.5848
 9154TIP3    H248878   6.214   6.332  12.214  0.9601  0.7281 -1.8439
 9155TIP3   OH248879   1.908   4.627  11.457 -1.0272  0.0302  0.2736
 9155TIP3    H148880   1.871   4.540  11.442 -1.9719  0.3681  0.5577
 9155TIP3    H248881   1.882   4.677  11.380 -0.6588  0.1229  0.2077
 9156TIP3   OH248882   3.375   5.640  12.060  0.0223  0.0864 -0.0012
 9156TIP3    H148883   3.280   5.629  12.074 -0.1820  0.7375 -0.7909
 9156TIP3    H248884   3.411   5.653  12.147 -0.8276  1.3230  0.1806
 9157TIP3   OH248885   6.452   1.761   4.516 -1.0769  0.1978  0.0791
 9157TIP3    H148886   6.518   1.810   4.467 -0.9033 -1.5188 -1.5075
 9157TIP3    H248887   6.414   1.701   4.452 -2.7137 -0.3096  1.4608
 9158TIP3   OH248888   5.378   6.303   0.069  0.6454 -0.0527  0.3596
 9158TIP3    H148889   5.438   6.303   0.144 -0.0494  0.8987  0.9443
 9158TIP3    H248890   5.298   6.263   0.103  0.0802  1.0345  0.3614
 9159TIP3   OH248891   0.030   0.069  13.592 -0.2440 -0.0971 -0.2521
 9159TIP3    H148892   0.054   0.119  13.515 -1.8196 -0.2900 -0.9186
 9159TIP3    H248893  -0.027  -0.000  13.559  0.5287 -1.3139  0.8691
 9160TIP3   OH248894   4.185   4.024  15.111  0.1577  0.2127  0.1244
 9160TIP3    H148895   4.103   4.033  15.062 -1.2220 -1.9083  1.8611
 9160TIP3    H248896   4.230   3.951  15.070 -0.3083 -0.6208  1.0752
 9161TIP3   OH248897   3.975   5.797  14.893 -0.7440  0.0261  0.1576
 9161TIP3    H148898   3.934   5.869  14.846  0.4601  0.8675  0.3524
 9161TIP3    H248899   3.954   5.812  14.985  0.5741  0.8960  0.3478
 9162TIP3   OH248900   1.490   2.632   0.275  0.7037  0.9334 -0.1963
 9162TIP3    H148901   1.511   2.619   0.367  1.6076  1.0775 -0.3724
 9162TIP3    H248902   1.575   2.638   0.232  0.3285  2.5523 -0.7898
 9163TIP3   OH248903   5.215   2.140  16.008  0.5216 -0.3298 -0.0187
 9163TIP3    H148904   5.122   2.131  15.986  0.1018 -0.9087  1.8720
 9163TIP3    H248905   5.261   2.115  15.928 -0.9177 -1.9539 -0.3824
 9164TIP3   OH248906   3.946   5.924  10.755 -0.0143  0.3880  0.2849
 9164TIP3    H148907   3.890   5.851  10.731 -1.3731  1.4495  0.0715
 9164TIP3    H248908   4.034   5.887  10.760 -0.2940 -0.7815 -2.1163
 9165TIP3   OH248909   1.206   2.858  13.013 -0.2452 -0.1074  0.2306
 9165TIP3    H148910   1.134   2.920  13.020  1.2638  1.7943 -0.3535
 9165TIP3    H248911   1.257   2.870  13.093  0.3480 -0.1866 -0.1261
 9166TIP3   OH248912   6.520   5.069   2.708  0.2520  0.0827 -0.0027
 9166TIP3    H148913   6.550   5.031   2.626  0.8228 -1.6132  0.9546
 9166TIP3    H248914   6.428   5.089   2.693  0.3278 -0.2971 -1.0199
 9167TIP3   OH248915   3.697   5.978  16.990  0.2767  0.4081 -0.2607
 9167TIP3    H148916   3.726   6.064  16.959 -2.7147  0.8944 -2.1945
 9167TIP3    H248917   3.725   5.918  16.922  0.7218  0.1570  0.1440
 9168TIP3   OH248918   3.105   0.016   5.502 -0.2190  0.2509  0.1790
 9168TIP3    H148919   3.174   0.027   5.567 -0.6562 -0.5445  0.7956
 9168TIP3    H248920   3.103  -0.078   5.485 -1.7478  0.1247  0.8657
 9169TIP3   OH248921   1.571   5.749   1.760  0.0955 -0.0963 -0.3115
 9169TIP3    H148922   1.643   5.796   1.802  0.2563 -0.6028 -0.0155
 9169TIP3    H248923   1.611   5.705   1.685  0.1112 -0.4489 -0.0960
 9170TIP3   OH248924   6.069   4.737   2.065  0.0189  0.3032  0.1031
 9170TIP3    H148925   5.979   4.745   2.094  0.5475  1.4154  1.5844
 9170TIP3    H248926   6.064   4.699   1.978 -1.9559  1.7297 -0.4531
 9171TIP3   OH248927   1.042   6.483   1.988  0.4069 -0.0226 -0.3082
 9171TIP3    H148928   1.017   6.475   1.896  0.6711  0.0146 -0.3847
 9171TIP3    H248929   1.117   6.543   1.987  0.1784  0.2674 -0.0320
 9172TIP3   OH248930   5.047   5.735  13.076  0.1058 -0.6969  0.2121
 9172TIP3    H148931   4.994   5.777  13.144  0.4082  1.3159 -0.7230
 9172TIP3    H248932   4.986   5.677  13.030 -1.3764  1.5360 -0.8099
 9173TIP3   OH248933   1.437   4.811   1.113 -0.0769  0.4470 -0.0239
 9173TIP3    H148934   1.435   4.855   1.198 -1.6785  0.4974 -0.0516
 9173TIP3    H248935   1.427   4.718   1.134 -0.1440  0.4300 -0.1289
 9174TIP3   OH248936   3.193   0.311   3.478  0.0158 -0.8103 -0.2664
 9174TIP3    H148937   3.229   0.233   3.436 -0.4811 -0.1070 -2.1022
 9174TIP3    H248938   3.231   0.384   3.429 -1.1245  0.0362  0.0694
 9175TIP3   OH248939   2.070   1.631   3.865 -0.7006 -1.1954 -0.2301
 9175TIP3    H148940   1.998   1.577   3.898 -1.1973 -0.1659  0.4336
 9175TIP3    H248941   2.101   1.679   3.942 -1.0469  0.3149 -1.0014
 9176TIP3   OH248942   1.966   5.422  12.065  0.2619  0.5945 -0.4622
 9176TIP3    H148943   1.977   5.501  12.013 -1.8600  0.1842 -1.6660
 9176TIP3    H248944   2.053   5.383  12.070  0.7606  1.2912 -2.6821
 9177TIP3   OH248945   1.924   2.287   0.078 -0.0841  0.8701  0.7868
 9177TIP3    H148946   1.903   2.211   0.133  1.5158  0.8499  1.4289
 9177TIP3    H248947   1.842   2.307   0.033 -0.5755 -1.2358  0.6038
 9178TIP3   OH248948   3.554   4.736  15.894  0.8483 -0.1381  0.3740
 9178TIP3    H148949   3.525   4.738  15.986  1.2871  0.1625  0.5081
 9178TIP3    H248950   3.565   4.643  15.875  0.2028 -0.2362  0.4481
 9179TIP3   OH248951   5.577   3.475  15.956  0.2798 -0.5848 -0.3130
 9179TIP3    H148952   5.513   3.458  16.025  2.2234  2.1361  2.4571
 9179TIP3    H248953   5.649   3.415  15.974  1.6320  1.4103  1.4458
 9180TIP3   OH248954   4.650   2.349  15.627  0.1520  0.5498 -0.2952
 9180TIP3    H148955   4.691   2.291  15.691  1.4965  0.4958 -1.1767
 9180TIP3    H248956   4.604   2.289  15.567  2.0821  0.2967 -1.5878
 9181TIP3   OH248957   1.668   1.395   5.041  0.2406  0.0804  0.6958
 9181TIP3    H148958   1.640   1.378   5.131 -1.2673  0.7424  0.3867
 9181TIP3    H248959   1.691   1.488   5.040  0.2315  0.0810  0.3826
 9182TIP3   OH248960   2.904   6.442   6.587  0.1608 -0.4991  0.0391
 9182TIP3    H148961   2.900   6.520   6.532  1.4990 -1.1395 -1.0290
 9182TIP3    H248962   2.922   6.474   6.675  0.6219  0.4058 -0.3750
 9183TIP3   OH248963   4.447   2.763   4.207 -0.3728  0.3034 -0.1618
 9183TIP3    H148964   4.489   2.808   4.281  1.5345 -0.8466 -0.4728
 9183TIP3    H248965   4.512   2.766   4.137 -2.1392  1.3653 -1.8742
 9184TIP3   OH248966   4.459   6.647  12.033 -0.8349 -0.4301 -0.2435
 9184TIP3    H148967   4.535   6.702  12.047 -0.7912  0.3368 -2.9993
 9184TIP3    H248968   4.449   6.598  12.115  1.2841  1.0194  0.9561
 9185TIP3   OH248969   1.969   2.429   1.993  0.1984 -0.3614  0.2630
 9185TIP3    H148970   2.053   2.426   1.947  0.0508 -2.2806  0.0537
 9185TIP3    H248971   1.979   2.368   2.066 -0.1112  1.4634  1.9143
 9186TIP3   OH248972   5.973   6.726   5.253 -0.1244  0.3491 -0.0579
 9186TIP3    H148973   5.967   6.677   5.335  0.9786 -0.4763 -0.4454
 9186TIP3    H248974   5.939   6.813   5.275 -2.8162 -0.7245  0.4778
 9187TIP3   OH248975   4.965   3.045  16.456 -0.0662  0.3927 -0.9499
 9187TIP3    H148976   5.041   3.096  16.430 -0.1472  2.7479  2.7266
 9187TIP3    H248977   4.890   3.098  16.428 -0.2766  0.0440 -1.0544
 9188TIP3   OH248978   2.869   2.232  10.762 -0.3627  0.0767  0.3272
 9188TIP3    H148979   2.906   2.144  10.768 -0.2222  0.0630 -0.6727
 9188TIP3    H248980   2.824   2.245  10.846 -1.5751 -1.4757 -0.0418
 9189TIP3   OH248981   0.348   6.757  16.173  0.1195  0.1262  0.5970
 9189TIP3    H148982   0.383   6.668  16.183  0.6485  0.4091  1.4030
 9189TIP3    H248983   0.258   6.744  16.145  1.1222 -0.6336 -2.7765
 9190TIP3   OH248984   6.413   0.023  12.288  0.3850  0.2359  0.2954
 9190TIP3    H148985   6.319   0.035  12.275  0.3258 -0.6888 -0.2224
 9190TIP3    H248986   6.454   0.088  12.232  0.0564  0.2442  0.0615
 9191TIP3   OH248987   3.078   3.762   0.228 -0.1366  0.1961 -0.7241
 9191TIP3    H148988   2.986   3.781   0.209 -0.1452 -1.4230 -2.6056
 9191TIP3    H248989   3.125   3.786   0.148  1.1313  1.0229  0.2154
 9192TIP3   OH248990   2.756   5.742   3.088  0.4552 -0.1559  0.5023
 9192TIP3    H148991   2.823   5.731   3.155 -1.1524 -1.3253  1.9889
 9192TIP3    H248992   2.674   5.718   3.131 -0.9484  1.1578 -1.2632
 9193TIP3   OH248993   1.959   6.409   2.086  0.4964 -0.0517 -0.0994
 9193TIP3    H148994   1.920   6.340   2.031  1.3349  0.1945 -1.0296
 9193TIP3    H248995   2.046   6.377   2.107 -0.1740 -0.6234  2.0236
 9194TIP3   OH248996   2.421   2.459  12.133  0.3345  0.0651 -0.2981
 9194TIP3    H148997   2.397   2.373  12.167  0.5886  0.3688  0.6686
 9194TIP3    H248998   2.475   2.498  12.201  0.8203  0.7126 -1.0341
 9195TIP3   OH248999   0.257   2.201  16.697 -0.2068 -0.0167 -0.0641
 9195TIP3    H149000   0.313   2.260  16.747 -2.2926  0.6986  1.5341
 9195TIP3    H249001   0.255   2.239  16.609 -1.8307  2.6843  1.0072
 9196TIP3   OH249002   3.762   5.393   2.943 -0.0106 -0.0786  0.0797
 9196TIP3    H149003   3.780   5.299   2.945 -0.4113 -0.2041  3.2946
 9196TIP3    H249004   3.840   5.433   2.980 -0.3651  0.7557 -0.0475
 9197TIP3   OH249005   3.778   5.548   1.401  0.5135 -0.0332 -0.3934
 9197TIP3    H149006   3.768   5.509   1.315 -0.7725  0.2830 -0.4163
 9197TIP3    H249007   3.865   5.588   1.400  1.1164 -1.2938 -1.0034
 9198TIP3   OH249008   4.097   1.148   5.744 -0.1092 -0.2734 -0.4507
 9198TIP3    H149009   4.039   1.087   5.789  0.3130 -1.2953 -1.2568
 9198TIP3    H249010   4.159   1.175   5.812 -0.7976 -0.1005  0.1160
 9199TIP3   OH249011   1.357   2.969  17.143 -0.2687 -0.1642  0.3500
 9199TIP3    H149012   1.275   3.016  17.125 -0.0621 -0.8706 -3.0073
 9199TIP3    H249013   1.424   3.020  17.098  0.3421 -2.2185 -1.2156
 9200TIP3   OH249014   4.500   5.985  12.951 -0.0454 -0.7010 -0.3546
 9200TIP3    H149015   4.479   5.944  12.868 -0.2046  1.8700 -1.6902
 9200TIP3    H249016   4.589   6.018  12.941  0.3168 -1.2129  0.8943
 9201TIP3   OH249017   0.256   1.405  13.865 -0.4858 -0.1075  0.7551
 9201TIP3    H149018   0.199   1.460  13.811  0.4294 -0.0991 -0.2177
 9201TIP3    H249019   0.214   1.406  13.951 -1.8869  0.0172  0.1104
 9202TIP3   OH249020   1.241   1.430   6.879 -0.3216  0.2625 -0.5305
 9202TIP3    H149021   1.171   1.494   6.872  0.3991  1.0856 -0.3948
 9202TIP3    H249022   1.202   1.348   6.848 -1.7645  0.3635  0.8982
 9203TIP3   OH249023   4.194   1.054  13.927  0.1290 -0.3085  0.2665
 9203TIP3    H149024   4.132   1.017  13.990 -0.7836 -0.5312 -0.7378
 9203TIP3    H249025   4.147   1.128  13.888  0.6348 -0.2447 -0.2379
 9204TIP3   OH249026   2.130   5.468   1.632  0.0671 -0.3433 -0.2677
 9204TIP3    H149027   2.180   5.394   1.599 -2.8686 -0.7691 -4.3316
 9204TIP3    H249028   2.143   5.537   1.567 -0.6638  1.2958  1.2245
 9205TIP3   OH249029   4.859   1.129  13.679 -0.1534 -0.0503 -0.4590
 9205TIP3    H149030   4.789   1.171  13.729 -0.8723 -0.1542 -1.3481
 9205TIP3    H249031   4.814   1.064  13.625  0.5661  0.2645 -1.4573
 9206TIP3   OH249032   4.525   4.832   0.800  0.5801 -0.6381  0.9493
 9206TIP3    H149033   4.570   4.808   0.881  1.7954 -0.5147  0.3412
 9206TIP3    H249034   4.580   4.902   0.763  0.1440 -0.8182 -0.0614
 9207TIP3   OH249035   4.868   2.080   4.063  0.7578  0.4183  0.1746
 9207TIP3    H149036   4.836   2.148   4.123  0.0932 -0.6109  1.0138
 9207TIP3    H249037   4.853   2.116   3.976 -1.4246  0.5553  0.5681
 9208TIP3   OH249038   2.557   1.073   3.394 -0.1418  0.2104 -0.0795
 9208TIP3    H149039   2.509   0.999   3.357 -0.3773 -0.0382  0.6994
 9208TIP3    H249040   2.507   1.150   3.369 -0.1630  0.0691 -0.4809
 9209TIP3   OH249041   5.004   2.325  11.772  0.2499 -0.0432  0.2863
 9209TIP3    H149042   4.946   2.342  11.846  2.3468 -0.6418  2.1747
 9209TIP3    H249043   4.952   2.349  11.695 -1.9915  0.6992  1.9177
 9210TIP3   OH249044   5.798   0.414   2.516 -0.2489 -0.7453 -0.0845
 9210TIP3    H149045   5.752   0.384   2.594  0.5860 -1.2811  0.2065
 9210TIP3    H249046   5.811   0.508   2.530 -2.4104 -0.2662 -0.7709
 9211TIP3   OH249047   4.608   1.663   5.069  0.5777 -0.2166 -0.3060
 9211TIP3    H149048   4.681   1.618   5.025  1.5347  0.6660  0.3279
 9211TIP3    H249049   4.594   1.742   5.018  1.2207  0.4600  0.5418
 9212TIP3   OH249050   6.486   3.967  13.680  0.0036  0.5727 -0.3071
 9212TIP3    H149051   6.481   3.904  13.608 -0.0282  1.1723 -0.8399
 9212TIP3    H249052   6.412   3.946  13.737  0.7194 -0.6789  0.1945
 9213TIP3   OH249053   3.413   2.539  14.161 -0.4795 -0.8688 -0.1363
 9213TIP3    H149054   3.336   2.512  14.211 -0.5428 -1.3686 -0.5014
 9213TIP3    H249055   3.448   2.458  14.125 -0.6491 -0.4787 -1.2198
 9214TIP3   OH249056   6.005   1.679   0.374 -0.2053 -0.3439 -0.2689
 9214TIP3    H149057   5.961   1.720   0.449 -0.4886 -1.3567  0.1317
 9214TIP3    H249058   5.947   1.608   0.348  0.9971 -1.4850  0.0421
 9215TIP3   OH249059   5.118   0.543  12.593  0.1453  0.5133 -0.4111
 9215TIP3    H149060   5.209   0.521  12.613 -0.4747  0.6927  3.1751
 9215TIP3    H249061   5.072   0.460  12.599 -0.3012  0.8107  0.2760
 9216TIP3   OH249062   1.086   0.072  13.943 -0.0463 -0.5728  0.1252
 9216TIP3    H149063   1.074  -0.006  13.998 -0.1091 -0.8114 -0.2206
 9216TIP3    H249064   1.180   0.075  13.926 -0.0026 -0.3941  0.3961
 9217TIP3   OH249065   0.715   5.842   1.427  0.3257 -0.1364  0.4853
 9217TIP3    H149066   0.809   5.843   1.447 -0.0495 -0.4088  2.3600
 9217TIP3    H249067   0.694   5.934   1.409  1.4457 -0.3575 -2.7893
 9218TIP3   OH249068   3.839   5.994   2.628 -0.3843 -0.1388 -0.9389
 9218TIP3    H149069   3.766   6.010   2.688  2.5445  1.9048  2.5564
 9218TIP3    H249070   3.801   6.002   2.541 -4.1969  1.3407  0.6108
 9219TIP3   OH249071   1.003   4.954  12.962  0.4284  0.3865  0.6504
 9219TIP3    H149072   1.092   4.918  12.968 -0.1506 -1.2675 -0.0238
 9219TIP3    H249073   1.012   5.030  12.905  1.1689 -0.7908 -0.8720
 9220TIP3   OH249074   1.470   2.693   4.269 -0.5808 -0.4181 -0.1816
 9220TIP3    H149075   1.454   2.765   4.208  1.1010  0.1145 -0.0294
 9220TIP3    H249076   1.495   2.619   4.214 -1.9783 -0.8195 -0.3136
 9221TIP3   OH249077   0.960   5.430  11.661 -0.2507  0.5024 -0.0236
 9221TIP3    H149078   0.964   5.337  11.638 -1.2876  0.2752  0.6742
 9221TIP3    H249079   0.985   5.475  11.580  1.0891 -0.3899 -0.1433
 9222TIP3   OH249080   3.661   3.669  13.682  0.1663 -0.1746 -0.2921
 9222TIP3    H149081   3.741   3.633  13.720  0.8348 -1.2363 -2.5086
 9222TIP3    H249082   3.690   3.747  13.635 -0.0333 -0.5949 -1.1511
 9223TIP3   OH249083   4.227   1.427   4.868 -0.0135  0.1008  0.4357
 9223TIP3    H149084   4.145   1.476   4.874  0.1366  0.8322 -2.2758
 9223TIP3    H249085   4.201   1.339   4.842  0.0428  0.9679 -3.0446
 9224TIP3   OH249086   1.637   0.134   4.214  0.1390 -0.1503 -0.0079
 9224TIP3    H149087   1.721   0.097   4.239  0.8220  0.4243 -1.3759
 9224TIP3    H249088   1.627   0.113   4.121 -0.6573  0.8365 -0.1735
 9225TIP3   OH249089   5.935   3.852   6.373  0.0536  0.1144 -0.4056
 9225TIP3    H149090   5.928   3.946   6.358 -0.1462 -0.0665 -1.5822
 9225TIP3    H249091   5.874   3.835   6.444 -1.0409  0.6732 -1.1742
 9226TIP3   OH249092   4.911   3.609  16.746  0.2121 -0.3309 -0.2114
 9226TIP3    H149093   4.906   3.644  16.657  2.8095  2.6371  0.6376
 9226TIP3    H249094   4.994   3.561  16.748  0.7777  0.6529  0.8807
 9227TIP3   OH249095   3.358   3.769  16.438 -0.1397 -0.5640 -0.2220
 9227TIP3    H149096   3.340   3.781  16.531  0.4594  0.1374 -0.1885
 9227TIP3    H249097   3.402   3.850  16.411  1.3907 -1.5070 -0.6854
 9228TIP3   OH249098   1.191   6.624  15.328  0.2878 -0.5162 -0.3162
 9228TIP3    H149099   1.155   6.639  15.240 -2.5614  0.9777  0.9652
 9228TIP3    H249100   1.224   6.710  15.355  0.5879 -0.8252  0.3130
 9229TIP3   OH249101   3.012   0.177   3.122  0.6752  0.2032  0.0588
 9229TIP3    H149102   3.102   0.208   3.132  0.5041  0.2385  1.7139
 9229TIP3    H249103   2.980   0.221   3.043  1.7018  1.1995  0.1714
 9230TIP3   OH249104   4.558   0.824  16.900  0.0255 -0.2794  0.2517
 9230TIP3    H149105   4.635   0.881  16.903 -0.0733 -0.1613  2.8725
 9230TIP3    H249106   4.484   0.884  16.909 -0.1461 -0.6400  1.5352
 9231TIP3   OH249107   5.903   3.505  15.924  0.4150 -0.4203  0.3269
 9231TIP3    H149108   5.884   3.491  16.016  0.1564  1.4270  0.5923
 9231TIP3    H249109   5.887   3.598  15.910  0.4293 -0.6654 -1.5930
 9232TIP3   OH249110   4.394   6.019   4.546  0.8366 -0.2847  0.4420
 9232TIP3    H149111   4.347   5.937   4.555 -1.1976  1.0313  3.5174
 9232TIP3    H249112   4.456   6.004   4.475  0.4106 -4.3538  0.7246
 9233TIP3   OH249113   6.632   6.325  15.444 -0.6843  0.2099  0.4247
 9233TIP3    H149114   6.676   6.247  15.411  2.2794  1.7904  0.2853
 9233TIP3    H249115   6.539   6.303  15.443 -0.4826 -1.5158 -4.5098
 9234TIP3   OH249116   5.217   5.687  16.323 -0.3582  0.7547  0.3138
 9234TIP3    H149117   5.258   5.770  16.298  0.3180 -0.1416 -1.7595
 9234TIP3    H249118   5.169   5.660  16.245  1.2477 -1.8881  0.1638
 9235TIP3   OH249119   1.534   1.043  16.347 -0.4018  0.3868 -0.4039
 9235TIP3    H149120   1.555   0.954  16.375  0.9303  1.2316  1.5015
 9235TIP3    H249121   1.439   1.049  16.352 -0.3769 -0.1287  2.3240
 9236TIP3   OH249122   3.922   2.279   3.822  0.0111 -0.1133  0.8691
 9236TIP3    H149123   3.913   2.186   3.842 -1.4941 -0.0370  0.6877
 9236TIP3    H249124   3.920   2.323   3.907 -1.5736 -0.1194  0.8692
 9237TIP3   OH249125   0.081   2.335  14.444  0.0850 -0.0877 -0.2758
 9237TIP3    H149126   0.068   2.261  14.503  0.0928 -1.5409 -2.0136
 9237TIP3    H249127   0.112   2.406  14.500  1.0779 -1.6999  1.3128
 9238TIP3   OH249128   3.254   1.388   4.263  0.1330 -0.1400 -0.3650
 9238TIP3    H149129   3.279   1.471   4.221  1.2897 -0.7355 -0.9187
 9238TIP3    H249130   3.161   1.398   4.282  0.3290  1.4474 -0.0354
 9239TIP3   OH249131   2.378   2.981  13.061  0.0260  0.1148  0.6909
 9239TIP3    H149132   2.296   2.946  13.026  0.4326 -0.1318 -0.0329
 9239TIP3    H249133   2.369   3.076  13.056 -0.4297  0.1002  1.1317
 9240TIP3   OH249134   5.552   0.405   2.368 -0.5483  0.0406 -0.1040
 9240TIP3    H149135   5.634   0.381   2.411 -0.1204  0.0620 -0.8857
 9240TIP3    H249136   5.484   0.363   2.420  0.0038 -0.4777  0.2054
 9241TIP3   OH249137   5.220   4.430  13.791  0.2761  0.1792  0.2737
 9241TIP3    H149138   5.258   4.344  13.809  0.3451  0.6153  2.4662
 9241TIP3    H249139   5.147   4.438  13.853  0.0980  1.5841 -0.0862
 9242TIP3   OH249140   3.406   2.944   2.030 -0.2614 -0.7779  0.2025
 9242TIP3    H149141   3.456   2.949   1.949  0.1121  2.7657  0.4805
 9242TIP3    H249142   3.319   2.977   2.008 -0.1118  0.3760  1.2162
 9243TIP3   OH249143   2.662   1.328  13.713 -0.0416 -0.1684  0.3255
 9243TIP3    H149144   2.575   1.325  13.674  0.9670 -2.4403 -2.0546
 9243TIP3    H249145   2.671   1.246  13.761  1.3091 -0.7632 -0.8587
 9244TIP3   OH249146   3.756   3.967   3.916  0.0320 -0.7208 -0.3393
 9244TIP3    H149147   3.782   3.901   3.852 -0.4550 -0.7444 -0.5183
 9244TIP3    H249148   3.743   3.918   3.997 -0.0638 -0.8083 -0.4067
 9245TIP3   OH249149   2.526   6.001   4.446 -0.1885  0.4072  0.6932
 9245TIP3    H149150   2.512   6.095   4.458 -1.6245  0.3341 -0.1833
 9245TIP3    H249151   2.529   5.966   4.535  2.7598  1.5345  1.1577
 9246TIP3   OH249152   1.327   0.076  16.389  0.1659 -0.0524  0.4119
 9246TIP3    H149153   1.292   0.004  16.336 -1.7131  0.9929  0.1542
 9246TIP3    H249154   1.287   0.065  16.475 -0.1470  0.6862  0.3683
 9247TIP3   OH249155   0.744   6.373  17.151  0.1783  0.7693  0.0176
 9247TIP3    H149156   0.679   6.423  17.199  1.9864  1.1628  2.2567
 9247TIP3    H249157   0.741   6.408  17.062 -2.7129  0.6206 -0.0306
 9248TIP3   OH249158   1.224   0.502   1.160  0.5786  0.0824 -0.3342
 9248TIP3    H149159   1.134   0.533   1.170  1.1945  1.8914 -0.1114
 9248TIP3    H249160   1.272   0.545   1.231  1.3087 -2.3456  0.7764
 9249TIP3   OH249161   4.578   6.760   4.715 -0.0488 -0.3262  0.4489
 9249TIP3    H149162   4.605   6.687   4.660 -0.8134  0.4836 -1.0757
 9249TIP3    H249163   4.619   6.837   4.674 -1.8316  0.4816  0.0740
 9250TIP3   OH249164   4.228   3.522   3.309 -0.7125  0.3480 -0.2800
 9250TIP3    H149165   4.259   3.495   3.223 -1.1151  0.4786 -0.4686
 9250TIP3    H249166   4.193   3.442   3.348  0.2433  0.1008  0.1125
 9251TIP3   OH249167   2.481   4.205  12.299 -0.1641  0.0968 -0.5920
 9251TIP3    H149168   2.494   4.123  12.348 -1.8451  0.5471  0.6909
 9251TIP3    H249169   2.428   4.179  12.223 -0.3137 -0.0825 -0.4290
 9252TIP3   OH249170   1.877   4.554  15.136  0.6435  0.1170 -0.1289
 9252TIP3    H149171   1.957   4.605  15.152  0.1892  0.9903 -0.5272
 9252TIP3    H249172   1.831   4.604  15.068  0.5978 -1.3099 -1.1968
 9253TIP3   OH249173   6.016   6.209   0.904  0.5496 -0.2814  1.1509
 9253TIP3    H149174   6.054   6.291   0.937  1.5728  0.1451 -0.9362
 9253TIP3    H249175   6.090   6.162   0.866 -0.0123 -2.2689  2.3947
 9254TIP3   OH249176   0.790   2.258  13.008  0.3511 -0.0732  0.4397
 9254TIP3    H149177   0.724   2.190  12.992  1.1577 -0.5556 -1.0969
 9254TIP3    H249178   0.768   2.293  13.094  0.0490 -2.4407  1.4089
 9255TIP3   OH249179   1.391   4.593  12.291  0.1701 -0.0106 -0.1628
 9255TIP3    H149180   1.367   4.508  12.327  2.5107 -1.4160 -1.6996
 9255TIP3    H249181   1.324   4.610  12.224 -1.2119  0.1814  1.2084
 9256TIP3   OH249182   6.276   0.388  15.724  0.1989  0.2403  0.2565
 9256TIP3    H149183   6.219   0.385  15.648 -0.8534  1.7382  0.9295
 9256TIP3    H249184   6.266   0.478  15.758 -0.4931 -0.7319  2.9408
 9257TIP3   OH249185   0.393   5.137   1.037 -0.1353  0.4346  0.3960
 9257TIP3    H149186   0.481   5.155   1.004 -0.0217 -0.7469  0.0059
 9257TIP3    H249187   0.337   5.149   0.961  0.1127 -2.1764 -0.2812
 9258TIP3   OH249188   2.054   2.007   4.561 -0.3389  0.3845  0.5866
 9258TIP3    H149189   2.036   1.919   4.595  0.8270  0.3800  1.2545
 9258TIP3    H249190   2.143   2.001   4.527 -1.0216  0.7286 -1.3879
 9259TIP3   OH249191   3.579   2.650  13.473  0.3562  0.2281 -0.3859
 9259TIP3    H149192   3.555   2.682  13.386  0.1517 -0.2809 -0.5218
 9259TIP3    H249193   3.596   2.729  13.524 -1.9164  0.6841 -0.1974
 9260TIP3   OH249194   6.482   1.418   0.179 -0.0693  0.2579  1.1421
 9260TIP3    H149195   6.493   1.456   0.091  0.7820 -0.9684  0.6843
 9260TIP3    H249196   6.400   1.455   0.211 -0.6645  0.3517 -0.3915
 9261TIP3   OH249197   0.698   3.773   0.168  0.0708 -0.3642  0.1331
 9261TIP3    H149198   0.617   3.820   0.187  0.4300 -0.5350  2.2422
 9261TIP3    H249199   0.766   3.819   0.217  1.2397 -0.3830 -1.3851
 9262TIP3   OH249200   4.624   5.049  13.129 -0.3309  0.0188 -0.0189
 9262TIP3    H149201   4.670   5.061  13.212 -0.1542 -1.1322  0.0553
 9262TIP3    H249202   4.666   4.974  13.088  0.2594  1.1745 -1.6419
 9263TIP3   OH249203   3.630   6.396   0.440 -0.1314 -0.3416  0.0718
 9263TIP3    H149204   3.723   6.410   0.427  0.1850 -0.4651  1.9021
 9263TIP3    H249205   3.625   6.331   0.511 -1.5299  2.3785  2.7238
 9264TIP3   OH249206   0.974   3.593   2.044  0.0926 -0.0293  0.6027
 9264TIP3    H149207   1.023   3.561   1.968 -0.5672 -0.1084  0.1939
 9264TIP3    H249208   0.945   3.681   2.017 -0.9007 -0.4096  0.4022
 9265TIP3   OH249209   2.478   5.779   5.462 -0.4333  0.2512 -0.1205
 9265TIP3    H149210   2.390   5.774   5.424 -1.6864 -0.5507  2.6817
 9265TIP3    H249211   2.477   5.860   5.513 -0.8138 -1.3719  2.6363
 9266TIP3   OH249212   1.001   0.289  13.807 -0.0132 -0.1349 -0.7049
 9266TIP3    H149213   1.083   0.331  13.782 -0.6514  2.0754  0.6330
 9266TIP3    H249214   1.027   0.208  13.850  1.4614  0.5091 -0.3368
 9267TIP3   OH249215   2.787   5.385  14.584  0.2921 -0.4347 -0.3038
 9267TIP3    H149216   2.769   5.327  14.510 -0.7273 -0.6675  0.1136
 9267TIP3    H249217   2.813   5.326  14.655  1.6538 -0.1852 -0.5586
 9268TIP3   OH249218   1.770   4.177   3.489  0.3200 -0.1922 -0.4450
 9268TIP3    H149219   1.859   4.175   3.454  0.2561 -0.4556 -0.5993
 9268TIP3    H249220   1.765   4.101   3.547  0.4649  0.3131  0.2404
 9269TIP3   OH249221   6.202   3.503  13.220 -0.3706 -0.0500 -0.1537
 9269TIP3    H149222   6.189   3.415  13.185 -0.8436 -0.8370  1.9192
 9269TIP3    H249223   6.294   3.522  13.201  0.0845 -1.4999  0.4681
 9270TIP3   OH249224   5.354   6.430   1.561 -0.0388  0.3717 -0.1017
 9270TIP3    H149225   5.298   6.361   1.597  0.2399  0.4562  0.5067
 9270TIP3    H249226   5.342   6.423   1.466  0.4750 -0.9282 -0.0940
 9271TIP3   OH249227   5.771   3.273   4.226  0.6179 -0.3363 -0.2615
 9271TIP3    H149228   5.805   3.237   4.308  1.1218 -2.2020 -1.2220
 9271TIP3    H249229   5.849   3.283   4.171  0.3951  1.7150 -0.2469
 9272TIP3   OH249230   5.083   2.089  15.616 -0.1919 -0.1189 -0.3301
 9272TIP3    H149231   5.111   2.175  15.649 -0.8461  0.2173 -0.6473
 9272TIP3    H249232   5.157   2.031  15.636  0.0503  0.4069  0.3364
 9273TIP3   OH249233   2.164   6.632  12.570 -0.1198  0.1204 -0.0575
 9273TIP3    H149234   2.113   6.676  12.638 -1.0612  1.1183 -1.3305
 9273TIP3    H249235   2.198   6.553  12.612 -1.9150 -0.0752  1.1422
 9274TIP3   OH249236   2.607   5.772  14.645  0.2222  0.2048 -0.2832
 9274TIP3    H149237   2.594   5.854  14.598  1.1485  0.2871 -0.4073
 9274TIP3    H249238   2.668   5.722  14.590  2.3734  0.8269  1.3953
 9275TIP3   OH249239   4.831   2.326   5.197 -0.0500  0.0252 -0.0815
 9275TIP3    H149240   4.778   2.392   5.153  0.0118 -0.1995 -0.5034
 9275TIP3    H249241   4.913   2.323   5.147 -0.1075 -0.4667 -0.1483
 9276TIP3   OH249242   5.048   1.230   5.552  0.2133 -0.2608 -0.5139
 9276TIP3    H149243   4.956   1.224   5.577 -0.0730  0.5479 -1.3122
 9276TIP3    H249244   5.094   1.179   5.618 -0.9733 -2.2543 -1.1593
 9277TIP3   OH249245   2.970   6.796   1.700  0.4568  0.2115  0.1608
 9277TIP3    H149246   3.028   6.782   1.775  0.5473  1.8924  0.4330
 9277TIP3    H249247   3.021   6.768   1.624  1.2145  0.6431  0.5049
 9278TIP3   OH249248   2.357   4.539   3.363  0.0613  0.1702 -0.1997
 9278TIP3    H149249   2.302   4.536   3.285 -0.9227 -0.5961  0.4909
 9278TIP3    H249250   2.319   4.608   3.417 -0.0575 -0.1617  0.1490
 9279TIP3   OH249251   6.484   4.431   3.270 -0.2114 -0.1306 -0.3155
 9279TIP3    H149252   6.438   4.356   3.306  0.2748 -0.7540 -0.9618
 9279TIP3    H249253   6.562   4.440   3.324 -0.1561 -0.2332 -0.3772
 9280TIP3   OH249254   5.503   4.136   3.654  0.1578 -0.3505  0.7773
 9280TIP3    H149255   5.534   4.107   3.568  0.3740  0.1067  0.6991
 9280TIP3    H249256   5.583   4.162   3.701  0.0212 -0.4029  1.0454
 9281TIP3   OH249257   0.531   4.317  15.612  0.3051  0.1661  0.0500
 9281TIP3    H149258   0.548   4.356  15.698  0.0823  0.8621 -0.2083
 9281TIP3    H249259   0.484   4.236  15.631 -1.2849  1.1439  0.5515
 9282TIP3   OH249260   0.685   5.631  13.180 -0.3391  0.3075  0.0375
 9282TIP3    H149261   0.673   5.585  13.263 -2.2286  0.7407  0.0519
 9282TIP3    H249262   0.650   5.719  13.196  0.2485  0.7445 -0.9313
 9283TIP3   OH249263   0.896   2.896   5.004  0.3586  0.6277 -0.3705
 9283TIP3    H149264   0.875   2.819   4.950 -0.7668  0.1562  0.6770
 9283TIP3    H249265   0.929   2.961   4.942  2.3719 -1.0393 -1.1567
 9284TIP3   OH249266   3.614   4.296   4.114  0.5707  0.0249  0.5504
 9284TIP3    H149267   3.536   4.242   4.100  0.5182 -0.1542  1.4852
 9284TIP3    H249268   3.598   4.375   4.063 -1.0576  0.7969  2.1559
 9285TIP3   OH249269   2.294   4.644   0.544  0.3638 -0.2881 -0.2223
 9285TIP3    H149270   2.232   4.713   0.569 -1.5168 -1.6538 -0.8235
 9285TIP3    H249271   2.238   4.568   0.528  2.4574 -2.3739  1.7185
 9286TIP3   OH249272   4.566   2.316   3.934  0.0376  0.0673 -0.1099
 9286TIP3    H149273   4.575   2.286   4.024  1.5388  1.9240  0.4123
 9286TIP3    H249274   4.636   2.270   3.886  0.8264  0.9120  0.2057
 9287TIP3   OH249275   1.340   4.818   5.218 -0.7824  0.1867  0.6368
 9287TIP3    H149276   1.404   4.777   5.276 -0.1877  0.2312  0.0331
 9287TIP3    H249277   1.303   4.746   5.167  2.6243  0.4813 -2.8053
 9288TIP3   OH249278   5.400   2.890   2.637 -0.1314 -0.4010 -0.4389
 9288TIP3    H149279   5.444   2.891   2.552  2.0010 -0.8490  0.5837
 9288TIP3    H249280   5.398   2.797   2.661  0.8818 -0.1379  0.7417
 9289TIP3   OH249281   1.511   5.472   4.306  0.0234 -0.0519 -0.4322
 9289TIP3    H149282   1.603   5.467   4.281 -0.0970 -0.0496 -0.8963
 9289TIP3    H249283   1.486   5.382   4.326  0.2221 -0.0006  0.0601
 9290TIP3   OH249284   5.559   6.380   0.767  0.0948 -0.3484 -0.0576
 9290TIP3    H149285   5.490   6.341   0.715 -0.4807 -4.0552  3.0270
 9290TIP3    H249286   5.640   6.358   0.720 -0.5310 -0.0084 -1.3492
 9291TIP3   OH249287   1.085   6.346  15.788 -0.3808 -0.2887  0.2325
 9291TIP3    H149288   1.072   6.273  15.728 -0.4587 -0.6041  0.6265
 9291TIP3    H249289   1.095   6.423  15.731 -1.6600 -0.3883 -0.1594
 9292TIP3   OH249290   1.554   0.741  16.302 -0.3504  0.5971 -0.5999
 9292TIP3    H149291   1.462   0.713  16.304 -0.4246  0.8657  0.4836
 9292TIP3    H249292   1.574   0.749  16.209 -1.6780  1.3014 -0.8677
 9293TIP3   OH249293   4.501   1.314  16.073  0.2379 -0.1565  0.0209
 9293TIP3    H149294   4.563   1.370  16.119 -0.9713 -0.3549  2.0033
 9293TIP3    H249295   4.437   1.374  16.035  1.7604  0.0770 -2.3672
 9294TIP3   OH249296   3.169   4.197  10.998 -0.2588 -0.0344  0.0635
 9294TIP3    H149297   3.142   4.185  11.089 -4.3781 -1.0393 -1.0680
 9294TIP3    H249298   3.103   4.256  10.962  1.1427  0.1615 -2.3222
 9295TIP3   OH249299   2.079   1.144   2.023 -0.0419  0.4455  0.3156
 9295TIP3    H149300   2.168   1.161   2.054 -0.3659  0.2360  1.4021
 9295TIP3    H249301   2.085   1.152   1.928  1.0737  0.7221  0.3943
 9296TIP3   OH249302   4.721   6.313   6.750  0.1192 -0.2632  0.8533
 9296TIP3    H149303   4.700   6.405   6.768  0.4716 -0.1713  0.8011
 9296TIP3    H249304   4.655   6.286   6.686  1.4580  0.6640 -1.0106
 9297TIP3   OH249305   0.722   1.614  10.779 -0.0740 -0.1854 -0.0780
 9297TIP3    H149306   0.774   1.541  10.812  0.9453  0.9848  1.0466
 9297TIP3    H249307   0.633   1.581  10.775  0.4943 -1.7332 -0.4002
 9298TIP3   OH249308   3.707   6.467   3.274  0.9487 -0.2863  0.5163
 9298TIP3    H149309   3.765   6.454   3.349  1.0582 -1.0282  0.3175
 9298TIP3    H249310   3.643   6.396   3.281 -0.3492  0.9039  1.1018
 9299TIP3   OH249311   4.507   0.398   0.566 -0.3803 -0.1327  0.2024
 9299TIP3    H149312   4.532   0.370   0.654  1.4471  2.2640  0.5486
 9299TIP3    H249313   4.464   0.483   0.579  0.8487  0.7587 -1.2374
 9300TIP3   OH249314   0.518   1.564  16.238 -0.0883  1.3447 -0.0543
 9300TIP3    H149315   0.563   1.629  16.293  0.2830  0.3836  0.8089
 9300TIP3    H249316   0.556   1.480  16.265 -0.9257  0.7172 -0.7911
 9301TIP3   OH249317   6.238   2.134  14.339 -0.6130 -0.2255  0.1166
 9301TIP3    H149318   6.206   2.107  14.425 -1.7730  1.3480  0.2175
 9301TIP3    H249319   6.161   2.133  14.283  0.4660 -3.2351 -1.5253
 9302TIP3   OH249320   6.622   0.735  15.152  0.2200 -0.2050  0.1326
 9302TIP3    H149321   6.673   0.813  15.129 -1.3063  0.5705 -0.7821
 9302TIP3    H249322   6.631   0.677  15.077  1.0494 -0.7793  0.6570
 9303TIP3   OH249323   4.366   0.245   4.542  0.4107  0.5110 -0.3155
 9303TIP3    H149324   4.382   0.157   4.508  1.2432 -0.4351  2.2440
 9303TIP3    H249325   4.418   0.302   4.486  1.8727 -0.9517 -0.5229
 9304TIP3   OH249326   1.082   4.062  16.239 -0.2293  0.2932  0.0773
 9304TIP3    H149327   1.130   4.027  16.164  1.4253  0.8108  0.8434
 9304TIP3    H249328   1.143   4.123  16.280 -2.3637  2.7897 -0.1954
 9305TIP3   OH249329   5.216   2.038  15.063  0.2700 -0.1086 -0.6333
 9305TIP3    H149330   5.276   2.103  15.100 -0.2559  0.4524 -0.7539
 9305TIP3    H249331   5.143   2.090  15.030 -0.4876 -0.8235 -0.1005
 9306TIP3   OH249332   2.596   5.386  11.157 -0.0716 -0.3086  0.6032
 9306TIP3    H149333   2.613   5.409  11.248 -0.4058 -1.4899  0.9818
 9306TIP3    H249334   2.659   5.317  11.137  1.4625  1.3754 -0.7611
 9307TIP3   OH249335   1.582   2.027  14.200  0.4100  0.6210 -0.3588
 9307TIP3    H149336   1.619   1.967  14.134 -1.4513 -0.2410 -0.6883
 9307TIP3    H249337   1.520   2.080  14.151 -0.9511  0.0125  0.6585
 9308TIP3   OH249338   1.837   1.979   3.665  0.0713  0.1263 -0.2826
 9308TIP3    H149339   1.753   2.025   3.674 -0.5034 -0.6219 -1.5701
 9308TIP3    H249340   1.881   2.025   3.594  1.4032  1.4022  1.2867
 9309TIP3   OH249341   2.855   3.432   0.516  0.1288  0.2897 -0.5433
 9309TIP3    H149342   2.788   3.500   0.525  1.5595  1.7377 -0.2979
 9309TIP3    H249343   2.806   3.352   0.500 -1.6119  1.4776 -1.5027
 9310TIP3   OH249344   5.379   5.111   3.150 -0.0701 -0.0008 -0.4387
 9310TIP3    H149345   5.460   5.066   3.172  0.3998  0.2894 -1.5093
 9310TIP3    H249346   5.315   5.078   3.213  1.2934  1.1626  1.7104
 9311TIP3   OH249347   1.146   4.182  16.580 -0.7040 -0.4053  0.7175
 9311TIP3    H149348   1.069   4.173  16.525 -0.0003  2.6492 -1.0233
 9311TIP3    H249349   1.219   4.153  16.524 -0.3518 -1.1589  1.5445
 9312TIP3   OH249350   6.540   2.329  11.870 -0.3006  0.0999 -0.0357
 9312TIP3    H149351   6.520   2.268  11.941 -0.6082  0.3016  0.0496
 9312TIP3    H249352   6.599   2.279  11.813  1.8281  0.7196  1.5261
 9313TIP3   OH249353   1.344   3.627   1.919  0.5795 -0.5198  0.9393
 9313TIP3    H149354   1.274   3.690   1.934  0.1902 -0.1205 -1.8682
 9313TIP3    H249355   1.407   3.643   1.989  0.0260  2.3309  0.9051
 9314TIP3   OH249356   6.630   5.600   5.163  0.1946  0.0837 -0.4684
 9314TIP3    H149357   6.559   5.585   5.224  0.0752 -2.6412 -1.1478
 9314TIP3    H249358   6.709   5.574   5.210  0.4791  0.8254 -0.5141
 9315TIP3   OH249359   2.746   1.942  13.535 -0.1818  0.0939 -0.8882
 9315TIP3    H149360   2.721   1.850  13.520 -0.4869  0.2381 -1.2779
 9315TIP3    H249361   2.663   1.989  13.537 -0.2078  0.0924  1.3750
 9316TIP3   OH249362   0.265   6.191   0.987  0.3029 -0.0259 -0.1919
 9316TIP3    H149363   0.349   6.202   0.942  0.1301 -1.3643 -0.9110
 9316TIP3    H249364   0.288   6.176   1.078  0.8062  0.4058 -0.2483
 9317TIP3   OH249365   0.536   3.170  14.612  0.1019 -0.2586 -0.0175
 9317TIP3    H149366   0.615   3.153  14.664  0.4825  1.3925  0.0028
 9317TIP3    H249367   0.566   3.225  14.540 -0.8967 -0.3345 -0.5093
 9318TIP3   OH249368   1.399   4.637   0.070 -0.2498 -0.1690 -0.1398
 9318TIP3    H149369   1.341   4.638  -0.006 -0.3721  0.6360 -0.0447
 9318TIP3    H249370   1.427   4.545   0.077 -0.5351 -0.3288 -0.9192
 9319TIP3   OH249371   4.303   0.271  14.889 -0.1353  0.1633 -0.0245
 9319TIP3    H149372   4.362   0.322  14.833  1.6634 -1.4627  0.2974
 9319TIP3    H249373   4.321   0.180  14.868  0.0273 -0.4947  2.5888
 9320TIP3   OH249374   3.807   0.371   3.527 -0.2846 -0.4817  0.5120
 9320TIP3    H149375   3.747   0.408   3.591 -3.0172  1.4518 -2.7820
 9320TIP3    H249376   3.878   0.435   3.521 -0.3797 -0.3207  1.0804
 9321TIP3   OH249377   1.654   2.370   2.154 -0.3194  0.0327  0.1167
 9321TIP3    H149378   1.564   2.403   2.153 -0.5791 -0.6485  0.1307
 9321TIP3    H249379   1.667   2.339   2.243 -0.0191  0.2523  0.1521
 9322TIP3   OH249380   5.667   3.605  16.768  0.4295 -0.2709  0.3725
 9322TIP3    H149381   5.610   3.677  16.743 -2.5551 -3.1101 -1.8086
 9322TIP3    H249382   5.632   3.574  16.852  0.7574 -0.1469  0.5590
 9323TIP3   OH249383   6.017   2.399   2.758 -0.2873 -0.3058  0.4258
 9323TIP3    H149384   5.964   2.358   2.827  0.9308 -2.1064  0.3532
 9323TIP3    H249385   6.008   2.340   2.683 -0.2452  0.7415 -0.4201
 9324TIP3   OH249386   4.137   0.699  11.510  0.5691  0.5299  0.3834
 9324TIP3    H149387   4.216   0.731  11.553  1.6893 -0.6990 -0.6687
 9324TIP3    H249388   4.138   0.740  11.423  1.3529 -1.2397 -0.5079
 9325TIP3   OH249389   2.126   1.565  15.672  0.0527 -0.6005  0.0499
 9325TIP3    H149390   2.123   1.516  15.754 -1.1681  0.7619  0.8698
 9325TIP3    H249391   2.034   1.582  15.651  0.4103  2.3470  0.4697
 9326TIP3   OH249392   3.810   5.706   2.443 -0.4058 -0.1910 -0.0163
 9326TIP3    H149393   3.811   5.613   2.466  1.9113 -0.1556  0.2550
 9326TIP3    H249394   3.869   5.747   2.507 -0.7583  1.3412 -0.6379
 9327TIP3   OH249395   2.167   4.298  15.526  0.1799  0.1435  0.1135
 9327TIP3    H149396   2.086   4.247  15.522  0.2435 -0.1067  1.4409
 9327TIP3    H249397   2.163   4.356  15.450 -1.1988  0.0663  0.1028
 9328TIP3   OH249398   6.380   5.944   3.739 -0.5104 -0.4193 -0.0955
 9328TIP3    H149399   6.435   5.905   3.806  0.3576  0.6338 -0.1513
 9328TIP3    H249400   6.442   5.968   3.669 -1.3087 -0.9440 -0.9956
 9329TIP3   OH249401   5.726   5.363  16.787 -0.4666 -0.0334 -0.0716
 9329TIP3    H149402   5.781   5.377  16.710 -1.1532  1.5859 -0.2992
 9329TIP3    H249403   5.695   5.451  16.811 -1.5306 -0.6995  1.1108
 9330TIP3   OH249404   3.797   5.745  14.627 -0.3320 -0.3788  0.1944
 9330TIP3    H149405   3.882   5.720  14.663  1.2592 -0.2191 -3.0840
 9330TIP3    H249406   3.769   5.668  14.577 -1.0486  0.3302 -0.5267
 9331TIP3   OH249407   2.440   0.584   6.646  0.1150  0.1148  0.1152
 9331TIP3    H149408   2.376   0.651   6.669  1.5005  0.9692  1.6998
 9331TIP3    H249409   2.391   0.502   6.649 -0.9657  0.7611  0.9808
 9332TIP3   OH249410   0.286   6.563  13.212  0.0469 -0.3985 -0.3137
 9332TIP3    H149411   0.217   6.503  13.237  1.3711 -2.4684 -1.3504
 9332TIP3    H249412   0.275   6.639  13.270 -2.2500 -1.2102  0.3955
 9333TIP3   OH249413   0.575   4.233   4.724 -0.2693  0.2686  0.0141
 9333TIP3    H149414   0.653   4.192   4.763 -0.2565 -0.1153 -0.3984
 9333TIP3    H249415   0.501   4.192   4.770 -0.2235  1.0120  0.7679
 9334TIP3   OH249416   1.760   3.307   2.172 -0.5950  0.0300 -0.1432
 9334TIP3    H149417   1.732   3.291   2.262  2.1324  0.0374  0.7784
 9334TIP3    H249418   1.725   3.233   2.122 -1.3137 -0.4891  1.1071
 9335TIP3   OH249419   1.611   0.614  15.265  0.3116  0.0958 -0.4950
 9335TIP3    H149420   1.650   0.613  15.353 -0.2362  2.2173 -0.1607
 9335TIP3    H249421   1.535   0.556  15.272  0.8385 -0.5378  0.1317
 9336TIP3   OH249422   3.101   3.114  10.335 -0.0990 -0.4045  0.2725
 9336TIP3    H149423   3.089   3.053  10.408 -0.7566 -0.9731 -0.2974
 9336TIP3    H249424   3.017   3.159  10.326 -0.0652 -0.4269 -0.2091
 9337TIP3   OH249425   4.338   0.796  15.756  0.4052 -0.3981  0.0483
 9337TIP3    H149426   4.350   0.701  15.760  0.0182 -0.4130  1.7482
 9337TIP3    H249427   4.244   0.809  15.752  0.5012 -0.0947 -3.0474
 9338TIP3   OH249428   3.717   5.613  16.575 -0.0123  0.0022 -0.5648
 9338TIP3    H149429   3.644   5.563  16.611  0.7315 -1.3525 -0.8490
 9338TIP3    H249430   3.704   5.609  16.480 -0.9178  1.9052 -0.5464
 9339TIP3   OH249431   3.195   5.087   0.959 -0.0218  0.2216 -0.1619
 9339TIP3    H149432   3.103   5.097   0.935  0.0364  2.8337  0.3793
 9339TIP3    H249433   3.242   5.144   0.898  0.9122  1.0448  1.2565
 9340TIP3   OH249434   4.821   2.582   4.169 -0.0553  0.2658  0.0016
 9340TIP3    H149435   4.892   2.570   4.106  1.1748  1.2059  1.1530
 9340TIP3    H249436   4.782   2.667   4.146 -0.3499  0.0877 -0.1731
 9341TIP3   OH249437   5.063   1.571   0.487 -0.0939  0.0736 -0.3101
 9341TIP3    H149438   5.100   1.565   0.400  0.5352  3.3014 -0.4095
 9341TIP3    H249439   5.138   1.564   0.546 -0.5374 -2.2865  0.0561
 9342TIP3   OH249440   2.099   0.456   3.270 -0.2983 -0.3347  0.3134
 9342TIP3    H149441   2.149   0.457   3.352 -0.7734 -1.5753  0.6407
 9342TIP3    H249442   2.071   0.365   3.260 -0.9956 -0.0180 -0.7773
 9343TIP3   OH249443   4.643   2.960   5.890  0.4841 -0.0474 -0.2799
 9343TIP3    H149444   4.609   2.907   5.962  2.9052 -2.0700 -0.4837
 9343TIP3    H249445   4.737   2.967   5.908  0.4116  3.9717 -0.4946
 9344TIP3   OH249446   1.206   2.652  15.461  0.6898 -0.1291  0.6874
 9344TIP3    H149447   1.181   2.660  15.553  0.5927 -0.7804  0.7186
 9344TIP3    H249448   1.194   2.740  15.425 -0.8211 -0.2306  0.9025
 9345TIP3   OH249449   0.754   6.627   6.853  0.2044 -0.3854 -0.4407
 9345TIP3    H149450   0.806   6.547   6.848  1.7217  0.3955  1.6804
 9345TIP3    H249451   0.669   6.599   6.887  0.7032 -1.1222  0.2264
 9346TIP3   OH249452   3.542   4.374   3.099  0.3961  0.1678 -0.0938
 9346TIP3    H149453   3.574   4.464   3.088 -2.3148  1.3125  0.5006
 9346TIP3    H249454   3.536   4.361   3.193 -0.1185 -0.2866 -0.1813
 9347TIP3   OH249455   6.306   5.528   3.447 -0.0605 -0.3310 -0.4822
 9347TIP3    H149456   6.252   5.607   3.452 -0.4590 -0.3847 -2.6260
 9347TIP3    H249457   6.260   5.472   3.385  0.0191 -2.4580  1.2687
 9348TIP3   OH249458   2.710   0.595  14.221  0.6139 -0.1500  0.5686
 9348TIP3    H149459   2.624   0.629  14.245  0.9306  2.0606 -1.0632
 9348TIP3    H249460   2.769   0.627  14.289  0.2157 -1.6694  1.6892
 9349TIP3   OH249461   3.273   5.008  11.165  0.8001 -1.0864 -0.0986
 9349TIP3    H149462   3.351   5.050  11.130  1.0900 -1.7505 -0.2797
 9349TIP3    H249463   3.284   4.915  11.142  1.0320 -1.5624  1.8088
 9350TIP3   OH249464   1.221   6.129   0.761  0.3329 -0.1669 -0.2478
 9350TIP3    H149465   1.240   6.040   0.793 -0.8925 -0.4372 -0.2354
 9350TIP3    H249466   1.202   6.179   0.841 -0.6762 -0.3325 -0.3687
 9351TIP3   OH249467   4.550   6.376   0.425 -0.0122  0.2937 -0.1696
 9351TIP3    H149468   4.548   6.453   0.481  0.9424 -1.4489  2.4426
 9351TIP3    H249469   4.640   6.372   0.393  0.4851 -0.6721  1.2327
 9352TIP3   OH249470   2.396   1.443  11.928 -0.0402 -0.1247 -0.0042
 9352TIP3    H149471   2.365   1.380  11.994 -2.5729 -0.6517 -1.5348
 9352TIP3    H249472   2.335   1.432  11.855  1.3009  2.0094 -1.5536
 9353TIP3   OH249473   4.964   4.924  15.582  0.4018 -0.0627 -0.6161
 9353TIP3    H149474   4.987   4.863  15.512  1.7106 -0.2352 -0.0620
 9353TIP3    H249475   4.986   5.010  15.547  2.2447 -0.2443 -0.0013
 9354TIP3   OH249476   3.940   0.893   2.452  0.3121 -0.0033 -0.0703
 9354TIP3    H149477   3.898   0.942   2.380  1.4542  1.4314  0.1885
 9354TIP3    H249478   3.885   0.912   2.528 -0.4572 -0.8926 -0.3818
 9355TIP3   OH249479   0.488   4.656  15.125 -0.2358  0.6568  0.5247
 9355TIP3    H149480   0.553   4.608  15.178 -1.4723 -0.3656  1.1739
 9355TIP3    H249481   0.468   4.733  15.177  0.1398  0.7535  0.5286
 9356TIP3   OH249482   0.169   5.980   2.137 -0.7086  0.4588  0.1895
 9356TIP3    H149483   0.235   5.957   2.202 -1.6420 -2.0260  0.3297
 9356TIP3    H249484   0.103   5.912   2.143 -1.0083  0.2867 -3.1422
 9357TIP3   OH249485   2.293   5.727  11.053 -0.0979  0.4523  0.1385
 9357TIP3    H149486   2.322   5.652  11.001 -0.3398  0.0461  0.5937
 9357TIP3    H249487   2.270   5.691  11.138 -2.4131  0.6719 -0.3327
 9358TIP3   OH249488   2.460   4.503  11.184  0.5739  0.9494 -0.0872
 9358TIP3    H149489   2.464   4.589  11.141  1.5480  0.7443 -0.4437
 9358TIP3    H249490   2.541   4.460  11.157 -0.2249 -0.3545 -0.4590
 9359TIP3   OH249491   2.012   5.479  11.430 -0.3335  0.2840  0.6631
 9359TIP3    H149492   1.974   5.456  11.515 -1.4711 -2.3419 -0.4406
 9359TIP3    H249493   2.090   5.531  11.452 -2.3633  2.6318  3.1536
 9360TIP3   OH249494   4.777   6.631   3.098 -0.1284  0.2448 -0.3707
 9360TIP3    H149495   4.814   6.574   3.031  0.3099 -1.4183  1.2147
 9360TIP3    H249496   4.684   6.612   3.097  0.3947 -3.5977  2.7255
 9361TIP3   OH249497   5.647   2.097  13.573  0.1697 -0.0393 -0.1823
 9361TIP3    H149498   5.718   2.055  13.525  0.2080  0.0855 -0.2350
 9361TIP3    H249499   5.631   2.179  13.526 -0.3660 -0.3066 -0.4876
 9362TIP3   OH249500   3.170   4.999  11.501 -0.0343  0.0067  0.0204
 9362TIP3    H149501   3.179   4.969  11.591  0.5167  0.1481  0.0152
 9362TIP3    H249502   3.256   4.984  11.462  0.0086  0.8072 -0.2131
 9363TIP3   OH249503   5.824   4.597  15.959  0.0169  0.0369 -0.6255
 9363TIP3    H149504   5.759   4.528  15.946 -0.6585  0.9217 -2.3371
 9363TIP3    H249505   5.872   4.602  15.877 -1.0134  2.5970 -1.1829
 9364TIP3   OH249506   0.235   1.301  16.283 -0.6148 -0.1833  0.4374
 9364TIP3    H149507   0.222   1.327  16.192  0.1176 -1.4191 -0.0545
 9364TIP3    H249508   0.180   1.224  16.294  0.2895 -0.8264  0.6252
 9365TIP3   OH249509   6.498   3.376  15.802  0.2631 -0.6386  0.3830
 9365TIP3    H149510   6.467   3.452  15.753 -1.4675 -1.8231 -0.4577
 9365TIP3    H249511   6.445   3.375  15.882  0.1436 -1.0476  0.3029
 9366TIP3   OH249512   1.202   6.421   5.572  0.3454  0.4498  0.6309
 9366TIP3    H149513   1.295   6.404   5.556  0.9244  1.9296  2.1514
 9366TIP3    H249514   1.197   6.441   5.665 -1.8159 -1.3343  0.9802
 9367TIP3   OH249515   5.918   6.511  15.971  0.0614 -0.0933 -0.1158
 9367TIP3    H149516   6.003   6.470  15.987 -0.0439 -0.0214  0.6887
 9367TIP3    H249517   5.894   6.484  15.883  1.7835  1.4137 -1.1316
 9368TIP3   OH249518   1.448   2.117   2.908  0.4346  0.5106  0.1234
 9368TIP3    H149519   1.431   2.032   2.949  1.1932 -0.0809 -0.7589
 9368TIP3    H249520   1.364   2.162   2.912  0.0184 -0.2752  0.5962
 9369TIP3   OH249521   3.056   2.344   0.340 -0.0644  0.4360 -0.5046
 9369TIP3    H149522   3.102   2.296   0.409 -1.5863 -0.6898 -0.2399
 9369TIP3    H249523   3.126   2.391   0.294  1.0503  0.8509  1.4722
 9370TIP3   OH249524   3.358   5.566   3.028 -0.3367  0.5036  0.1055
 9370TIP3    H149525   3.395   5.621   2.959  0.6906  0.8392  0.8875
 9370TIP3    H249526   3.413   5.584   3.104 -1.0150 -0.3785  0.8247
 9371TIP3   OH249527   6.721   0.913  14.704 -0.3613  0.0081 -0.2139
 9371TIP3    H149528   6.669   0.976  14.755  0.6005  0.0857  0.7168
 9371TIP3    H249529   6.785   0.878  14.767 -0.4475 -1.4189 -0.8817
 9372TIP3   OH249530   2.111   5.083  15.904 -0.1414  0.1330 -0.2086
 9372TIP3    H149531   2.066   5.003  15.877  1.9847 -0.5659 -2.0449
 9372TIP3    H249532   2.136   5.125  15.822  3.1790 -0.0146  0.5721
 9373TIP3   OH249533   0.631   3.161   1.402  0.7132 -0.0556 -0.1559
 9373TIP3    H149534   0.618   3.224   1.330 -1.2066 -0.8037 -0.5439
 9373TIP3    H249535   0.570   3.090   1.382  1.7316 -1.3268  1.0866
 9374TIP3   OH249536   3.347   3.751  11.015  0.5253  0.1972  0.1475
 9374TIP3    H149537   3.364   3.783  10.926 -0.0275 -1.3397 -0.5397
 9374TIP3    H249538   3.265   3.793  11.040  0.5762  0.4797 -0.1404
 9375TIP3   OH249539   0.171   3.981   3.429 -0.0928  0.8540  0.2380
 9375TIP3    H149540   0.129   4.025   3.502  0.6222  0.8160  0.6898
 9375TIP3    H249541   0.167   3.888   3.452 -0.4828  0.7858 -0.1056
 9376TIP3   OH249542   4.152   4.544   5.738 -0.1850  0.5919  0.7743
 9376TIP3    H149543   4.222   4.595   5.698 -0.0419 -0.3125 -0.1749
 9376TIP3    H249544   4.157   4.459   5.695 -1.2319  0.1903  1.4090
 9377TIP3   OH249545   1.509   3.737   3.702  0.4230  0.1356 -0.0540
 9377TIP3    H149546   1.429   3.717   3.654  1.5770 -1.2260 -1.5348
 9377TIP3    H249547   1.506   3.680   3.778  0.5412 -0.8364 -0.7596
 9378TIP3   OH249548   4.830   2.606   0.949  0.3413  0.0491 -0.3420
 9378TIP3    H149549   4.761   2.540   0.945  0.2004  0.2465 -1.3893
 9378TIP3    H249550   4.907   2.562   0.915  0.9120 -0.3634  1.4107
 9379TIP3   OH249551   2.933   4.193  11.979 -0.7112 -0.2729 -0.1608
 9379TIP3    H149552   2.975   4.279  11.974 -1.8909  0.3951  0.7445
 9379TIP3    H249553   2.868   4.202  12.049 -1.1435 -1.7848 -0.3210
 9380TIP3   OH249554   4.227   2.137  15.741  0.2791 -0.4717 -0.5593
 9380TIP3    H149555   4.227   2.229  15.716 -1.9697  0.3666  2.0894
 9380TIP3    H249556   4.188   2.092  15.665 -0.2654  0.9943 -1.1754
 9381TIP3   OH249557   1.491   1.397  16.847  0.1810  0.0347 -0.0234
 9381TIP3    H149558   1.501   1.308  16.812 -0.3877 -0.6520  1.4414
 9381TIP3    H249559   1.560   1.404  16.913 -0.0055  0.5507  0.1234
 9382TIP3   OH249560   0.234   0.260   5.165 -0.0325  0.3008 -0.3261
 9382TIP3    H149561   0.303   0.222   5.111  1.8491  1.8034  0.8692
 9382TIP3    H249562   0.239   0.210   5.247  0.7847  1.4712  0.3561
 9383TIP3   OH249563   0.425   2.493  16.380  0.4987 -0.0996  0.6423
 9383TIP3    H149564   0.434   2.491  16.476 -0.7015  1.0473  0.8062
 9383TIP3    H249565   0.497   2.439  16.348  1.1341 -0.2126  2.1810
 9384TIP3   OH249566   2.349   6.759   0.618  0.4949 -0.4921 -0.0724
 9384TIP3    H149567   2.402   6.682   0.641  0.6914 -0.7539 -1.3238
 9384TIP3    H249568   2.279   6.723   0.562  0.5178  0.2237 -0.5632
 9385TIP3   OH249569   0.600   3.536   2.969  0.4770 -0.4844  0.1563
 9385TIP3    H149570   0.597   3.586   3.051 -1.2798 -0.7895  0.3093
 9385TIP3    H249571   0.648   3.592   2.908 -0.2704  0.7800  0.7133
 9386TIP3   OH249572   0.296   0.818   3.753  0.4014  0.1783 -0.0834
 9386TIP3    H149573   0.279   0.849   3.664  0.0567  0.4892  0.0840
 9386TIP3    H249574   0.355   0.884   3.790  0.4268  0.1281 -0.0344
 9387TIP3   OH249575   3.778   5.665   0.260 -0.0578 -0.1606 -0.2602
 9387TIP3    H149576   3.839   5.739   0.259  1.1200 -1.0875  0.3005
 9387TIP3    H249577   3.756   5.654   0.353 -1.7436  0.6507 -0.5170
 9388TIP3   OH249578   6.136   1.244   1.846 -0.0513  0.7884 -0.4323
 9388TIP3    H149579   6.104   1.198   1.769 -1.9172  0.5763  0.4000
 9388TIP3    H249580   6.132   1.337   1.822 -1.6483  0.7901 -0.2908
 9389TIP3   OH249581   0.048   2.959  12.468 -1.0526  0.6249 -0.6784
 9389TIP3    H149582   0.119   2.949  12.531 -0.0747  0.5207 -1.7736
 9389TIP3    H249583   0.033   2.871  12.433 -0.7556  0.8687 -1.4542
 9390TIP3   OH249584   3.478   3.147  11.637  0.6692 -0.0327  0.0025
 9390TIP3    H149585   3.449   3.092  11.564  1.6018 -1.1149  0.4049
 9390TIP3    H249586   3.573   3.136  11.638  0.7998  1.0184  0.5726
 9391TIP3   OH249587   1.232   0.623   2.966 -0.3007 -0.1953 -0.6332
 9391TIP3    H149588   1.264   0.708   2.996 -1.7418 -0.6950  2.8838
 9391TIP3    H249589   1.164   0.643   2.903  0.8407  1.1315 -1.4985
 9392TIP3   OH249590   0.916   4.231   5.369  0.2170 -0.6572 -0.0436
 9392TIP3    H149591   0.878   4.267   5.449 -0.4486  0.6316 -0.8977
 9392TIP3    H249592   0.981   4.168   5.399 -1.1845 -1.4509  1.4911
 9393TIP3   OH249593   5.895   2.982  15.679  0.0316 -0.2484  0.2497
 9393TIP3    H149594   5.813   2.980  15.727 -0.4060  1.7915 -0.2950
 9393TIP3    H249595   5.883   2.920  15.607 -0.8280 -0.3630  0.4878
 9394TIP3   OH249596   5.661   5.826  14.144 -0.0125 -0.6550  0.0369
 9394TIP3    H149597   5.600   5.885  14.101 -0.7747 -2.5437 -1.6276
 9394TIP3    H249598   5.651   5.845  14.238 -2.0387  0.1231 -0.2866
 9395TIP3   OH249599   3.278   4.262   4.756  0.2458  0.0129  0.1631
 9395TIP3    H149600   3.329   4.339   4.782 -0.1144  0.2684  0.1218
 9395TIP3    H249601   3.323   4.229   4.678  2.3888 -1.7851  2.0120
 9396TIP3   OH249602   2.437   6.338  17.099 -0.5335 -0.0412 -0.3986
 9396TIP3    H149603   2.495   6.264  17.082  0.8896  1.2950 -1.6364
 9396TIP3    H249604   2.429   6.340  17.195  1.6906 -0.1281 -0.1550
 9397TIP3   OH249605   6.057   3.115  16.549  0.0769 -0.3109  0.1324
 9397TIP3    H149606   5.962   3.117  16.546  0.1047  1.9947 -1.0242
 9397TIP3    H249607   6.084   3.111  16.457  1.0972 -0.5469  0.4309
 9398TIP3   OH249608   0.358   1.529   5.797  0.1577  0.5088  0.5775
 9398TIP3    H149609   0.336   1.441   5.768 -0.5950  0.0504  2.3529
 9398TIP3    H249610   0.388   1.575   5.719 -1.1788 -0.7820 -0.7393
 9399TIP3   OH249611   3.815   3.064  15.050  0.6092  0.1580 -0.0587
 9399TIP3    H149612   3.799   3.154  15.019 -0.0980 -0.1287 -0.5408
 9399TIP3    H249613   3.827   3.074  15.145 -0.1046  0.6846 -0.0148
 9400TIP3   OH249614   0.622   3.681  14.886 -0.1157 -0.2445 -0.2880
 9400TIP3    H149615   0.612   3.771  14.853  0.1276  0.7803  2.1950
 9400TIP3    H249616   0.714   3.677  14.914 -0.0557 -1.3857 -0.6254
 9401TIP3   OH249617   4.551   3.783  13.521  0.6743  0.8572 -0.0060
 9401TIP3    H149618   4.473   3.734  13.492  1.2088  1.6801 -3.1568
 9401TIP3    H249619   4.605   3.717  13.565 -1.8103  0.3117  2.5442
 9402TIP3   OH249620   3.089   6.336   2.774  0.3642  0.2908 -0.3165
 9402TIP3    H149621   3.105   6.401   2.843  0.6920 -0.6048  0.4701
 9402TIP3    H249622   2.994   6.332   2.766  0.3330  1.7067 -1.2196
 9403TIP3   OH249623   3.389   5.793  14.826  0.3943  0.9652  0.7116
 9403TIP3    H149624   3.478   5.828  14.835  1.1095 -0.8861  1.2299
 9403TIP3    H249625   3.386   5.720  14.888 -0.3050 -1.2572 -1.7604
 9404TIP3   OH249626   5.382   5.338   1.090  0.0570  0.5393  0.5831
 9404TIP3    H149627   5.431   5.363   1.012 -2.0079  1.1317 -0.5992
 9404TIP3    H249628   5.375   5.419   1.141  0.7826  0.3157  1.0584
 9405TIP3   OH249629   2.513   3.369  14.347 -0.0352 -0.3284  0.0493
 9405TIP3    H149630   2.488   3.375  14.439  1.7724  1.5277  0.5098
 9405TIP3    H249631   2.456   3.432  14.302 -0.5292 -0.8128 -0.0013
 9406TIP3   OH249632   3.519   1.045   2.056 -0.3816  0.0974  0.0098
 9406TIP3    H149633   3.506   1.110   2.125  1.4649  0.5481 -0.0218
 9406TIP3    H249634   3.558   0.970   2.100 -1.2967 -0.5007 -0.1793
 9407TIP3   OH249635   2.480   3.936   3.376  0.2434 -0.2351 -0.4649
 9407TIP3    H149636   2.392   3.923   3.412 -0.0907 -1.1711 -1.5760
 9407TIP3    H249637   2.475   4.020   3.330 -0.1015 -0.3312 -0.6075
 9408TIP3   OH249638   2.448   4.940   4.853 -0.0531  0.5414 -0.5554
 9408TIP3    H149639   2.508   5.014   4.854  0.8914 -0.1915  1.2043
 9408TIP3    H249640   2.372   4.969   4.904 -1.2788  1.4489 -2.7349
 9409TIP3   OH249641   1.668   5.233  12.714  0.1155  0.5251  0.7291
 9409TIP3    H149642   1.729   5.196  12.650  0.3863 -0.3855  1.4799
 9409TIP3    H249643   1.587   5.183  12.700 -0.0223  0.7647  0.6735
 9410TIP3   OH249644   2.256   0.731  13.163 -0.1234  0.2153 -0.2980
 9410TIP3    H149645   2.275   0.715  13.256 -0.0279 -1.0914 -0.5192
 9410TIP3    H249646   2.310   0.667  13.116 -0.5249  0.5474 -1.2363
 9411TIP3   OH249647   4.216   2.326  12.154  0.6134  0.0230 -0.3585
 9411TIP3    H149648   4.220   2.291  12.243  1.5662 -1.7160 -1.0343
 9411TIP3    H249649   4.143   2.278  12.113 -0.5650  1.6220 -0.2311
 9412TIP3   OH249650   3.201   1.983  14.735 -0.4991 -0.2239  0.3400
 9412TIP3    H149651   3.124   1.982  14.678 -0.5625 -1.4964  0.4041
 9412TIP3    H249652   3.229   1.891  14.738  1.0144  0.2019  0.3284
 9413TIP3   OH249653   0.134   3.939  14.661 -0.1953  0.7449  0.1583
 9413TIP3    H149654   0.138   4.003  14.590  2.4331 -0.1976 -0.6405
 9413TIP3    H249655   0.213   3.954  14.712  0.6860 -2.0062 -0.2327
 9414TIP3   OH249656   2.802   2.314  15.296 -0.1578  0.5943  0.0050
 9414TIP3    H149657   2.755   2.232  15.311  0.2125  0.2530 -0.6518
 9414TIP3    H249658   2.787   2.366  15.376 -0.8235  0.0991  0.2039
 9415TIP3   OH249659   6.706   1.857   2.988  0.6323  0.4070  0.1421
 9415TIP3    H149660   6.720   1.929   2.926  1.1114  1.1001  1.0338
 9415TIP3    H249661   6.720   1.897   3.074  0.5287 -0.6713  0.6682
 9416TIP3   OH249662   1.223   5.901   5.816 -0.3109  0.3775 -0.1384
 9416TIP3    H149663   1.295   5.903   5.879  0.0190  0.9330 -0.5144
 9416TIP3    H249664   1.156   5.958   5.854 -0.3005  0.3497 -0.0777
 9417TIP3   OH249665   6.284   1.497  16.467  0.5831  0.2722  0.2928
 9417TIP3    H149666   6.318   1.470  16.553  0.1142  0.5398  0.5673
 9417TIP3    H249667   6.230   1.423  16.439  0.1905  0.4587  0.5416
 9418TIP3   OH249668   3.334   3.053  17.140 -0.2498  0.5856 -0.1233
 9418TIP3    H149669   3.371   3.040  17.053  3.8009 -0.0905  1.4743
 9418TIP3    H249670   3.344   2.968  17.184  2.5352  2.0376  2.4428
 9419TIP3   OH249671   2.182   1.986   5.159 -0.3443  0.2577  0.3057
 9419TIP3    H149672   2.139   1.913   5.204 -1.5024  1.1837  0.7410
 9419TIP3    H249673   2.137   2.064   5.191  1.5416  1.2752  0.6347
 9420TIP3   OH249674   4.809   2.324  10.302 -0.1889  0.3159 -0.0125
 9420TIP3    H149675   4.775   2.412  10.317  0.2855  0.3776  0.7325
 9420TIP3    H249676   4.730   2.269  10.295 -0.4635  0.5657  1.0163
 9421TIP3   OH249677   1.365   1.173   3.128  0.1914 -0.0375 -0.7711
 9421TIP3    H149678   1.403   1.221   3.202  0.1712  0.3382 -0.9994
 9421TIP3    H249679   1.407   1.211   3.051  1.0151 -1.1675 -0.8986
 9422TIP3   OH249680   6.430   6.779   2.874 -0.4338 -0.2729 -0.0908
 9422TIP3    H149681   6.443   6.779   2.779 -2.6750 -0.8637 -0.4512
 9422TIP3    H249682   6.450   6.690   2.901  0.9766  0.0936  0.1509
 9423TIP3   OH249683   2.433   1.530   0.724 -0.1996 -0.0502 -0.0105
 9423TIP3    H149684   2.477   1.603   0.768 -1.6735  1.0385 -0.2631
 9423TIP3    H249685   2.340   1.545   0.738 -0.5738 -1.5210 -0.6682
 9424TIP3   OH249686   6.200   6.210   2.645  0.2323 -0.8247 -0.0951
 9424TIP3    H149687   6.141   6.155   2.594  2.8254 -1.7021 -2.3614
 9424TIP3    H249688   6.171   6.299   2.627 -0.4133 -1.2249 -1.1388
 9425TIP3   OH249689   0.209   5.838   1.687  0.2019 -0.8391 -0.8264
 9425TIP3    H149690   0.293   5.798   1.710 -0.5607 -1.8058  0.4257
 9425TIP3    H249691   0.206   5.918   1.739 -1.3585 -2.8357  2.6016
 9426TIP3   OH249692   1.989   1.333   1.256  0.0032  0.5676  0.0524
 9426TIP3    H149693   1.929   1.260   1.244 -1.0380  1.4901 -0.4589
 9426TIP3    H249694   1.949   1.406   1.209  0.3581  1.8434  1.6529
 9427TIP3   OH249695   5.811   3.947  15.642 -0.1390 -0.5040  0.0555
 9427TIP3    H149696   5.814   3.851  15.637 -0.3161 -0.4429 -2.2106
 9427TIP3    H249697   5.773   3.974  15.559 -0.5072  1.5446  0.8330
 9428TIP3   OH249698   4.724   2.157  12.355  0.4335  0.6064  1.0259
 9428TIP3    H149699   4.738   2.202  12.439  0.9939  1.3166  0.5685
 9428TIP3    H249700   4.641   2.111  12.366 -0.3966  2.1061  1.3929
 9429TIP3   OH249701   4.754   0.395  15.003  0.2727 -0.1259 -0.0916
 9429TIP3    H149702   4.835   0.349  15.021  0.6170  0.9549  1.3728
 9429TIP3    H249703   4.691   0.326  14.982  1.3370 -1.0449 -0.3365
 9430TIP3   OH249704   5.785   4.835  11.921  0.4439 -0.1019 -1.0192
 9430TIP3    H149705   5.824   4.843  11.834 -0.5287 -0.8744 -1.5330
 9430TIP3    H249706   5.752   4.923  11.941  2.3508  0.5675 -0.5893
 9431TIP3   OH249707   5.524   5.204  10.755  0.7557 -0.7997 -0.0384
 9431TIP3    H149708   5.473   5.137  10.800 -0.0759 -1.0060 -1.2533
 9431TIP3    H249709   5.462   5.245  10.694  2.2263 -1.6482 -2.2064
 9432TIP3   OH249710   5.726   4.012   1.720 -0.0641 -0.6962 -0.0580
 9432TIP3    H149711   5.672   3.934   1.725  1.0835 -1.6223 -1.4487
 9432TIP3    H249712   5.776   4.013   1.802 -1.1459 -0.5772  0.6180
 9433TIP3   OH249713   4.641   0.395   1.143  0.6398 -0.0134 -0.3086
 9433TIP3    H149714   4.655   0.477   1.095  0.6174  0.7524  0.9474
 9433TIP3    H249715   4.726   0.378   1.185  0.1130  0.4241  0.9880
 9434TIP3   OH249716   2.065   3.556  11.426 -0.4143 -0.3107  0.7394
 9434TIP3    H149717   2.139   3.616  11.435 -0.9467  0.5404 -0.3010
 9434TIP3    H249718   2.017   3.588  11.350 -2.1385 -0.5138  1.6837
 9435TIP3   OH249719   3.337   4.582  12.520  0.0930 -0.2566 -0.2356
 9435TIP3    H149720   3.376   4.659  12.561 -0.9786 -0.8922  2.1275
 9435TIP3    H249721   3.410   4.536  12.479  0.9502  1.2962 -0.5217
 9436TIP3   OH249722   1.441   5.422   3.661  0.2214 -0.1561  0.4290
 9436TIP3    H149723   1.488   5.349   3.622 -1.8325 -1.1456 -0.3518
 9436TIP3    H249724   1.408   5.387   3.744 -1.7341 -0.5736 -0.4622
 9437TIP3   OH249725   6.348   1.980  16.529  0.2620  0.3743 -0.3198
 9437TIP3    H149726   6.416   1.973  16.597  0.8067 -0.0390 -0.8937
 9437TIP3    H249727   6.268   2.002  16.577  0.8047  0.8782  0.3669
 9438TIP3   OH249728   6.262   2.059  15.762 -0.2069  0.0474  0.4509
 9438TIP3    H149729   6.230   1.995  15.825  0.1648 -0.0708  0.5235
 9438TIP3    H249730   6.189   2.119  15.748 -0.7922 -0.7871 -0.1344
 9439TIP3   OH249731   1.676   2.704  13.417 -0.0142 -0.0520  0.0325
 9439TIP3    H149732   1.700   2.793  13.389  1.0682 -0.0813  0.8002
 9439TIP3    H249733   1.724   2.691  13.499 -0.0561 -1.3936 -0.1351
 9440TIP3   OH249734   5.852   5.099  14.843 -0.5459  0.4301 -0.3271
 9440TIP3    H149735   5.909   5.176  14.844 -0.7496  0.5831  0.0980
 9440TIP3    H249736   5.876   5.051  14.922 -1.9794  1.2427  0.6583
 9441TIP3   OH249737   6.639   0.531  14.873  0.3373  0.2036 -0.2475
 9441TIP3    H149738   6.679   0.574  14.797  0.7793  0.4126  0.1003
 9441TIP3    H249739   6.667   0.440  14.865  1.1118  0.3978  0.1336
 9442TIP3   OH249740   0.643   1.248   1.273  0.1577  0.1350 -0.2014
 9442TIP3    H149741   0.573   1.184   1.266 -0.1650  0.6159 -1.7159
 9442TIP3    H249742   0.712   1.215   1.215 -0.1214  1.2520 -1.2127
 9443TIP3   OH249743   3.616   1.676  16.421 -0.9709 -0.6036 -0.5519
 9443TIP3    H149744   3.669   1.653  16.345  1.1018 -0.1915  0.6828
 9443TIP3    H249745   3.633   1.606  16.484 -0.5546  0.3980  0.4838
 9444TIP3   OH249746   1.082   2.392   2.606  0.5794  0.3063 -0.4482
 9444TIP3    H149747   1.091   2.340   2.526 -0.4912 -0.5335 -0.0485
 9444TIP3    H249748   1.167   2.435   2.617  1.4017 -1.1537 -0.9403
 9445TIP3   OH249749   5.149   0.176  12.968  0.5789 -0.1870 -0.2787
 9445TIP3    H149750   5.177   0.179  13.060  0.3304  0.4275 -0.2191
 9445TIP3    H249751   5.056   0.151  12.973  0.7801 -0.9875 -0.4117
 9446TIP3   OH249752   4.595   3.740   4.573  0.5398 -0.4847  0.0930
 9446TIP3    H149753   4.690   3.748   4.584  0.3275 -0.4082  2.1545
 9446TIP3    H249754   4.559   3.812   4.624 -0.6538 -0.7959 -0.2847
 9447TIP3   OH249755   1.000   2.955   2.295  0.0415 -0.1463 -0.2726
 9447TIP3    H149756   0.991   2.860   2.287  0.5728 -0.2919  0.7027
 9447TIP3    H249757   0.935   2.980   2.362  1.5304 -0.1784  1.2464
 9448TIP3   OH249758   4.424   4.578  16.519  0.7605 -0.1262 -0.3110
 9448TIP3    H149759   4.495   4.633  16.487  1.1437  0.0152  0.7304
 9448TIP3    H249760   4.345   4.629  16.501  1.1444  1.0434  1.0972
 9449TIP3   OH249761   3.609   3.427  12.213  0.1265 -1.0198  0.7253
 9449TIP3    H149762   3.648   3.459  12.132 -0.7311  0.1937  0.7711
 9449TIP3    H249763   3.640   3.488  12.280 -0.3617 -1.1328  1.0588
 9450TIP3   OH249764   3.676   3.896  15.923 -0.2276  0.6632  0.2240
 9450TIP3    H149765   3.649   3.887  15.831  1.1648 -4.3750  0.0101
 9450TIP3    H249766   3.770   3.913  15.919 -0.2634  0.9787  0.7033
 9451TIP3   OH249767   6.065   4.072  10.336 -0.1614 -0.1389 -0.6131
 9451TIP3    H149768   6.036   4.043  10.249  0.0510 -1.1687 -0.3550
 9451TIP3    H249769   6.031   4.161  10.344  1.8006  0.9219 -2.7245
 9452TIP3   OH249770   1.235   5.679   3.149 -0.1234 -0.1236 -0.1239
 9452TIP3    H149771   1.157   5.624   3.145 -0.7041  0.7301 -0.8432
 9452TIP3    H249772   1.222   5.734   3.226 -0.3671  0.2099 -0.4013
 9453TIP3   OH249773   3.137   3.645   1.624 -0.0182 -0.0668  0.6035
 9453TIP3    H149774   3.164   3.555   1.610  0.0552 -0.0316  0.5206
 9453TIP3    H249775   3.153   3.689   1.541 -0.0512  0.0234  0.6442
 9454TIP3   OH249776   2.773   4.858   4.377  0.7177 -0.0746  0.3104
 9454TIP3    H149777   2.692   4.901   4.351  1.3672  0.9454 -0.1018
 9454TIP3    H249778   2.804   4.908   4.452  2.5951  1.6630 -1.4719
 9455TIP3   OH249779   2.477   0.696   4.228 -0.4022  0.0347  0.3175
 9455TIP3    H149780   2.458   0.746   4.307  0.7982  0.8991  0.0855
 9455TIP3    H249781   2.434   0.612   4.242 -2.0277  0.9308  0.9339
 9456TIP3   OH249782   1.023   4.978  14.682 -0.1603  1.0413  0.4275
 9456TIP3    H149783   0.962   4.965  14.754 -1.7074  0.0355 -1.0056
 9456TIP3    H249784   1.038   5.073  14.680 -1.7405  1.3196  0.7820
 9457TIP3   OH249785   0.745   3.092  15.625  0.1232  0.7721 -0.5863
 9457TIP3    H149786   0.736   3.148  15.548  1.0977  0.4907 -0.9319
 9457TIP3    H249787   0.668   3.036  15.624 -0.6914  1.8741 -0.4220
 9458TIP3   OH249788   3.275   0.630   6.130 -0.0309  0.0048  0.2334
 9458TIP3    H149789   3.202   0.691   6.140 -0.7291 -0.5887 -1.0655
 9458TIP3    H249790   3.283   0.617   6.036  1.4580 -0.3203  0.3798
 9459TIP3   OH249791   1.245   0.473  11.445  0.5647 -0.1558  0.2290
 9459TIP3    H149792   1.160   0.501  11.410 -0.5344 -0.7057  2.2369
 9459TIP3    H249793   1.261   0.532  11.519  0.5795 -1.6808  1.5082
 9460TIP3   OH249794   1.260   2.882   5.607  0.0558 -0.3637  0.2157
 9460TIP3    H149795   1.201   2.932   5.551 -0.7426  1.5509  2.5529
 9460TIP3    H249796   1.346   2.922   5.594 -0.1938  0.3043  0.5515
 9461TIP3   OH249797   5.039   6.175  13.352 -0.0673  0.5190  0.5915
 9461TIP3    H149798   5.033   6.209  13.441 -0.8141  3.0583 -0.3436
 9461TIP3    H249799   5.130   6.192  13.326 -0.2967  1.3845  0.3142
 9462TIP3   OH249800   1.382   3.485  15.972  0.4679  0.2018  0.1906
 9462TIP3    H149801   1.291   3.476  16.001  0.0964  0.5830 -0.8368
 9462TIP3    H249802   1.433   3.479  16.053 -0.4737  0.0852  0.7916
 9463TIP3   OH249803   3.533   4.340   2.215 -1.0132 -0.1389 -0.0425
 9463TIP3    H149804   3.533   4.277   2.287  1.2990  0.5519  0.6418
 9463TIP3    H249805   3.534   4.286   2.136 -0.8946 -0.9403  0.4955
 9464TIP3   OH249806   5.798   2.276  15.748 -0.0972 -0.1617 -0.2186
 9464TIP3    H149807   5.774   2.338  15.817  1.7886  0.2228  0.1432
 9464TIP3    H249808   5.838   2.203  15.795 -0.3136 -0.6737 -0.8082
 9465TIP3   OH249809   3.010   1.682   4.782  0.4927 -0.6524  0.2763
 9465TIP3    H149810   2.937   1.724   4.738  0.9739  0.1118  0.1880
 9465TIP3    H249811   3.012   1.594   4.745  0.5966 -0.1762 -0.9038
 9466TIP3   OH249812   6.239   6.631  15.854  0.2365 -0.1683 -0.9356
 9466TIP3    H149813   6.223   6.597  15.942  0.3233  0.0587 -0.8320
 9466TIP3    H249814   6.212   6.723  15.858 -1.2733 -0.5481 -1.5748
 9467TIP3   OH249815   1.182   4.055   0.093  0.2570 -0.3345 -0.4821
 9467TIP3    H149816   1.100   4.011   0.118 -0.2030  1.4596  1.3943
 9467TIP3    H249817   1.154   4.123   0.032  0.6599 -1.0206 -1.4620
 9468TIP3   OH249818   0.108   0.709  16.966 -0.5337  0.3141  0.3191
 9468TIP3    H149819   0.049   0.684  16.895  0.2424 -3.0975  0.7340
 9468TIP3    H249820   0.056   0.769  17.020 -3.6621 -2.3499  0.5649
 9469TIP3   OH249821   6.649   6.490  14.090 -0.1076  0.1237  0.0381
 9469TIP3    H149822   6.679   6.407  14.127  1.0144  1.0976  1.4501
 9469TIP3    H249823   6.556   6.495  14.113  0.3137  0.2078  1.9187
 9470TIP3   OH249824   0.033   4.180   2.891 -0.0553  0.1024 -0.1929
 9470TIP3    H149825   0.062   4.111   2.951  0.1432  2.3932  2.5523
 9470TIP3    H249826   0.082   4.257   2.918 -1.5100  1.7543 -2.0147
 9471TIP3   OH249827   4.079   1.121   0.830  0.0633 -0.6373  0.0833
 9471TIP3    H149828   3.983   1.125   0.828  0.0351 -1.3353 -0.4832
 9471TIP3    H249829   4.099   1.030   0.807  0.8520 -0.6094  0.6420
 9472TIP3   OH249830   0.619   0.696   2.377 -0.2829  0.2320  0.5516
 9472TIP3    H149831   0.665   0.640   2.315 -0.0318 -0.8649  1.6754
 9472TIP3    H249832   0.528   0.667   2.372 -0.4267  0.7728  0.0349
 9473TIP3   OH249833   2.106   3.877  11.628  0.0039  0.3631 -0.1629
 9473TIP3    H149834   2.154   3.836  11.556  2.5450  1.1925  0.9334
 9473TIP3    H249835   2.074   3.804  11.681 -1.3698 -0.2384 -1.7420
 9474TIP3   OH249836   6.456   1.918  12.435  0.4737  0.1549  0.1875
 9474TIP3    H149837   6.380   1.868  12.405  0.7241  1.2320 -2.4501
 9474TIP3    H249838   6.419   1.996  12.477  0.1335  0.0884  0.0118
 9475TIP3   OH249839   6.598   5.392  15.632 -0.2050 -0.0271 -0.0694
 9475TIP3    H149840   6.579   5.303  15.661 -0.4211 -0.6219 -1.9520
 9475TIP3    H249841   6.553   5.447  15.696 -0.6338 -1.2622  0.7401
 9476TIP3   OH249842   3.241   6.035  11.105 -0.1791 -0.5619 -0.8917
 9476TIP3    H149843   3.224   5.941  11.105 -1.0771 -0.4673  1.1245
 9476TIP3    H249844   3.247   6.059  11.013  0.5974 -2.6675 -1.4338
 9477TIP3   OH249845   0.126   3.186  10.722 -0.0229 -1.2467  0.1712
 9477TIP3    H149846   0.212   3.187  10.682  0.5386 -1.4383  1.3256
 9477TIP3    H249847   0.119   3.100  10.764 -0.7949 -1.2506  0.0638
 9478TIP3   OH249848   5.728   2.566   1.408  0.6248  0.4995 -0.5449
 9478TIP3    H149849   5.677   2.486   1.405 -0.6750  1.1973  1.2110
 9478TIP3    H249850   5.680   2.628   1.354  2.6073 -0.3186 -3.4762
 9479TIP3   OH249851   4.396   2.498  11.863  0.1697  0.2085 -0.7333
 9479TIP3    H149852   4.445   2.580  11.854 -1.0226  0.9449 -0.7147
 9479TIP3    H249853   4.400   2.479  11.957  1.3099 -0.3238 -0.8716
 9480TIP3   OH249854   5.880   5.919  11.527  0.1183 -0.2717  0.7631
 9480TIP3    H149855   5.805   5.903  11.585 -0.3016  1.1840  0.6526
 9480TIP3    H249856   5.862   6.004  11.487  0.6565 -0.9972 -1.1293
 9481TIP3   OH249857   2.191   6.480   2.393  0.2757  0.2902 -0.0221
 9481TIP3    H149858   2.119   6.531   2.431  0.3159 -0.7222  1.5140
 9481TIP3    H249859   2.158   6.453   2.307  0.4645  3.2521 -1.1320
 9482TIP3   OH249860   5.064   4.409   0.415  0.0877 -0.0901 -0.4504
 9482TIP3    H149861   5.048   4.327   0.462  0.5712  0.2080  0.2555
 9482TIP3    H249862   5.097   4.468   0.482  0.1241  0.5635 -1.0391
 9483TIP3   OH249863   2.814   0.024   4.431 -0.0129 -0.0115  0.2595
 9483TIP3    H149864   2.762  -0.006   4.356 -1.3300 -1.0894  1.5420
 9483TIP3    H249865   2.904  -0.000   4.409 -0.4104 -0.5830 -0.8354
 9484TIP3   OH249866   1.968   6.078  15.125  0.2584  0.4534 -0.0382
 9484TIP3    H149867   2.035   6.136  15.088  1.0617 -0.3594  0.0955
 9484TIP3    H249868   1.991   6.072  15.218  0.0812  0.0689 -0.0190
 9485TIP3   OH249869   5.056   5.777   0.700  1.0136 -0.0263  0.3854
 9485TIP3    H149870   5.075   5.847   0.762  4.2521 -1.6834  1.5130
 9485TIP3    H249871   5.029   5.703   0.754  0.2545 -0.4450 -0.5384
 9486TIP3   OH249872   4.861   6.698  14.914 -0.1736  0.3300  0.2278
 9486TIP3    H149873   4.877   6.607  14.937  0.5079  0.4423  0.2133
 9486TIP3    H249874   4.862   6.700  14.819  0.7257  0.5080  0.2377
 9487TIP3   OH249875   6.019   0.430  16.062  0.4871  0.1043 -0.0656
 9487TIP3    H149876   6.083   0.365  16.092  0.6887 -0.1897 -1.0779
 9487TIP3    H249877   5.949   0.377  16.023  0.9100  0.4858 -1.3988
 9488TIP3   OH249878   2.663   3.689   3.962  0.6567 -0.0827  0.0075
 9488TIP3    H149879   2.723   3.696   3.888  0.7637  0.5828  0.1473
 9488TIP3    H249880   2.705   3.740   4.031  0.4230 -0.4688  0.4377
 9489TIP3   OH249881   3.166   3.275  14.803  0.1004 -0.2596  0.3616
 9489TIP3    H149882   3.136   3.263  14.713 -1.8727 -0.8175  1.0427
 9489TIP3    H249883   3.091   3.312  14.849  1.4613  1.1532  1.5468
 9490TIP3   OH249884   1.489   4.068  11.112  0.1003 -0.0235  0.7855
 9490TIP3    H149885   1.548   4.139  11.137  0.1675  0.0879  0.3160
 9490TIP3    H249886   1.440   4.102  11.038  0.9560 -0.8785 -0.1971
 9491TIP3   OH249887   4.069   3.006  11.978 -0.2829  0.1903  0.1700
 9491TIP3    H149888   4.130   3.065  12.022  2.1734 -1.4695 -0.8504
 9491TIP3    H249889   4.007   3.064  11.934 -1.1842  1.9199  3.3774
 9492TIP3   OH249890   1.791   5.102  10.851 -0.2030  0.0636 -0.0816
 9492TIP3    H149891   1.744   5.029  10.892  3.7339 -3.3413 -0.9287
 9492TIP3    H249892   1.758   5.104  10.761 -0.8225 -0.2175  0.1346
 9493TIP3   OH249893   1.842   4.546  14.219  0.1553  0.1587  0.1147
 9493TIP3    H149894   1.863   4.494  14.296 -0.7728  1.1446  1.0851
 9493TIP3    H249895   1.772   4.497  14.175 -0.2575  0.2451  0.6600
 9494TIP3   OH249896   3.240   1.764  12.764 -0.6652  0.7549 -0.3849
 9494TIP3    H149897   3.277   1.822  12.697  1.0929 -0.0610 -0.1802
 9494TIP3    H249898   3.218   1.684  12.717  0.1366  0.3499 -0.0776
 9495TIP3   OH249899   5.399   4.762   1.318  0.4190  0.4183  0.1705
 9495TIP3    H149900   5.432   4.793   1.402  2.3358  0.9550 -0.7215
 9495TIP3    H249901   5.477   4.741   1.267 -0.6673  0.3122 -1.5658
 9496TIP3   OH249902   6.239   3.534  12.426 -0.5410  0.0535 -0.0967
 9496TIP3    H149903   6.213   3.536  12.518 -1.3300  1.4554 -0.3264
 9496TIP3    H249904   6.275   3.621  12.409 -0.9328  0.0089 -1.2519
 9497TIP3   OH249905   3.830   6.798  16.937  0.4417  0.1134  0.0249
 9497TIP3    H149906   3.826   6.791  16.842  0.7560  0.1182  0.0089
 9497TIP3    H249907   3.869   6.884  16.953  0.4869  0.0685  0.1562
 9498TIP3   OH249908   4.117   5.628   4.649 -0.0139  0.2172  0.3619
 9498TIP3    H149909   4.139   5.555   4.707  1.8369  0.3101 -0.1775
 9498TIP3    H249910   4.167   5.702   4.684 -0.0195  0.6350 -0.4998
 9499TIP3   OH249911   1.017   2.459   1.300  0.6928 -0.5069 -0.3009
 9499TIP3    H149912   0.924   2.437   1.288 -0.0574  0.0787  3.2592
 9499TIP3    H249913   1.022   2.553   1.286  0.6397 -0.4780 -0.1367
 9500TIP3   OH249914   1.154   0.560  11.168 -0.0936  0.3424 -0.2161
 9500TIP3    H149915   1.161   0.514  11.085  0.5433 -0.2726  0.1679
 9500TIP3    H249916   1.239   0.604  11.178 -0.1291  0.3317  0.1539
 9501TIP3   OH249917   0.603   1.636  13.797 -0.2632  0.1713  0.3679
 9501TIP3    H149918   0.654   1.718  13.793 -0.1922  0.2020  1.5912
 9501TIP3    H249919   0.662   1.570  13.759 -1.4263  1.1221 -3.6193
 9502TIP3   OH249920   4.549   6.085  11.017  0.1400 -0.1018 -0.0049
 9502TIP3    H149921   4.595   6.104  10.936  1.6497 -0.8165  0.6450
 9502TIP3    H249922   4.561   6.164  11.071 -0.5894  0.2446 -0.3261
 9503TIP3   OH249923   1.130   2.170   5.628 -0.5718  0.0668 -0.3091
 9503TIP3    H149924   1.175   2.115   5.565 -1.2178 -0.7794 -0.0548
 9503TIP3    H249925   1.049   2.122   5.649 -1.1172  1.0718 -0.0210
 9504TIP3   OH249926   0.746   3.161   4.785  0.1976  0.4561  0.3658
 9504TIP3    H149927   0.744   3.074   4.746  1.0577 -0.2901  1.9099
 9504TIP3    H249928   0.839   3.184   4.789  0.1953  0.3141  2.2921
 9505TIP3   OH249929   5.919   2.186   2.618  0.5939 -0.4861  0.1915
 9505TIP3    H149930   5.830   2.198   2.650  0.3965 -2.6492  0.5519
 9505TIP3    H249931   5.909   2.137   2.536  1.4568 -1.0296  0.4000
 9506TIP3   OH249932   0.144   6.174  12.384  0.3066  0.3508 -0.3329
 9506TIP3    H149933   0.086   6.245  12.355  0.2892 -0.5334 -2.6562
 9506TIP3    H249934   0.232   6.211  12.374  0.2986  0.0912 -1.5452
 9507TIP3   OH249935   2.838   3.094   5.746 -0.0573 -0.6165  0.3504
 9507TIP3    H149936   2.884   3.172   5.715  0.5024 -2.0059 -2.7410
 9507TIP3    H249937   2.908   3.032   5.769 -0.3029 -1.7084 -1.5777
 9508TIP3   OH249938   3.624   2.774   6.468 -0.0815 -0.3051 -0.1701
 9508TIP3    H149939   3.684   2.738   6.403 -0.6698 -2.7435  0.5470
 9508TIP3    H249940   3.563   2.703   6.487 -1.0064  0.9130  1.7738
 9509TIP3   OH249941   2.518   4.711  16.137  0.5471 -0.1039  0.1054
 9509TIP3    H149942   2.443   4.651  16.131 -1.2820  1.5974  3.2238
 9509TIP3    H249943   2.509   4.767  16.060  0.8806 -2.1479 -1.5370
 9510TIP3   OH249944   0.884   1.461   3.201  0.1461 -0.2788 -0.2471
 9510TIP3    H149945   0.816   1.438   3.137 -0.3354 -0.4560  0.3170
 9510TIP3    H249946   0.898   1.380   3.250  1.4524 -0.5152 -0.9647
 9511TIP3   OH249947   5.299   1.407   1.815  0.2075 -0.0173  0.5927
 9511TIP3    H149948   5.243   1.437   1.887 -0.2275 -0.5946  0.4964
 9511TIP3    H249949   5.385   1.445   1.835  0.7619 -2.1294  2.8078
 9512TIP3   OH249950   1.123   0.467   6.731  0.5089 -0.2241  0.5544
 9512TIP3    H149951   1.171   0.477   6.649 -0.6448  0.3047 -0.0907
 9512TIP3    H249952   1.081   0.381   6.724 -0.7995  0.4342 -0.1112
 9513TIP3   OH249953   2.024   4.357  14.122 -0.4256  0.0266  0.1728
 9513TIP3    H149954   1.938   4.400  14.121 -0.4060  0.0774 -1.1307
 9513TIP3    H249955   2.038   4.334  14.214 -0.4914  2.6812  0.9436
 9514TIP3   OH249956   6.283   5.377   4.435 -0.0682 -0.5126 -0.0458
 9514TIP3    H149957   6.312   5.377   4.526  1.3352 -0.3848 -0.4565
 9514TIP3    H249958   6.315   5.294   4.400 -2.0286 -1.3210 -0.0263
 9515TIP3   OH249959   2.017   6.493  14.184 -0.7581  0.5961  0.2446
 9515TIP3    H149960   2.106   6.470  14.210 -2.0702 -2.1066  2.9086
 9515TIP3    H249961   2.003   6.444  14.103 -0.5541 -0.9949  1.1288
 9516TIP3   OH249962   4.297   3.421   1.060  0.1728  0.0941  0.7154
 9516TIP3    H149963   4.293   3.490   0.993  3.6697  0.2911  0.5027
 9516TIP3    H249964   4.264   3.343   1.016  0.9408  0.5725 -0.7845
 9517TIP3   OH249965   1.465   4.991   2.247 -0.5498 -0.4491  0.2635
 9517TIP3    H149966   1.517   4.910   2.251 -0.9377 -0.7487 -0.5778
 9517TIP3    H249967   1.431   5.002   2.336 -1.7914 -2.0987  0.0468
 9518TIP3   OH249968   5.248   5.077   1.460 -0.8000 -0.2427  0.0819
 9518TIP3    H149969   5.339   5.056   1.480 -0.3889  0.6486 -0.7936
 9518TIP3    H249970   5.229   5.156   1.509 -1.8354 -1.6262  2.0522
 9519TIP3   OH249971   0.167   3.162  12.700  0.0611 -0.0716 -0.4493
 9519TIP3    H149972   0.247   3.182  12.749 -0.0595 -0.1202 -0.2322
 9519TIP3    H249973   0.097   3.205  12.749  0.1451  1.3746 -1.5337
 9520TIP3   OH249974   4.160   3.602  13.049  0.0877 -0.4676  0.7993
 9520TIP3    H149975   4.195   3.691  13.055 -2.5299  0.7446 -0.3805
 9520TIP3    H249976   4.229   3.552  13.006  0.8556  1.4956 -0.3814
 9521TIP3   OH249977   5.076   5.318  12.684 -0.0815  0.1970  0.1460
 9521TIP3    H149978   4.991   5.307  12.727  0.4701  0.0582  1.2284
 9521TIP3    H249979   5.119   5.387  12.733 -0.1405  1.3588 -1.3412
 9522TIP3   OH249980   2.502   0.564   3.554 -0.3087 -0.7301 -0.0434
 9522TIP3    H149981   2.507   0.658   3.538  0.0610 -0.9205 -1.1261
 9522TIP3    H249982   2.558   0.525   3.487  0.0256 -1.6902  0.7676
 9523TIP3   OH249983   4.260   4.420  15.307 -0.1147 -0.0787  0.1870
 9523TIP3    H149984   4.315   4.342  15.306  0.2096  0.1237 -1.8594
 9523TIP3    H249985   4.193   4.404  15.241  0.0122  1.4094 -0.3539
 9524TIP3   OH249986   3.118   5.891  16.224 -0.2033 -0.3194  0.2753
 9524TIP3    H149987   3.023   5.904  16.234 -0.3522 -1.5313  0.5624
 9524TIP3    H249988   3.136   5.809  16.271  0.9455 -0.2454 -0.0134
 9525TIP3   OH249989   1.005   5.267   0.951 -0.2206  0.6517 -0.1620
 9525TIP3    H149990   0.929   5.282   0.896 -0.4234 -0.6801 -0.2929
 9525TIP3    H249991   1.077   5.254   0.890  0.1252  1.8649 -0.0394
 9526TIP3   OH249992   1.203   4.709   1.462 -0.2291 -0.0036 -0.5712
 9526TIP3    H149993   1.219   4.721   1.556 -1.4423 -1.9332 -0.0649
 9526TIP3    H249994   1.146   4.782   1.438 -2.2628 -1.0114  0.9010
 9527TIP3   OH249995   0.007   4.235  11.087 -0.1506  0.1373  0.2801
 9527TIP3    H149996   0.097   4.215  11.063 -0.0951 -0.8893  1.2682
 9527TIP3    H249997  -0.025   4.156  11.131 -1.4521  0.5692  0.1711
 9528TIP3   OH249998   0.384   2.479  14.733 -0.3109 -0.7315 -0.5426
 9528TIP3    H149999   0.379   2.531  14.813 -1.5848 -0.8123 -0.5463
 9528TIP3    H250000   0.339   2.397  14.755  0.8944 -1.4908 -0.8086
 9529TIP3   OH250001   2.754   3.155  16.970  0.2760 -0.3663  0.4636
 9529TIP3    H150002   2.662   3.144  16.990 -0.8715  0.2355 -3.5100
 9529TIP3    H250003   2.772   3.091  16.901  2.2111  0.9031 -0.3229
 9530TIP3   OH250004   2.051   4.251   3.688  0.3528 -0.0762 -0.2394
 9530TIP3    H150005   2.146   4.251   3.698  0.3860  4.1666  1.4204
 9530TIP3    H250006   2.017   4.256   3.777 -1.0793  3.3282 -0.8165
 9531TIP3   OH250007   2.203   2.986   2.000 -0.2465 -0.0231  0.4151
 9531TIP3    H150008   2.163   3.023   1.921 -0.3810 -1.5222 -0.2664
 9531TIP3    H250009   2.294   3.014   1.996 -0.1843 -0.3038 -0.4358
 9532TIP3   OH250010   1.312   1.856   5.743  1.0883  0.3378 -0.3266
 9532TIP3    H150011   1.364   1.822   5.816 -0.0454  0.7123  0.6784
 9532TIP3    H250012   1.339   1.948   5.738  2.2221 -0.0212 -1.3451
 9533TIP3   OH250013   0.280   4.623   4.947 -0.2661 -0.1506 -0.1324
 9533TIP3    H150014   0.293   4.585   5.033  1.0251 -1.5905 -0.9109
 9533TIP3    H250015   0.256   4.549   4.891 -0.3882  0.6292 -1.1513
 9534TIP3   OH250016   3.688   1.891   5.088  0.1010  0.0720 -0.7076
 9534TIP3    H150017   3.718   1.816   5.139 -1.5984  0.3904  0.8750
 9534TIP3    H250018   3.698   1.864   4.996  1.3091 -1.3146 -0.2008
 9535TIP3   OH250019   6.453   1.588  15.803  0.1475  0.8544 -0.0554
 9535TIP3    H150020   6.548   1.588  15.799  0.1616  0.8074  0.2600
 9535TIP3    H250021   6.425   1.615  15.715  0.4483  0.8024 -0.1673
 9536TIP3   OH250022   2.857   0.462   1.039 -0.3257  0.4870  0.2670
 9536TIP3    H150023   2.772   0.494   1.007  0.3442  1.5899 -0.4863
 9536TIP3    H250024   2.835   0.393   1.101 -1.7406 -0.7475 -1.4970
 9537TIP3   OH250025   3.909   6.346   3.474  0.0382  0.6985 -0.1704
 9537TIP3    H150026   3.990   6.309   3.440 -0.5333 -0.1631 -0.6193
 9537TIP3    H250027   3.900   6.308   3.562 -0.9160 -0.8568 -0.8999
 9538TIP3   OH250028   0.636   4.737   2.916 -0.5923  0.2591 -0.0682
 9538TIP3    H150029   0.545   4.721   2.894 -1.6264  2.8530  1.8690
 9538TIP3    H250030   0.652   4.828   2.890  1.0298  0.2796  0.8513
 9539TIP3   OH250031   0.912   1.217  15.834 -0.0930 -0.3642  0.1075
 9539TIP3    H150032   0.917   1.211  15.739  1.0488 -1.3563  0.1966
 9539TIP3    H250033   0.960   1.297  15.856  0.8500 -0.8523 -0.0959
 9540TIP3   OH250034   3.422   4.949   0.636  0.5697 -0.4016  0.3947
 9540TIP3    H150035   3.351   4.934   0.573 -1.0490 -0.0120  2.0213
 9540TIP3    H250036   3.447   4.862   0.666 -0.1391 -0.4957  0.7375
 9541TIP3   OH250037   1.453   2.517   5.967  0.9415  0.4928  0.3168
 9541TIP3    H150038   1.410   2.537   6.050 -0.7512  0.2291 -0.4425
 9541TIP3    H250039   1.413   2.577   5.905  0.1144 -1.1629 -0.8279
 9542TIP3   OH250040   2.093   4.020  12.071  0.1556 -0.0713  0.4385
 9542TIP3    H150041   2.088   4.028  12.166  0.7790 -0.4174  0.5031
 9542TIP3    H250042   2.069   4.107  12.038  1.9757  0.6644  0.9711
 9543TIP3   OH250043   0.825   5.248  12.597 -0.0082 -0.0193  0.1482
 9543TIP3    H150044   0.776   5.221  12.675  0.9095 -0.0256  0.7357
 9543TIP3    H250045   0.808   5.178  12.533 -0.0468 -0.4736  0.6466
 9544TIP3   OH250046   1.658   2.803   1.346 -0.2162 -0.3335 -0.1302
 9544TIP3    H150047   1.626   2.875   1.399 -2.0435 -1.1119 -0.0927
 9544TIP3    H250048   1.620   2.725   1.386 -1.1134 -1.0015 -2.1748
 9545TIP3   OH250049   2.470   2.792   3.082  0.1727 -0.3383  0.0438
 9545TIP3    H150050   2.484   2.849   3.157 -1.4189 -1.6951  1.4613
 9545TIP3    H250051   2.558   2.765   3.055  0.7921  0.6539  1.0303
 9546TIP3   OH250052   3.341   0.808  12.435 -0.2229  0.0435 -0.0152
 9546TIP3    H150053   3.352   0.867  12.361  0.1444 -0.0637 -0.0459
 9546TIP3    H250054   3.429   0.774  12.453 -0.0985  0.9120  1.1700
 9547TIP3   OH250055   5.491   1.970  12.719 -0.8757  0.1508  1.0557
 9547TIP3    H150056   5.493   1.896  12.659 -2.1975  1.0634 -0.1915
 9547TIP3    H250057   5.514   1.933  12.804  0.2787 -1.3275  0.1394
 9548TIP3   OH250058   5.871   6.230  14.883  0.2822  0.6623  0.3164
 9548TIP3    H150059   5.797   6.265  14.833  0.6653 -0.8242 -1.3662
 9548TIP3    H250060   5.909   6.163  14.827  1.1761 -0.6174  2.3473
 9549TIP3   OH250061   4.640   0.153   1.701 -0.7582  0.2581  0.3155
 9549TIP3    H150062   4.691   0.198   1.634 -0.4769 -0.1149  0.2743
 9549TIP3    H250063   4.681   0.176   1.784 -1.0721  0.6745  0.3567
 9550TIP3   OH250064   6.299   3.932   2.976  0.0091  0.0132 -0.5121
 9550TIP3    H150065   6.329   3.845   3.000 -0.2836  0.2215  0.6564
 9550TIP3    H250066   6.204   3.930   2.990 -0.0995  0.3056 -1.1640
 9551TIP3   OH250067   2.770   4.137   6.114  0.1610 -0.3058  0.3300
 9551TIP3    H150068   2.756   4.229   6.132  0.8745 -0.6534  3.1381
 9551TIP3    H250069   2.733   4.123   6.027 -1.5874  2.2090  0.5873
 9552TIP3   OH250070   5.414   6.749   1.850  0.0549  0.3117  0.9586
 9552TIP3    H150071   5.411   6.829   1.798  0.7686  0.2870  0.8659
 9552TIP3    H250072   5.461   6.773   1.930  2.0408 -0.4546  0.0844
 9553TIP3   OH250073   2.632   4.341   4.854 -0.5404  0.0041 -0.2502
 9553TIP3    H150074   2.650   4.255   4.816 -1.5651 -1.2234  1.8523
 9553TIP3    H250075   2.592   4.322   4.939 -1.0730  2.5757  0.1650
 9554TIP3   OH250076   6.630   5.948   2.836  0.0579 -0.1646  0.1045
 9554TIP3    H150077   6.714   5.978   2.873  1.1026  0.3818 -2.4967
 9554TIP3    H250078   6.567   5.964   2.906  2.2690 -2.0523  2.7913
 9555TIP3   OH250079   1.244   1.131   5.417 -0.4391  0.0611 -0.2821
 9555TIP3    H150080   1.305   1.199   5.445 -2.0298  1.4023  0.1265
 9555TIP3    H250081   1.286   1.091   5.341  0.6195  1.4037 -0.4397
 9556TIP3   OH250082   5.868   5.697  12.292 -0.1698  0.2165 -0.5562
 9556TIP3    H150083   5.796   5.634  12.287  0.3922 -0.4634 -0.1935
 9556TIP3    H250084   5.931   5.668  12.227 -0.4539  1.1268 -1.2539
 9557TIP3   OH250085   5.650   0.614   2.745  0.1425  0.9793  0.1899
 9557TIP3    H150086   5.623   0.592   2.834  1.1593  0.7602  0.4581
 9557TIP3    H250087   5.569   0.614   2.694 -0.1470 -1.6149  0.5372
 9558TIP3   OH250088   5.094   0.515   4.278 -0.8342 -0.2751 -0.5367
 9558TIP3    H150089   5.077   0.426   4.248 -0.2247 -0.1228 -1.3660
 9558TIP3    H250090   5.189   0.526   4.268 -0.4199 -0.4975  2.2591
 9559TIP3   OH250091   3.155   5.581   4.114  0.4192  0.1626 -0.4242
 9559TIP3    H150092   3.226   5.518   4.108 -0.2372 -0.5116 -1.3885
 9559TIP3    H250093   3.188   5.649   4.172  2.2439  0.3746 -1.6348
 9560TIP3   OH250094   2.977   1.943  13.146  0.4833 -0.2251  0.2083
 9560TIP3    H150095   2.896   1.897  13.124  0.6084 -0.6849  0.6952
 9560TIP3    H250096   3.041   1.874  13.160  0.8990  0.1276  0.0964
 9561TIP3   OH250097   3.681   2.244  12.708 -0.0758 -0.0298  0.0212
 9561TIP3    H150098   3.663   2.183  12.636 -0.0086 -0.5394  0.4319
 9561TIP3    H250099   3.611   2.228  12.771  0.5329 -0.4389  0.6112
 9562TIP3   OH250100   1.410   3.290   3.155  0.5066 -0.3196  0.1369
 9562TIP3    H150101   1.501   3.316   3.138  0.3923  0.0422  0.0500
 9562TIP3    H250102   1.416   3.200   3.187  0.8922 -0.3126  0.0953
 9563TIP3   OH250103   1.868   3.322   3.341  0.0333 -1.0076 -0.0221
 9563TIP3    H150104   1.803   3.269   3.388 -1.2061  1.0416  0.7071
 9563TIP3    H250105   1.943   3.325   3.400  0.2619 -2.1767 -0.2197
 9564TIP3   OH250106   1.002   4.227  13.747 -0.0780 -0.3060  0.4180
 9564TIP3    H150107   1.012   4.322  13.742  0.6474 -0.2986  1.7141
 9564TIP3    H250108   0.989   4.209  13.840 -2.0528 -1.3213 -0.0153
 9565TIP3   OH250109   3.980   0.755  14.849  0.3820 -0.1022  0.3067
 9565TIP3    H150110   3.980   0.714  14.763  0.1532  0.0641  0.2252
 9565TIP3    H250111   3.993   0.848  14.831 -0.3917  0.0281  0.4007
 9566TIP3   OH250112   4.881   4.111  15.623  0.0908  0.0045 -0.2473
 9566TIP3    H150113   4.919   4.197  15.607 -0.7798  0.2296 -1.1891
 9566TIP3    H250114   4.806   4.128  15.681 -0.1389 -0.1081 -0.5098
 9567TIP3   OH250115   1.906   5.243  15.772  0.0536 -0.3871  0.0513
 9567TIP3    H150116   1.948   5.329  15.767  1.3283 -1.0338 -3.8385
 9567TIP3    H250117   1.828   5.251  15.718 -1.2841 -1.0657  1.7731
 9568TIP3   OH250118   2.933   4.165   4.665 -0.3729  0.5513  0.0889
 9568TIP3    H150119   3.010   4.116   4.692  0.0290 -0.1653 -2.1310
 9568TIP3    H250120   2.935   4.245   4.717  0.7917 -0.2914  1.4130
 9569TIP3   OH250121   1.618   2.306  14.542  0.1771  0.1887  0.1094
 9569TIP3    H150122   1.675   2.254  14.598 -0.1794 -1.7859 -1.2774
 9569TIP3    H250123   1.531   2.270  14.554 -0.2826  1.2027 -0.0575
 9570TIP3   OH250124   5.069   1.945   4.204 -0.3336 -0.0752 -0.3908
 9570TIP3    H150125   5.115   2.028   4.192  0.2227 -0.2736  0.2979
 9570TIP3    H250126   4.985   1.957   4.160 -0.9709  1.4741  1.1318
 9571TIP3   OH250127   6.332   6.321   5.877 -0.0472  0.0257  0.0812
 9571TIP3    H150128   6.281   6.263   5.933  0.1721 -0.4810 -0.2368
 9571TIP3    H250129   6.313   6.409   5.910 -0.1842 -0.2404  0.7283
 9572TIP3   OH250130   3.289   5.714  10.622 -0.5832 -0.0920  0.4568
 9572TIP3    H150131   3.198   5.732  10.600 -0.8113 -1.1338  0.4741
 9572TIP3    H250132   3.290   5.711  10.718 -0.0844  1.9973  0.5707
 9573TIP3   OH250133   0.078   2.911  13.887 -0.1741  0.2861 -0.1697
 9573TIP3    H150134   0.070   2.842  13.953  1.4852 -0.1838 -0.4100
 9573TIP3    H250135   0.077   2.993  13.937  2.8992 -0.1014  0.7650
 9574TIP3   OH250136   0.864   0.612  16.659  0.0893 -0.0788  0.0245
 9574TIP3    H150137   0.910   0.696  16.655  2.0598 -1.1153 -0.7239
 9574TIP3    H250138   0.894   0.565  16.581  0.0819 -1.9608  1.0933
 9575TIP3   OH250139   0.419   2.768   6.587 -0.0701 -0.3890  0.7056
 9575TIP3    H150140   0.324   2.777   6.576 -0.3356 -2.9513  0.2936
 9575TIP3    H250141   0.435   2.793   6.678 -1.0765  0.4109  0.6783
 9576TIP3   OH250142   5.070   0.516  13.715 -0.2969 -0.3413  0.4171
 9576TIP3    H150143   5.103   0.468  13.791 -2.1703  0.8845  2.1203
 9576TIP3    H250144   5.054   0.605  13.748 -1.6076  0.1106 -1.2819
 9577TIP3   OH250145   5.022   1.502   4.682  0.0566 -0.2189 -0.1584
 9577TIP3    H150146   4.989   1.461   4.602 -0.6880 -0.9451  0.5037
 9577TIP3    H250147   4.997   1.442   4.752  0.2723  0.6400  0.6761
 9578TIP3   OH250148   6.741   3.211  15.885  0.5397  0.2126 -0.0635
 9578TIP3    H150149   6.686   3.275  15.840 -1.0073 -1.7629 -1.1589
 9578TIP3    H250150   6.684   3.134  15.897  2.7216 -1.5369 -0.2042
 9579TIP3   OH250151   2.634   2.382  16.393  0.4733 -0.5197  0.7283
 9579TIP3    H150152   2.679   2.299  16.406 -1.5348 -1.4101  2.9127
 9579TIP3    H250153   2.541   2.360  16.405 -0.1286  1.9968  1.2519
 9580TIP3   OH250154   1.046   2.189   1.943  0.1291 -0.8277  0.3831
 9580TIP3    H150155   1.117   2.147   1.893  0.1439 -1.7202  1.1398
 9580TIP3    H250156   0.985   2.220   1.876  1.1835 -0.1171 -0.2804
 9581TIP3   OH250157   1.247   6.092  16.623  0.2633  0.1829 -0.3175
 9581TIP3    H150158   1.289   6.155  16.681  0.3627 -0.8198  0.7211
 9581TIP3    H250159   1.317   6.061  16.566  0.7168 -0.6402  0.6593
 9582TIP3   OH250160   4.243   0.061   6.078  0.4207  0.0146 -0.3824
 9582TIP3    H150161   4.221   0.014   6.159 -0.1502  1.3345  0.2574
 9582TIP3    H250162   4.337   0.077   6.084  0.5392 -0.6366 -0.3985
 9583TIP3   OH250163   2.156   0.792  10.757  0.4289  0.0179 -0.3579
 9583TIP3    H150164   2.203   0.853  10.813  1.8167 -0.1045 -1.3522
 9583TIP3    H250165   2.139   0.716  10.814 -0.2912  0.8197  0.5441
 9584TIP3   OH250166   2.759   4.492   2.789 -0.5831  0.2312  0.8428
 9584TIP3    H150167   2.801   4.577   2.797 -0.4049  0.0388  2.0293
 9584TIP3    H250168   2.753   4.478   2.694  0.8931  0.8082  0.6310
 9585TIP3   OH250169   5.966   1.369   3.693  0.4032  0.5376  0.1859
 9585TIP3    H150170   5.918   1.447   3.665 -0.0730  0.4288  0.6735
 9585TIP3    H250171   5.899   1.313   3.733  0.6981 -0.2289 -0.3693
 9586TIP3   OH250172   1.077   2.907   3.855  0.9779 -0.3197  0.1687
 9586TIP3    H150173   1.012   2.913   3.924  0.3712 -1.0078 -0.3352
 9586TIP3    H250174   1.064   2.821   3.816  1.6399 -0.1447 -0.4787
 9587TIP3   OH250175   3.012   2.355  11.856 -0.4037  0.6683 -0.4356
 9587TIP3    H150176   2.924   2.372  11.890 -0.5384  0.1618 -0.5097
 9587TIP3    H250177   3.071   2.369  11.930 -0.8579 -2.4173  0.6656
 9588TIP3   OH250178   5.384   3.511   2.752  0.0259 -0.1561 -0.0336
 9588TIP3    H150179   5.461   3.533   2.804 -1.1689  1.3061  1.2136
 9588TIP3    H250180   5.331   3.457   2.810 -0.5507  0.0691 -0.3470
 9589TIP3   OH250181   3.951   1.598   2.341  0.5793 -1.0175  0.0578
 9589TIP3    H150182   3.863   1.606   2.303  1.2220 -0.7939 -1.4421
 9589TIP3    H250183   3.967   1.504   2.343  0.0947 -1.0984  0.9018
 9590TIP3   OH250184   4.597   4.355  12.306 -0.1212 -0.4009  0.1611
 9590TIP3    H150185   4.687   4.358  12.275 -0.0454 -0.8260  0.3278
 9590TIP3    H250186   4.591   4.424  12.372  0.8218 -2.0205  2.0477
 9591TIP3   OH250187   5.078   0.898   4.044 -0.3852  0.1822 -0.3098
 9591TIP3    H150188   5.106   0.977   3.999  1.8192  0.2034  0.9784
 9591TIP3    H250189   5.056   0.837   3.973  1.3220  0.7870 -1.4327
 9592TIP3   OH250190   2.950   3.836   3.162 -0.0952  0.2518  0.2778
 9592TIP3    H150191   2.905   3.891   3.225  0.2282 -0.2792  0.9777
 9592TIP3    H250192   2.971   3.895   3.089  1.3966  1.3682  1.5499
 9593TIP3   OH250193   1.676   1.415  17.028  0.6274 -0.4460 -0.0669
 9593TIP3    H150194   1.654   1.464  17.107  0.3332  0.7195 -0.8554
 9593TIP3    H250195   1.738   1.348  17.058 -2.0261 -2.2565  1.7907
 9594TIP3   OH250196   5.433   2.724  16.779  0.2860 -0.3571  0.0494
 9594TIP3    H150197   5.449   2.818  16.765 -0.7238  0.1037  1.6814
 9594TIP3    H250198   5.515   2.682  16.754  0.9174  1.0164 -0.2893
 9595TIP3   OH250199   6.563   6.141   2.157 -0.3267  0.3155 -0.0080
 9595TIP3    H150200   6.618   6.091   2.217 -0.8109 -0.2903 -0.0507
 9595TIP3    H250201   6.605   6.132   2.072 -1.4257 -1.7004 -0.4059
 9596TIP3   OH250202   1.890   0.547   3.099  0.4174  0.0236  0.1779
 9596TIP3    H150203   1.963   0.521   3.156  0.3460  0.2444  0.3743
 9596TIP3    H250204   1.911   0.508   3.014  0.1324 -0.9815  0.5458
 9597TIP3   OH250205   6.092   5.823  14.968 -0.0753 -0.4944  0.1540
 9597TIP3    H150206   6.044   5.884  15.024 -0.1780  0.4594 -0.9340
 9597TIP3    H250207   6.160   5.877  14.928 -0.6910 -0.8907 -1.4785
 9598TIP3   OH250208   1.334   2.494  12.724  0.1740  0.4820  0.4919
 9598TIP3    H150209   1.299   2.559  12.785 -1.6302  2.3118 -2.2923
 9598TIP3    H250210   1.301   2.520  12.639  2.7731 -1.8019 -1.3956
 9599TIP3   OH250211   0.810   1.250   3.789 -0.0891  0.3003  0.6725
 9599TIP3    H150212   0.725   1.275   3.826  0.1022  1.4199  0.3904
 9599TIP3    H250213   0.871   1.260   3.862 -0.2372 -0.9113  0.9934
 9600TIP3   OH250214   6.364   6.249  15.477 -0.2139  0.1684  0.1911
 9600TIP3    H150215   6.303   6.284  15.412 -0.4806 -0.2322  0.2157
 9600TIP3    H250216   6.364   6.155  15.461  1.7783  0.3265 -0.9753
 9601TIP3   OH250217   1.235   6.215   6.219 -0.1856 -0.4393  0.4040
 9601TIP3    H150218   1.161   6.219   6.157 -0.2373 -0.5638  0.4568
 9601TIP3    H250219   1.201   6.164   6.293 -0.1614 -0.1905  0.5864
 9602TIP3   OH250220   0.245   1.743   2.838  0.1628 -0.1257 -0.3254
 9602TIP3    H150221   0.306   1.749   2.912 -0.2164  1.4359 -0.0912
 9602TIP3    H250222   0.251   1.829   2.796 -0.0718 -0.7842 -1.7810
 9603TIP3   OH250223   2.406   2.687  16.380 -0.4321 -0.7538 -0.4809
 9603TIP3    H150224   2.416   2.607  16.329 -1.6072 -0.1061 -1.7890
 9603TIP3    H250225   2.476   2.683  16.445 -0.2397 -2.6563 -0.7497
 9604TIP3   OH250226   4.468   0.381  13.833 -0.3192  0.2710  0.2412
 9604TIP3    H150227   4.412   0.314  13.872 -0.7641  0.1984 -0.4973
 9604TIP3    H250228   4.467   0.453  13.896 -0.7133  0.0090  0.5414
 9605TIP3   OH250229   3.253   4.147  15.460  0.5451  0.2545  0.1199
 9605TIP3    H150230   3.323   4.200  15.422  0.6588  0.9985  1.3037
 9605TIP3    H250231   3.246   4.178  15.550 -0.4205 -0.7239  0.4051
 9606TIP3   OH250232   2.784   0.155   5.874  0.0161  0.4041 -0.0991
 9606TIP3    H150233   2.761   0.088   5.939  1.0098  0.1205 -0.0229
 9606TIP3    H250234   2.758   0.237   5.915  1.4797  0.3191  1.0930
 9607TIP3   OH250235   5.189   2.177   3.743  0.4423 -0.2674  0.0710
 9607TIP3    H150236   5.119   2.225   3.787  0.5702  1.1249 -1.1904
 9607TIP3    H250237   5.267   2.231   3.756  1.0265 -1.1460  0.3350
 9608TIP3   OH250238   4.035   3.313  14.218 -1.0997  0.1244 -0.2533
 9608TIP3    H150239   4.077   3.380  14.272  2.4341 -0.7970 -1.6011
 9608TIP3    H250240   4.049   3.231  14.266 -0.1524 -0.3666 -1.3296
 9609TIP3   OH250241   1.668   3.261  11.841 -0.2209  0.5004  1.1372
 9609TIP3    H150242   1.682   3.343  11.794  0.6092  0.4667  1.3135
 9609TIP3    H250243   1.639   3.200  11.774  4.8122 -0.7234 -0.3740
 9610TIP3   OH250244   5.738   5.368   2.120 -0.1379 -0.1242  0.2914
 9610TIP3    H150245   5.657   5.322   2.101 -1.1196  1.0170  1.5507
 9610TIP3    H250246   5.807   5.304   2.101 -1.2971 -1.0794 -0.8951
 9611TIP3   OH250247   5.432   2.500   5.604  0.2797  0.2013  0.9080
 9611TIP3    H150248   5.468   2.426   5.653  0.5599 -0.5013 -0.3185
 9611TIP3    H250249   5.367   2.461   5.546  1.3587  0.7019 -0.7081
 9612TIP3   OH250250   6.380   6.449   0.086 -0.2026  0.1305  0.3319
 9612TIP3    H150251   6.404   6.377   0.144 -0.2463 -0.3687 -0.2651
 9612TIP3    H250252   6.450   6.514   0.099 -0.8683  0.5786  1.8723
 9613TIP3   OH250253   0.295   4.273  15.397  0.3917 -0.3319 -0.1396
 9613TIP3    H150254   0.386   4.296  15.418  0.6805  1.3248 -2.7876
 9613TIP3    H250255   0.249   4.356  15.393 -1.1967 -1.1244  0.7390
 9614TIP3   OH250256   2.092   2.368  11.455  0.1305  0.1707  0.0297
 9614TIP3    H150257   2.105   2.460  11.479 -0.5730  0.1891  0.3780
 9614TIP3    H250258   2.157   2.320  11.506  0.1162  0.4211  0.2854
 9615TIP3   OH250259   1.646   2.454   0.704 -0.5347 -0.1567 -0.1119
 9615TIP3    H150260   1.644   2.365   0.668 -2.1373 -0.1572 -0.0791
 9615TIP3    H250261   1.602   2.448   0.788 -1.2112  0.7692 -0.3777
 9616TIP3   OH250262   5.009   2.694  11.426 -0.6134  0.3631  0.1396
 9616TIP3    H150263   4.964   2.664  11.505 -0.0951  0.3619  0.4368
 9616TIP3    H250264   4.943   2.689  11.357 -0.4474 -1.8414  0.0831
 9617TIP3   OH250265   4.918   1.150  14.281  0.0607  0.1469  0.3549
 9617TIP3    H150266   4.843   1.164  14.224 -0.0913 -0.1701  0.4718
 9617TIP3    H250267   4.945   1.060  14.264  1.5774  0.8265 -1.0370
 9618TIP3   OH250268   2.131   0.722  14.301 -0.2168  0.6563 -0.1885
 9618TIP3    H150269   2.139   0.809  14.340  3.1318 -0.5957  2.4155
 9618TIP3    H250270   2.192   0.724  14.226  0.3158  0.4221  0.2308
 9619TIP3   OH250271   5.663   2.469  15.284  0.0406 -0.0481  0.1265
 9619TIP3    H150272   5.750   2.435  15.262  0.7775  2.4191 -1.1337
 9619TIP3    H250273   5.659   2.464  15.379  0.9875 -1.4533  0.1328
 9620TIP3   OH250274   5.149   6.760  11.075 -0.9278  0.4530 -0.0876
 9620TIP3    H150275   5.208   6.689  11.101 -0.7890  0.5863 -0.0360
 9620TIP3    H250276   5.190   6.797  10.997 -1.3873 -0.0023 -0.5500
 9621TIP3   OH250277   0.008   4.256  15.745  0.2312 -0.5035 -0.0957
 9621TIP3    H150278  -0.037   4.244  15.661 -0.7186 -0.3970  0.3805
 9621TIP3    H250279  -0.048   4.210  15.808 -0.3530  1.4157  0.8561
 9622TIP3   OH250280   5.517   4.836  14.247 -0.0553  0.3565 -0.4453
 9622TIP3    H150281   5.596   4.782  14.243 -0.0748  0.1596  1.1642
 9622TIP3    H250282   5.459   4.788  14.307 -1.3275  0.5969 -1.4499
 9623TIP3   OH250283   4.952   6.672  13.851 -0.0451  0.4879  0.6249
 9623TIP3    H150284   4.906   6.654  13.933  0.2288 -1.5265  0.3773
 9623TIP3    H250285   5.045   6.672  13.874  0.0577 -0.5291  0.2661
 9624TIP3   OH250286   2.015   5.975  15.891  0.0319 -0.2983 -0.1457
 9624TIP3    H150287   1.933   5.933  15.917 -0.4035  1.0475  0.7915
 9624TIP3    H250288   2.069   5.904  15.856 -1.1088 -1.3992  0.2596
 9625TIP3   OH250289   6.524   3.160  14.682 -0.0064  0.9627 -0.3637
 9625TIP3    H150290   6.502   3.100  14.753 -3.9916  0.7242 -1.5904
 9625TIP3    H250291   6.506   3.247  14.717 -1.2294  0.8966 -0.7959
 9626TIP3   OH250292   3.760   2.251  17.096 -0.3056 -0.5696  0.2455
 9626TIP3    H150293   3.676   2.267  17.137  0.3784  1.9913  0.7934
 9626TIP3    H250294   3.822   2.244  17.169  0.3135  0.0262 -0.2093
 9627TIP3   OH250295   4.763   6.368   3.888  0.2587 -0.1662  0.0341
 9627TIP3    H150296   4.779   6.274   3.883  0.7496 -0.0737 -0.1870
 9627TIP3    H250297   4.818   6.399   3.959 -0.6493 -0.1936  0.7683
 9628TIP3   OH250298   5.912   2.531  14.182 -0.0529 -0.4384 -0.4140
 9628TIP3    H150299   5.854   2.580  14.240  1.4760 -0.7191  1.4814
 9628TIP3    H250300   5.863   2.451  14.161 -1.0027  0.0948 -0.2913
 9629TIP3   OH250301   0.889   2.876  11.574  0.0343  0.2059 -0.4083
 9629TIP3    H150302   0.961   2.939  11.568  0.9739 -0.8132 -0.1800
 9629TIP3    H250303   0.813   2.923  11.541  0.3861  1.9442  1.1261
 9630TIP3   OH250304   5.426   4.154   3.005 -0.7784  0.2243  0.2097
 9630TIP3    H150305   5.440   4.067   2.967 -0.7231  0.7874 -1.1336
 9630TIP3    H250306   5.509   4.175   3.049  0.1116  0.5588 -1.5220
 9631TIP3   OH250307   3.109   4.727   0.780  0.1407  0.3474  0.3498
 9631TIP3    H150308   3.182   4.761   0.832  0.5177 -0.1676  0.1710
 9631TIP3    H250309   3.081   4.800   0.726  0.1030  0.7314  0.8832
 9632TIP3   OH250310   6.793   2.423  15.438  0.0783  0.0231 -0.9902
 9632TIP3    H150311   6.861   2.490  15.447 -0.7906  0.6062  2.8613
 9632TIP3    H250312   6.711   2.473  15.434 -0.3719 -0.7525 -1.8482
 9633TIP3   OH250313   5.754   0.595  13.575  0.0884 -1.1831 -0.1093
 9633TIP3    H150314   5.838   0.587  13.620 -1.0080 -1.5858  1.9630
 9633TIP3    H250315   5.737   0.689  13.573  1.2765 -0.9429 -1.9971
 9634TIP3   OH250316   1.918   3.582   4.449  0.8769  0.5919 -0.2176
 9634TIP3    H150317   1.883   3.642   4.383  1.2323 -0.2865 -1.2313
 9634TIP3    H250318   1.999   3.549   4.410  1.2349  0.2600  0.7810
 9635TIP3   OH250319   2.492   3.738  15.527 -0.3450  0.4861 -0.1125
 9635TIP3    H150320   2.539   3.810  15.487  0.4548 -0.5786 -1.1707
 9635TIP3    H250321   2.429   3.710  15.460 -0.4690  0.0492  0.1767
 9636TIP3   OH250322   4.149   0.248   1.923 -0.3383  0.2102  0.2090
 9636TIP3    H150323   4.198   0.271   2.002 -0.0085  0.5489 -0.0873
 9636TIP3    H250324   4.216   0.234   1.856 -0.5583 -1.1370  0.2459
 9637TIP3   OH250325   3.846   6.074  11.397  0.5740  0.4662 -0.5111
 9637TIP3    H150326   3.920   6.033  11.352 -2.5972 -3.3529 -2.8668
 9637TIP3    H250327   3.824   6.012  11.467 -0.5481  1.3723 -0.0399
 9638TIP3   OH250328   5.752   5.317  10.642  0.2556  0.6330 -0.1464
 9638TIP3    H150329   5.815   5.286  10.707 -0.3053 -0.6704 -0.1839
 9638TIP3    H250330   5.672   5.268  10.661 -0.3687  1.3406 -0.8837
 9639TIP3   OH250331   1.822   1.450  15.320  0.1732 -0.2317  0.2799
 9639TIP3    H150332   1.797   1.539  15.342 -1.9925 -0.6305 -0.3254
 9639TIP3    H250333   1.914   1.444  15.344  0.0455  1.7815  1.4749
 9640TIP3   OH250334   6.764   0.188   3.448 -0.1743  0.5329 -0.9066
 9640TIP3    H150335   6.840   0.246   3.443  0.7518 -0.4016  1.0757
 9640TIP3    H250336   6.689   0.247   3.452  0.6901  1.6057  0.3173
 9641TIP3   OH250337   4.834   2.088  15.725 -0.2193  0.5177  0.1629
 9641TIP3    H150338   4.921   2.108  15.689  0.6778 -0.2464  1.7751
 9641TIP3    H250339   4.814   2.001  15.693 -1.3509  1.4312 -1.8303
 9642TIP3   OH250340   0.742   5.590  11.380 -0.0435 -0.3734  0.1337
 9642TIP3    H150341   0.766   5.634  11.461  0.5890 -1.0733  0.3365
 9642TIP3    H250342   0.811   5.525  11.366 -0.9712 -1.3304 -0.1415
 9643TIP3   OH250343   4.073   3.092  14.390  0.3313 -0.2202 -0.4627
 9643TIP3    H150344   4.141   3.079  14.456 -1.4603  0.3510  1.6188
 9643TIP3    H250345   4.002   3.033  14.417 -1.4015  1.7804 -0.4483
 9644TIP3   OH250346   6.325   0.812   0.081  0.2168 -0.7210  0.0485
 9644TIP3    H150347   6.253   0.810   0.018  0.0679 -0.8813  0.2217
 9644TIP3    H250348   6.353   0.721   0.088 -0.0961 -0.7784  0.5880
 9645TIP3   OH250349   2.754   1.525  10.550 -0.4088 -0.4072  0.4448
 9645TIP3    H150350   2.661   1.507  10.564  0.0392 -1.5802  2.1976
 9645TIP3    H250351   2.755   1.593  10.482 -2.5826  0.6486  1.3699
 9646TIP3   OH250352   0.479   6.048  14.375  0.4473  0.0306 -0.6551
 9646TIP3    H150353   0.432   6.017  14.452  0.5144  0.8411 -0.2863
 9646TIP3    H250354   0.415   6.042  14.304  0.1176  0.1345 -0.3652
 9647TIP3   OH250355   6.788   2.826  14.339  0.5801  0.2037 -0.7799
 9647TIP3    H150356   6.879   2.799  14.327  0.8467  0.0007  1.3524
 9647TIP3    H250357   6.739   2.745  14.334  0.7852  0.0020  0.3134
 9648TIP3   OH250358   4.428   6.570   2.320 -0.4050  0.1607 -0.3228
 9648TIP3    H150359   4.473   6.536   2.243 -0.5756 -2.4898  0.6518
 9648TIP3    H250360   4.336   6.573   2.295 -0.2791  0.9714 -0.7404
 9649TIP3   OH250361   2.328   4.278  10.897 -0.2821  0.2527 -0.1970
 9649TIP3    H150362   2.379   4.346  10.854 -0.5431 -0.4140 -1.6164
 9649TIP3    H250363   2.237   4.305  10.887 -0.6024 -1.4478 -3.0551
 9650TIP3   OH250364   1.817   3.486  10.425 -0.2101  0.4548 -0.1279
 9650TIP3    H150365   1.726   3.504  10.400 -0.0561 -0.4475 -1.4221
 9650TIP3    H250366   1.816   3.395  10.454  0.7603 -0.6081 -3.0212
 9651TIP3   OH250367   3.337   6.119   1.806 -0.1831  0.3201 -0.3362
 9651TIP3    H150368   3.331   6.075   1.890 -1.4949  2.7015  0.9193
 9651TIP3    H250369   3.304   6.055   1.743 -1.8763 -0.5598  1.3611
 9652TIP3   OH250370   5.179   2.208   4.833  0.5037 -0.7639 -0.1168
 9652TIP3    H150371   5.085   2.215   4.847  0.5304 -0.4840 -0.0715
 9652TIP3    H250372   5.188   2.144   4.762  0.2767 -0.7297 -0.1770
 9653TIP3   OH250373   1.093   2.064   0.927 -0.7546  0.5425  0.0912
 9653TIP3    H150374   1.171   2.080   0.873 -0.3837 -2.5430 -0.4590
 9653TIP3    H250375   1.024   2.117   0.885 -0.1584 -0.6782 -2.6961
 9654TIP3   OH250376   4.524   4.474   5.485  0.3780  0.6481 -0.3145
 9654TIP3    H150377   4.504   4.491   5.393 -1.1931  1.5837  0.1519
 9654TIP3    H250378   4.480   4.545   5.532  0.1484 -0.4621  1.2309
 9655TIP3   OH250379   2.761   6.578  12.164  0.1451  0.0641  0.3502
 9655TIP3    H150380   2.793   6.640  12.229  2.0367 -1.6223  1.1546
 9655TIP3    H250381   2.766   6.626  12.081 -1.1231  1.8468  1.2383
 9656TIP3   OH250382   5.083   4.795  15.826 -0.1978  0.2614  0.1834
 9656TIP3    H150383   5.073   4.800  15.731  0.8111 -2.7785 -0.1989
 9656TIP3    H250384   5.171   4.758  15.838 -0.7082 -0.3598  2.2626
 9657TIP3   OH250385   0.040   0.969  14.010  0.0307 -0.2781 -0.5842
 9657TIP3    H150386  -0.042   0.923  14.026 -0.6128  0.8459 -0.5714
 9657TIP3    H250387   0.078   0.924  13.934 -1.0746 -0.1947 -1.2095
 9658TIP3   OH250388   4.522   6.120   4.808 -0.2106  0.4972  0.4354
 9658TIP3    H150389   4.576   6.055   4.764 -0.6795 -0.5237  1.3168
 9658TIP3    H250390   4.454   6.143   4.744 -0.9653 -1.0636  0.6262
 9659TIP3   OH250391   5.910   3.154  12.698  0.2538 -0.7957 -0.1024
 9659TIP3    H150392   5.968   3.079  12.711 -1.2038 -1.9436  0.0481
 9659TIP3    H250393   5.877   3.175  12.785 -0.1224 -0.6390 -0.2777
 9660TIP3   OH250394   4.078   4.188   0.068 -0.0725  0.1641 -0.5773
 9660TIP3    H150395   4.107   4.268   0.111 -0.3152  0.2188 -0.5136
 9660TIP3    H250396   4.105   4.199  -0.023  0.1159  0.2076 -0.5177
 9661TIP3   OH250397   3.322   1.262   2.471 -0.3475  0.5942  0.2092
 9661TIP3    H150398   3.246   1.302   2.512  0.1997  0.4584  1.3727
 9661TIP3    H250399   3.327   1.175   2.509 -0.1229  0.2698 -0.5338
 9662TIP3   OH250400   0.737   2.425   4.147 -0.2159  0.0088  0.3217
 9662TIP3    H150401   0.752   2.511   4.186  0.3630  0.1465 -0.1953
 9662TIP3    H250402   0.808   2.414   4.084 -2.1599  0.6412 -2.1139
 9663TIP3   OH250403   2.017   0.312  17.022  0.3363  0.2510 -0.0577
 9663TIP3    H150404   2.014   0.274  17.110 -0.9108 -1.0750 -0.6129
 9663TIP3    H250405   1.958   0.387  17.026  1.1495  0.8812  0.5014
 9664TIP3   OH250406   1.510   3.628  11.717 -0.1675  0.4996  0.6755
 9664TIP3    H150407   1.597   3.636  11.755 -0.1498  1.0582  0.5306
 9664TIP3    H250408   1.515   3.675  11.634 -1.1878  2.4828  1.6630
 9665TIP3   OH250409   4.185   4.736  11.282  0.0925  0.1509  0.3038
 9665TIP3    H150410   4.259   4.781  11.323 -0.0618  1.2695 -0.5871
 9665TIP3    H250411   4.109   4.787  11.309 -0.3086 -0.7074  0.8163
 9666TIP3   OH250412   2.381   1.701   4.215  0.8233  0.4200  0.1612
 9666TIP3    H150413   2.414   1.780   4.172  0.0496  1.4434  1.3562
 9666TIP3    H250414   2.450   1.676   4.277  1.1744  0.0107 -0.3948
 9667TIP3   OH250415   3.937   0.767   2.076  0.0985  0.1946  0.0782
 9667TIP3    H150416   3.943   0.682   2.033 -0.1329  0.5352 -0.6448
 9667TIP3    H250417   3.850   0.768   2.116  0.1046  0.0916  0.0951
 9668TIP3   OH250418   0.259   4.825   4.691 -0.0946 -0.2934 -0.2500
 9668TIP3    H150419   0.245   4.743   4.738 -0.4722 -0.5203 -0.7464
 9668TIP3    H250420   0.353   4.828   4.675  0.0031 -0.3260  0.3135
 9669TIP3   OH250421   1.357   0.954   1.656 -0.3251 -0.4564  0.2512
 9669TIP3    H150422   1.403   0.870   1.649 -0.7837 -0.6599 -0.3961
 9669TIP3    H250423   1.324   0.956   1.746 -2.4778 -2.1432 -0.4122
 9670TIP3   OH250424   4.781   0.117  15.811 -0.3315  0.0700  0.3580
 9670TIP3    H150425   4.799   0.194  15.864  1.7420 -0.5208  0.5967
 9670TIP3    H250426   4.714   0.069  15.860 -0.1803  0.7189  1.2195
 9671TIP3   OH250427   0.465   2.581   5.589 -0.0786 -0.1977  0.0473
 9671TIP3    H150428   0.423   2.605   5.507 -0.0523 -1.8444 -0.4913
 9671TIP3    H250429   0.539   2.526   5.562  0.6779  0.2640  1.1248
 9672TIP3   OH250430   0.501   6.274   1.601  0.3501 -0.1796 -0.0287
 9672TIP3    H150431   0.434   6.333   1.636  0.8549  0.1062  0.4730
 9672TIP3    H250432   0.572   6.332   1.575  2.1750 -0.6862  3.3063
 9673TIP3   OH250433   0.949   5.771   5.640  0.2314 -0.1224 -0.0008
 9673TIP3    H150434   0.869   5.821   5.656 -0.6386 -1.1643 -0.9585
 9673TIP3    H250435   1.015   5.838   5.620 -0.5512  0.7236  0.1819
 9674TIP3   OH250436   5.366   2.463   3.168  0.0491 -0.1823  0.0511
 9674TIP3    H150437   5.380   2.551   3.204  0.1255  0.0209 -0.4694
 9674TIP3    H250438   5.336   2.478   3.078  0.9851 -0.7032 -0.3599
 9675TIP3   OH250439   2.051   1.431  15.904 -0.2551 -0.0401 -0.4411
 9675TIP3    H150440   2.003   1.434  15.987 -0.4504 -0.6422 -0.5301
 9675TIP3    H250441   2.009   1.361  15.854  0.2751 -0.1136 -0.7913
 9676TIP3   OH250442   4.246   0.242  15.517 -0.0757  0.2217 -0.3682
 9676TIP3    H150443   4.204   0.274  15.597  0.5907  0.1342  0.0225
 9676TIP3    H250444   4.323   0.298  15.506 -0.3941  0.5163 -1.1951
 9677TIP3   OH250445   6.232   3.240  17.006 -0.1827  0.1417 -0.2137
 9677TIP3    H150446   6.225   3.308  16.939 -1.8471 -0.4800 -0.7031
 9677TIP3    H250447   6.213   3.286  17.088  0.7125  0.6590 -0.2772
 9678TIP3   OH250448   1.561   3.083   2.151 -0.2982  0.0963 -0.7906
 9678TIP3    H150449   1.636   3.066   2.094 -1.8640 -0.3451 -2.8211
 9678TIP3    H250450   1.586   3.044   2.235  0.8363 -2.0908 -2.0628
 9679TIP3   OH250451   4.212   1.663   3.078 -0.0336 -0.0662 -0.5401
 9679TIP3    H150452   4.207   1.730   3.146  1.0257  0.7492 -1.2193
 9679TIP3    H250453   4.239   1.584   3.125  1.1951  0.6044 -0.0571
 9680TIP3   OH250454   4.857   0.791  13.729  0.1035  0.4959  0.1660
 9680TIP3    H150455   4.801   0.739  13.672 -0.4326  0.7223  0.4754
 9680TIP3    H250456   4.864   0.741  13.810 -0.4554  0.9170  0.4832
 9681TIP3   OH250457   6.255   4.215   0.505 -0.3128  0.3057  0.0713
 9681TIP3    H150458   6.337   4.265   0.500 -1.2120  1.8912  0.7142
 9681TIP3    H250459   6.261   4.167   0.588 -0.3993  1.0970  0.5412
 9682TIP3   OH250460   2.196   5.730   0.321 -0.5309 -0.0538  0.4811
 9682TIP3    H150461   2.218   5.823   0.313 -0.8811 -0.0472 -0.5079
 9682TIP3    H250462   2.234   5.703   0.405 -0.3258  0.9506  0.7172
 9683TIP3   OH250463   3.847   1.714   6.635  0.2073 -0.1365 -1.1612
 9683TIP3    H150464   3.854   1.809   6.646  0.3517 -0.0893 -1.6065
 9683TIP3    H250465   3.755   1.694   6.652  0.4585 -0.1177  0.3205
 9684TIP3   OH250466   1.041   4.503   3.578 -0.1935 -0.2775 -0.5846
 9684TIP3    H150467   1.133   4.477   3.574 -0.1628 -0.0482 -2.1077
 9684TIP3    H250468   0.993   4.420   3.581  0.0244 -0.4487 -1.5198
 9685TIP3   OH250469   3.212   1.937   3.346 -0.3597  0.5549 -0.3902
 9685TIP3    H150470   3.122   1.953   3.373  0.5618  1.7461  2.3775
 9685TIP3    H250471   3.246   2.022   3.320  0.4023  0.4168  0.1084
 9686TIP3   OH250472   1.652   5.403  10.582 -0.0669  0.0607 -0.1951
 9686TIP3    H150473   1.691   5.430  10.498 -0.1004  0.8119  0.0247
 9686TIP3    H250474   1.559   5.390  10.563 -0.7425  3.2963  0.3517
 9687TIP3   OH250475   0.511   2.243  12.413  0.7169 -0.0455  0.1772
 9687TIP3    H150476   0.504   2.186  12.490 -0.3914 -2.0898 -1.3234
 9687TIP3    H250477   0.455   2.200  12.347  2.7804  0.7729 -2.2563
 9688TIP3   OH250478   4.733   2.430   0.361  0.7101 -0.6269  0.1074
 9688TIP3    H150479   4.763   2.421   0.451  0.0531 -1.2594  0.2617
 9688TIP3    H250480   4.686   2.349   0.342 -0.2683  0.0365 -0.3751
 9689TIP3   OH250481   5.714   0.437   1.520  0.1537  0.0165 -0.5997
 9689TIP3    H150482   5.624   0.447   1.488 -0.6527 -0.4725  1.3753
 9689TIP3    H250483   5.739   0.349   1.493 -0.3276 -0.2118 -0.3190
 9690TIP3   OH250484   3.329   5.655   6.286  0.0043 -0.1199  0.3406
 9690TIP3    H150485   3.357   5.646   6.195  0.1748 -2.7770  0.5702
 9690TIP3    H250486   3.233   5.661   6.281 -0.1858 -2.4709  0.0035
 9691TIP3   OH250487   3.012   1.749  14.367  0.1526 -0.0484  0.1783
 9691TIP3    H150488   2.987   1.659  14.345 -1.3822  0.1317  1.0804
 9691TIP3    H250489   2.954   1.804  14.315 -1.5391  0.3741  2.3835
 9692TIP3   OH250490   1.115   1.069  16.958 -0.4096 -0.3554  0.0103
 9692TIP3    H150491   1.173   1.000  16.926 -1.2102 -1.0812  0.0960
 9692TIP3    H250492   1.027   1.031  16.951 -0.7681  0.2696  1.0431
 9693TIP3   OH250493   3.533   3.405  12.768 -0.0691 -0.4284  0.1771
 9693TIP3    H150494   3.566   3.374  12.684 -2.3490 -0.6739 -0.7113
 9693TIP3    H250495   3.512   3.326  12.817  0.2634 -0.2895  0.5437
 9694TIP3   OH250496   5.009   6.066   1.642  0.3812 -0.3170  1.0055
 9694TIP3    H150497   4.934   6.053   1.701  0.5490 -1.3786  1.0061
 9694TIP3    H250498   4.969   6.083   1.557  0.0864 -1.9536  0.7656
 9695TIP3   OH250499   2.152   0.906  11.204 -0.0170 -0.1516  0.4402
 9695TIP3    H150500   2.209   0.980  11.183  0.6426 -0.7707 -0.0151
 9695TIP3    H250501   2.085   0.906  11.136 -1.3399  1.3310  1.6789
 9696TIP3   OH250502   0.158   1.869   5.580 -0.2308  0.3120  0.8042
 9696TIP3    H150503   0.104   1.790   5.591  0.1479 -0.9393 -4.1632
 9696TIP3    H250504   0.097   1.941   5.592 -1.9881 -0.9367 -0.2019
 9697TIP3   OH250505   2.659   2.672  15.611  0.5353 -0.3264  0.3085
 9697TIP3    H150506   2.654   2.710  15.523  0.9164  0.2223  0.5221
 9697TIP3    H250507   2.742   2.702  15.646  0.9789 -1.5799  0.3848
 9698TIP3   OH250508   5.495   1.469  16.001  0.1524  0.3941  0.1335
 9698TIP3    H150509   5.572   1.521  15.978  0.6050  0.4168  1.6292
 9698TIP3    H250510   5.518   1.380  15.975  0.1064  0.6177 -0.7237
 9699TIP3   OH250511   4.226   1.379   0.621  0.2238 -0.3428  0.3059
 9699TIP3    H150512   4.279   1.420   0.690 -0.6046  3.4364 -1.0581
 9699TIP3    H250513   4.289   1.350   0.556  0.8171  0.9583  0.2727
 9700TIP3   OH250514   1.414   0.555  14.708 -0.4610 -0.1685  0.5327
 9700TIP3    H150515   1.481   0.516  14.765  0.2441  2.1153  1.3916
 9700TIP3    H250516   1.333   0.547  14.758 -0.4211 -0.8438  0.5106
 9701TIP3   OH250517   4.313   0.512   5.264  0.1291 -0.3017  0.4423
 9701TIP3    H150518   4.321   0.607   5.251 -0.2865 -0.4669 -1.1311
 9701TIP3    H250519   4.354   0.497   5.350  1.4792  1.1019  0.0984
 9702TIP3   OH250520   6.125   2.706  16.598  0.4899  0.4007  0.2999
 9702TIP3    H150521   6.140   2.619  16.635 -1.2602  0.6933  1.8321
 9702TIP3    H250522   6.175   2.765  16.655 -2.2170  0.8529  2.4088
 9703TIP3   OH250523   6.157   3.176  15.977 -0.3435  0.3691 -0.3212
 9703TIP3    H150524   6.223   3.245  15.970  0.3006 -0.2816 -0.8954
 9703TIP3    H250525   6.084   3.216  16.024 -0.4004  1.7549 -1.5392
 9704TIP3   OH250526   4.033   1.138  16.649  0.3204 -0.9383 -0.5571
 9704TIP3    H150527   4.026   1.193  16.727  0.2624 -0.4702 -0.8872
 9704TIP3    H250528   4.070   1.056  16.681  0.2841 -0.7567 -0.0350
 9705TIP3   OH250529   2.614   4.110  10.975  0.4148  0.1153  0.3002
 9705TIP3    H150530   2.527   4.093  11.011  0.1575  1.0203  0.1303
 9705TIP3    H250531   2.624   4.205  10.978  0.8273  0.1446 -0.9895
 9706TIP3   OH250532   5.365   1.173   5.608  0.5654 -0.4339  0.3787
 9706TIP3    H150533   5.340   1.124   5.529  0.2748  1.3198 -0.6821
 9706TIP3    H250534   5.289   1.165   5.666 -0.6231  0.9451 -0.8992
 9707TIP3   OH250535   5.831   4.028   3.952 -0.0006  0.1091 -0.0667
 9707TIP3    H150536   5.828   4.117   3.986  1.5040  0.6450 -1.1842
 9707TIP3    H250537   5.848   3.973   4.029  0.2820  0.9344  0.4740
 9708TIP3   OH250538   2.657   3.379  10.743 -0.2200 -0.0293  0.4076
 9708TIP3    H150539   2.567   3.382  10.710  0.0675 -2.0968 -0.7263
 9708TIP3    H250540   2.703   3.446  10.693 -0.8725  0.1879  0.0873
 9709TIP3   OH250541   0.209   4.634  14.400 -0.0127  1.0090  0.2627
 9709TIP3    H150542   0.146   4.577  14.355 -1.0579  1.2466  1.3953
 9709TIP3    H250543   0.165   4.718  14.407  1.1511  1.7126 -0.5216
 9710TIP3   OH250544   0.557   5.960  12.985 -0.2652  0.2522 -0.1635
 9710TIP3    H150545   0.595   5.898  12.922 -1.0307 -0.0417 -0.3467
 9710TIP3    H250546   0.588   5.930  13.070 -0.5351 -0.3221 -0.2610
 9711TIP3   OH250547   4.809   6.532  12.149  0.1512 -0.5464 -0.2578
 9711TIP3    H150548   4.763   6.615  12.156  1.4968  0.1800  0.4249
 9711TIP3    H250549   4.859   6.539  12.067 -3.2679 -2.6137 -2.7604
 9712TIP3   OH250550   6.631   0.970   0.216 -0.4849  0.4317  0.4029
 9712TIP3    H150551   6.550   1.020   0.213 -0.8487 -0.1987 -1.3102
 9712TIP3    H250552   6.699   1.032   0.190 -0.7450  0.3970 -0.3790
 9713TIP3   OH250553   1.096   0.111   4.721 -0.7354 -0.1239 -0.0372
 9713TIP3    H150554   1.142   0.060   4.655 -0.7368  1.8617 -1.6643
 9713TIP3    H250555   1.070   0.047   4.787  2.4489 -1.6740 -0.0794
 9714TIP3   OH250556   0.043   3.643   4.701 -0.3841  0.3109  0.2026
 9714TIP3    H150557   0.063   3.736   4.687 -1.3358  0.4706 -0.2693
 9714TIP3    H250558  -0.037   3.644   4.754  0.2164 -0.2634  1.1387
 9715TIP3   OH250559   6.337   0.777  14.037  0.2530  0.4088 -0.3299
 9715TIP3    H150560   6.286   0.696  14.037  1.2316 -0.3742  3.0467
 9715TIP3    H250561   6.334   0.807  13.946 -2.3308 -1.9877 -1.1916
 9716TIP3   OH250562   2.642   5.319   3.148  0.4415  0.0805  0.2860
 9716TIP3    H150563   2.596   5.379   3.207  1.3818  0.7048  0.4051
 9716TIP3    H250564   2.661   5.243   3.203  1.3887  0.6925  0.8382
 9717TIP3   OH250565   3.335   2.265  14.334  0.5666 -0.3058 -0.2033
 9717TIP3    H150566   3.291   2.199  14.387  2.5112 -0.2900  1.5766
 9717TIP3    H250567   3.274   2.338  14.331 -0.9958 -1.5833 -0.9420
 9718TIP3   OH250568   6.377   2.336  13.299 -0.9886  0.1314 -0.2393
 9718TIP3    H150569   6.334   2.318  13.382  0.8435 -0.0964  0.7327
 9718TIP3    H250570   6.315   2.390  13.250 -1.4528  1.7422  1.9698
 9719TIP3   OH250571   3.309   0.455  15.707 -0.0944  0.3321 -0.2739
 9719TIP3    H150572   3.334   0.536  15.752 -1.2400 -0.7210  2.5147
 9719TIP3    H250573   3.227   0.476  15.663  0.5449  1.1415 -1.1106
 9720TIP3   OH250574   3.323   1.000   0.667  0.1615  0.1443  0.5711
 9720TIP3    H150575   3.273   1.011   0.587  2.3588 -0.2255 -0.9569
 9720TIP3    H250576   3.332   1.088   0.702 -0.1638  0.4206 -0.0272
 9721TIP3   OH250577   3.131   2.032  11.133 -0.3102  0.1054 -0.0986
 9721TIP3    H150578   3.080   2.028  11.214 -0.7571 -0.5469 -0.4056
 9721TIP3    H250579   3.219   2.005  11.158 -0.7406 -1.3248 -0.0582
 9722TIP3   OH250580   1.415   5.045  13.169 -0.3799  0.0541 -0.4751
 9722TIP3    H150581   1.378   4.971  13.217 -0.9002  0.0391 -0.8800
 9722TIP3    H250582   1.400   5.120  13.226 -1.6852  0.1569 -0.9151
 9723TIP3   OH250583   5.042   3.532   1.487  0.0664  0.3437  0.0646
 9723TIP3    H150584   5.013   3.603   1.428  2.7338  1.5709  0.0839
 9723TIP3    H250585   5.071   3.578   1.566  0.4826 -0.9229  0.6594
 9724TIP3   OH250586   3.006   6.681  13.380 -0.0419  0.0070  0.1883
 9724TIP3    H150587   3.032   6.589  13.377  1.1064  0.2818  0.9040
 9724TIP3    H250588   3.089   6.729  13.374 -0.5510  0.9663  0.6723
 9725TIP3   OH250589   2.693   3.188   0.414 -0.4492  0.5844  0.0051
 9725TIP3    H150590   2.696   3.159   0.505  1.5740  2.7019  0.7205
 9725TIP3    H250591   2.706   3.107   0.363  1.0926 -0.3228  1.7072
 9726TIP3   OH250592   1.528   1.573   0.659 -0.3759  0.0153 -0.4976
 9726TIP3    H150593   1.544   1.550   0.567 -0.5503 -2.5565  0.0513
 9726TIP3    H250594   1.615   1.569   0.700 -0.5804 -1.1289 -0.1294
 9727TIP3   OH250595   0.436   6.352   5.434 -0.1749  0.1144  0.4843
 9727TIP3    H150596   0.396   6.386   5.514  0.8784 -2.2604  2.1385
 9727TIP3    H250597   0.392   6.268   5.419  0.1877  0.1595 -1.0108
 9728TIP3   OH250598   4.046   4.056  16.104 -0.6117 -0.3157  0.8520
 9728TIP3    H150599   4.070   4.026  16.192 -1.7966  0.5210  1.4924
 9728TIP3    H250600   4.063   4.150  16.106 -1.0671 -0.2174  0.3359
 9729TIP3   OH250601   6.026   3.844  11.928 -0.3117  0.4011  0.1474
 9729TIP3    H150602   6.039   3.777  11.996  0.3707  1.4706  1.1005
 9729TIP3    H250603   5.931   3.850  11.920 -0.4002 -0.0431  0.7149
 9730TIP3   OH250604   1.418   0.021   2.181 -0.0725  0.3325  0.2975
 9730TIP3    H150605   1.364   0.057   2.251  0.3687 -1.1400  1.4538
 9730TIP3    H250606   1.496  -0.011   2.226  0.9961  0.8841 -1.1163
 9731TIP3   OH250607   6.025   5.431  11.455 -0.1445  0.3991 -0.1647
 9731TIP3    H150608   6.114   5.398  11.443 -0.8895 -1.6129 -0.4003
 9731TIP3    H250609   5.991   5.438  11.366 -0.8795 -0.7406  0.0204
 9732TIP3   OH250610   4.149   5.056   0.579 -0.1002  0.3837  0.4584
 9732TIP3    H150611   4.166   5.093   0.492 -0.8645  0.0621  0.1670
 9732TIP3    H250612   4.200   4.975   0.581 -1.2695 -0.4070 -0.2901
 9733TIP3   OH250613   3.778   0.615  13.202  0.8268  0.5684  0.0439
 9733TIP3    H150614   3.739   0.621  13.115 -1.0282 -1.0447  0.7048
 9733TIP3    H250615   3.809   0.524  13.208 -0.2468  0.2739  1.5193
 9734TIP3   OH250616   4.961   4.896  13.199  0.0004 -0.3588  0.0104
 9734TIP3    H150617   5.046   4.854  13.205 -0.1064 -0.9540 -1.8955
 9734TIP3    H250618   4.973   4.966  13.135 -1.0795 -0.9155 -0.8422
 9735TIP3   OH250619   1.233   6.712   3.511 -0.6408  0.2670  0.5554
 9735TIP3    H150620   1.190   6.651   3.571 -0.1118 -1.3368 -0.6243
 9735TIP3    H250621   1.320   6.725   3.548 -0.1937 -0.9921 -0.0117
 9736TIP3   OH250622   3.187   6.244   4.798  0.1773 -0.6751 -0.3726
 9736TIP3    H150623   3.100   6.229   4.835  0.1802  3.0289  1.6505
 9736TIP3    H250624   3.171   6.294   4.718  0.3343  0.8452  0.4901
 9737TIP3   OH250625   0.634   3.361  12.971  0.4708  0.1772  0.0161
 9737TIP3    H150626   0.668   3.298  13.035 -0.4189 -0.6863 -0.3326
 9737TIP3    H250627   0.694   3.435  12.976  1.0078 -0.3077  1.1121
 9738TIP3   OH250628   0.438   1.769  15.430 -0.1013 -0.4258 -0.6024
 9738TIP3    H150629   0.516   1.819  15.404  1.1851 -2.1587 -0.2825
 9738TIP3    H250630   0.449   1.685  15.387 -1.6940 -0.8096 -0.3189
 9739TIP3   OH250631   1.629   0.327   3.807 -0.0861 -0.3295  0.0895
 9739TIP3    H150632   1.534   0.317   3.811 -0.0879 -2.5367 -2.5070
 9739TIP3    H250633   1.646   0.370   3.724  1.2169 -0.8720  0.0412
 9740TIP3   OH250634   3.253   1.540  15.095  0.3489  0.3427  0.1516
 9740TIP3    H150635   3.332   1.526  15.146  0.6338 -0.1628 -0.4197
 9740TIP3    H250636   3.283   1.580  15.014  0.1141 -0.5794 -0.4004
 9741TIP3   OH250637   1.779   0.596   5.669 -0.1191 -0.1151  0.4311
 9741TIP3    H150638   1.722   0.578   5.594  0.7326  1.3563 -0.6281
 9741TIP3    H250639   1.830   0.515   5.680 -0.5016 -0.4793 -0.3529
 9742TIP3   OH250640   2.918   3.878  14.943  0.2257 -0.5121 -0.1213
 9742TIP3    H150641   2.860   3.948  14.971  2.2989  1.4893 -0.5329
 9742TIP3    H250642   2.990   3.879  15.006  0.1005 -2.6399  0.1373
 9743TIP3   OH250643   5.443   6.652   6.205  0.7717  0.1270 -0.5328
 9743TIP3    H150644   5.450   6.621   6.296  0.8190 -1.0823 -0.9297
 9743TIP3    H250645   5.528   6.633   6.166  0.0459 -1.4996 -1.4410
 9744TIP3   OH250646   2.008   6.607   2.938 -0.3631 -0.2312 -0.1153
 9744TIP3    H150647   2.051   6.655   2.867 -0.2027 -0.5196 -0.2165
 9744TIP3    H250648   1.952   6.543   2.893  1.1018 -1.6455 -0.0090
 9745TIP3   OH250649   0.622   0.270  13.081  0.2249 -0.2659 -0.6562
 9745TIP3    H150650   0.692   0.215  13.116  0.9668  0.8529 -0.3304
 9745TIP3    H250651   0.542   0.219  13.095  0.8996 -1.2892 -0.4451
 9746TIP3   OH250652   0.162   5.493  16.202 -0.2197  0.6506  0.0110
 9746TIP3    H150653   0.105   5.524  16.272 -1.1557  0.3824 -0.6119
 9746TIP3    H250654   0.102   5.473  16.130  0.6581  0.2467 -0.6174
 9747TIP3   OH250655   2.945   0.751  10.861  0.1775 -0.1225 -0.6489
 9747TIP3    H150656   2.888   0.793  10.797  1.3509  2.4516 -0.1434
 9747TIP3    H250657   3.008   0.819  10.884  1.6018 -1.9165  1.0375
 9748TIP3   OH250658   2.323   6.718  16.077  0.4985  0.0074 -0.8197
 9748TIP3    H150659   2.372   6.782  16.127 -0.0975  1.1837 -1.6736
 9748TIP3    H250660   2.384   6.647  16.061  1.2359  0.4455 -0.0040
 9749TIP3   OH250661   4.137   2.313   0.300 -0.1601  0.3454  0.1735
 9749TIP3    H150662   4.220   2.357   0.279 -0.6111  0.9922 -0.3249
 9749TIP3    H250663   4.074   2.385   0.310 -0.7491 -0.1546  0.1341
 9750TIP3   OH250664   2.656   5.183  11.788 -0.3275 -0.1612 -0.1978
 9750TIP3    H150665   2.569   5.161  11.756  0.1974 -0.8961 -1.1917
 9750TIP3    H250666   2.712   5.111  11.758  0.7437  0.6305 -0.1830
 9751TIP3   OH250667   6.138   3.031   3.302  0.3096  0.1733 -0.3794
 9751TIP3    H150668   6.119   3.032   3.396  0.4157  0.9162 -0.3544
 9751TIP3    H250669   6.052   3.040   3.260  0.0506 -1.9948 -0.4225
 9752TIP3   OH250670   2.299   6.468   5.526 -0.2357  0.2515  0.2790
 9752TIP3    H150671   2.209   6.471   5.493  0.0408 -1.9748 -0.8605
 9752TIP3    H250672   2.351   6.444   5.450  1.0934 -0.2066  1.3108
 9753TIP3   OH250673   5.725   3.522   3.227 -0.3055  0.3250  0.6537
 9753TIP3    H150674   5.800   3.516   3.169 -0.2719 -1.4528  0.8287
 9753TIP3    H250675   5.667   3.585   3.185 -0.1998 -0.7521 -1.2227
 9754TIP3   OH250676   3.279   2.450   6.339  0.0801 -0.0138 -0.5322
 9754TIP3    H150677   3.302   2.529   6.389 -2.9152  1.0747 -0.6362
 9754TIP3    H250678   3.289   2.476   6.248  2.2432 -0.8824 -0.5795
 9755TIP3   OH250679   5.559   0.358  11.382 -0.3999 -0.7667  0.5002
 9755TIP3    H150680   5.505   0.351  11.461 -1.5499 -0.3682 -0.2235
 9755TIP3    H250681   5.647   0.336  11.411 -0.9007 -1.1784  1.7784
 9756TIP3   OH250682   5.704   1.253   1.975 -0.5329 -0.3465 -0.6426
 9756TIP3    H150683   5.665   1.336   1.947  1.1688  0.6376 -0.2399
 9756TIP3    H250684   5.703   1.199   1.895 -1.9504 -0.1010 -0.8286
 9757TIP3   OH250685   0.889   2.834  16.878  0.7504  0.0957  0.0989
 9757TIP3    H150686   0.799   2.802  16.877  1.0770 -0.8747 -0.8609
 9757TIP3    H250687   0.937   2.769  16.930  0.5864  1.6118  2.2387
 9758TIP3   OH250688   4.113   1.506   5.459 -0.5597 -0.2545  0.1188
 9758TIP3    H150689   4.192   1.454   5.465 -1.0261 -1.4095 -2.3967
 9758TIP3    H250690   4.092   1.508   5.365 -2.4468  1.6245  0.4893
 9759TIP3   OH250691   4.736   4.097   5.624 -0.3504 -0.5550 -0.1774
 9759TIP3    H150692   4.819   4.068   5.660  1.3643  2.7845 -1.0925
 9759TIP3    H250693   4.716   4.033   5.554 -0.3226 -3.2055  2.0751
 9760TIP3   OH250694   0.266   1.824  12.362  0.4003  0.1216 -0.4125
 9760TIP3    H150695   0.221   1.773  12.429 -0.4804 -0.2237 -1.2511
 9760TIP3    H250696   0.304   1.759  12.303  2.0299  0.4017  0.2728
 9761TIP3   OH250697   3.869   2.784  15.188  0.0965 -0.0030  0.4084
 9761TIP3    H150698   3.808   2.820  15.123  0.5243  1.2392  0.6663
 9761TIP3    H250699   3.921   2.860  15.216  1.9862 -1.0799 -0.0328
 9762TIP3   OH250700   5.358   0.156  11.891  0.2477  0.1617 -0.0211
 9762TIP3    H150701   5.320   0.216  11.956  1.5628  0.7649  0.2088
 9762TIP3    H250702   5.302   0.078  11.896 -2.0967  1.6593 -1.0134
 9763TIP3   OH250703   6.564   3.384   0.085 -0.0333  0.5562 -0.0342
 9763TIP3    H150704   6.609   3.412   0.005  1.2637  0.0396  0.4893
 9763TIP3    H250705   6.509   3.310   0.057  0.4470  0.3494 -0.4536
 9764TIP3   OH250706   3.167   6.679  12.676 -0.3172 -0.0259  0.0959
 9764TIP3    H150707   3.102   6.623  12.718 -1.2237  1.9561  1.4878
 9764TIP3    H250708   3.117   6.753  12.642  0.9554  0.4946 -0.7330
 9765TIP3   OH250709   6.373   3.305  11.792  0.4824  0.3051 -0.3783
 9765TIP3    H150710   6.379   3.257  11.875  0.6773  0.1986 -0.4541
 9765TIP3    H250711   6.291   3.354  11.799  0.5060  0.3094 -0.1143
 9766TIP3   OH250712   3.721   4.688   3.324 -0.3198 -0.0554  0.2519
 9766TIP3    H150713   3.757   4.681   3.236 -0.5320  2.7911 -0.1785
 9766TIP3    H250714   3.762   4.617   3.373  2.2425  0.1735 -1.3701
 9767TIP3   OH250715   5.246   2.558  16.504  0.3711 -0.4173 -0.5805
 9767TIP3    H150716   5.219   2.620  16.571  2.0873 -0.7767  0.5292
 9767TIP3    H250717   5.204   2.476  16.529  0.9440 -0.5314  0.0566
 9768TIP3   OH250718   4.886   0.332  16.243 -0.2672  0.1678 -0.0782
 9768TIP3    H150719   4.803   0.353  16.285  0.2813  0.0561  1.0829
 9768TIP3    H250720   4.881   0.238  16.225  0.0906 -0.0896  1.1130
 9769TIP3   OH250721   3.099   1.341  11.256  0.5244 -0.0226 -0.6851
 9769TIP3    H150722   3.144   1.426  11.255 -0.8425  0.7420 -1.8328
 9769TIP3    H250723   3.075   1.326  11.164  1.6122 -2.1714 -0.6911
 9770TIP3   OH250724   5.180   6.537  14.762 -0.3261 -0.4174  0.2240
 9770TIP3    H150725   5.216   6.548  14.675  3.5776 -1.9025  1.4536
 9770TIP3    H250726   5.164   6.627  14.793  1.1109  0.2752 -0.9528
 9771TIP3   OH250727   2.345   4.073   3.009 -0.0408  0.8016 -0.6182
 9771TIP3    H150728   2.420   4.083   3.068 -0.5200 -0.9555  0.3752
 9771TIP3    H250729   2.269   4.080   3.067 -0.5163 -1.2742 -0.8999
 9772TIP3   OH250730   2.248   2.612  12.479 -0.3865 -0.3302  0.1234
 9772TIP3    H150731   2.328   2.576  12.516 -0.1821 -0.5678 -0.5245
 9772TIP3    H250732   2.277   2.667  12.407 -0.8344 -1.3205 -0.8550
 9773TIP3   OH250733   2.271   4.624   5.289 -0.1905  0.9649 -0.7629
 9773TIP3    H150734   2.245   4.712   5.318  0.0805  0.5246  0.9594
 9773TIP3    H250735   2.220   4.565   5.344  1.7186  0.0886  0.1830
 9774TIP3   OH250736   1.127   3.891  16.508 -0.1435  0.0801  0.3450
 9774TIP3    H150737   1.138   3.832  16.582 -1.4722  0.7310  1.1021
 9774TIP3    H250738   1.032   3.902  16.499  0.0346  1.0754 -0.5923
 9775TIP3   OH250739   1.314   5.868   0.216  1.1567 -0.3191 -0.5715
 9775TIP3    H150740   1.275   5.944   0.171  2.7426 -0.0240 -1.5061
 9775TIP3    H250741   1.294   5.883   0.308 -0.0270  0.3415 -0.9060
 9776TIP3   OH250742   6.531   3.419  11.380 -0.5994  0.3117 -0.1350
 9776TIP3    H150743   6.537   3.442  11.287 -0.1570  1.2707  0.1125
 9776TIP3    H250744   6.443   3.446  11.405 -0.5625  0.4723 -0.1748
 9777TIP3   OH250745   6.665   2.374   2.693  0.0292  0.0924  0.1729
 9777TIP3    H150746   6.757   2.394   2.713  0.4779  0.0416 -1.6286
 9777TIP3    H250747   6.668   2.284   2.659 -0.8709 -0.3117  1.1082
 9778TIP3   OH250748   6.684   4.973  15.396  0.2747  0.1979  0.0661
 9778TIP3    H150749   6.767   4.944  15.432 -0.2202 -1.5197 -0.0509
 9778TIP3    H250750   6.707   5.041  15.332  1.3184  1.7771  2.0260
 9779TIP3   OH250751   4.250   2.795   0.496  0.3308 -0.1190  0.4647
 9779TIP3    H150752   4.310   2.821   0.566  1.0602 -0.1017 -0.1559
 9779TIP3    H250753   4.307   2.766   0.425 -0.4201 -1.3949  0.3505
 9780TIP3   OH250754   6.134   0.190   0.338  0.0795 -0.7516 -0.3186
 9780TIP3    H150755   6.104   0.280   0.354  0.3606 -0.9299  1.3776
 9780TIP3    H250756   6.222   0.201   0.301 -0.9230 -0.3052 -2.7939
 9781TIP3   OH250757   1.531   6.773   5.083  0.2348  0.2608 -0.1630
 9781TIP3    H150758   1.477   6.784   5.005 -0.1434  0.9331  0.1845
 9781TIP3    H250759   1.582   6.853   5.089  0.9219 -0.1653 -0.2143
 9782TIP3   OH250760   2.406   3.050   1.045  0.0248  0.2365 -0.6695
 9782TIP3    H150761   2.336   2.987   1.061 -0.1460  0.6930  0.5021
 9782TIP3    H250762   2.483   2.996   1.029 -0.7078 -0.2881 -2.7712
 9783TIP3   OH250763   1.371   5.060   2.523 -0.6064 -0.5096 -0.5029
 9783TIP3    H150764   1.283   5.050   2.485 -0.3689  0.9239 -1.5071
 9783TIP3    H250765   1.373   4.997   2.595 -2.0025 -1.4747 -1.2502
 9784TIP3   OH250766   4.579   3.300   4.902 -0.2484 -0.4351  0.0739
 9784TIP3    H150767   4.495   3.265   4.874 -0.4851 -0.5942  0.9494
 9784TIP3    H250768   4.580   3.286   4.997 -0.1016  1.3941  0.3735
 9785TIP3   OH250769   3.174   1.641   5.733 -0.2387 -0.8909  0.0094
 9785TIP3    H150770   3.260   1.679   5.750  0.3017 -1.3249 -1.5380
 9785TIP3    H250771   3.176   1.619   5.639 -1.7131 -1.7114  0.1411
 9786TIP3   OH250772   1.919   3.490  11.145 -0.2159 -0.0900 -0.1094
 9786TIP3    H150773   1.876   3.572  11.121  0.1261  0.7229  1.9280
 9786TIP3    H250774   2.010   3.501  11.117 -0.3914 -0.1852 -0.7310
 9787TIP3   OH250775   0.286   1.112  16.025 -0.0075  0.1019 -0.5883
 9787TIP3    H150776   0.357   1.134  16.086 -0.4688  1.0569 -0.3747
 9787TIP3    H250777   0.278   1.017  16.031  1.5546 -0.0810 -0.9517
 9788TIP3   OH250778   5.244   1.523   0.733 -0.0251 -0.4243  0.0174
 9788TIP3    H150779   5.326   1.567   0.756  0.4220 -2.2557  2.2311
 9788TIP3    H250780   5.179   1.561   0.792 -0.5619  0.1776 -0.9286
 9789TIP3   OH250781   3.393   4.786  13.325 -0.6800 -0.7848 -0.2457
 9789TIP3    H150782   3.362   4.867  13.365 -0.6419 -0.8000 -0.1865
 9789TIP3    H250783   3.332   4.719  13.355 -1.4093 -0.5819 -1.2338
 9790TIP3   OH250784   4.468   5.352  13.577  0.2439  0.0838  0.7363
 9790TIP3    H150785   4.389   5.323  13.622 -0.6104  0.5487 -0.4102
 9790TIP3    H250786   4.497   5.274  13.529 -0.6150  0.4093 -0.3428
 9791TIP3   OH250787   4.153   3.171   4.489 -0.3153 -0.2727 -0.2659
 9791TIP3    H150788   4.152   3.076   4.506  3.4975 -0.3891  0.1755
 9791TIP3    H250789   4.124   3.210   4.571  0.7582 -1.0585  0.5081
 9792TIP3   OH250790   6.056   5.268  13.371 -0.4033 -0.3023  0.2156
 9792TIP3    H150791   6.074   5.348  13.322 -0.8971 -0.0335  0.4676
 9792TIP3    H250792   6.056   5.296  13.463 -1.0593 -0.4950  0.2770
 9793TIP3   OH250793   5.895   4.814  14.935  0.0788 -0.8007  0.0763
 9793TIP3    H150794   5.986   4.796  14.914  0.1853 -2.3750  1.6277
 9793TIP3    H250795   5.846   4.745  14.889 -0.2195 -0.6449  0.1585
 9794TIP3   OH250796   5.525   3.795   3.475  0.0077 -0.5872  0.0465
 9794TIP3    H150797   5.558   3.777   3.563 -0.2780 -0.7474  0.1227
 9794TIP3    H250798   5.512   3.708   3.436  0.1632 -0.5168 -0.1655
 9795TIP3   OH250799   2.734   4.462  15.112 -0.0230  0.7765  0.1675
 9795TIP3    H150800   2.752   4.554  15.091 -1.0394  1.3635  1.6759
 9795TIP3    H250801   2.650   4.444  15.070  1.3816 -0.3541 -2.4072
 9796TIP3   OH250802   2.858   3.029  10.663  0.4755 -0.6875  0.2996
 9796TIP3    H150803   2.820   3.086  10.596  1.2004 -1.3068 -0.6515
 9796TIP3    H250804   2.944   3.066  10.681 -0.4767  0.7355  2.4856
 9797TIP3   OH250805   4.541   5.626   0.749 -0.3271 -0.4729  0.3451
 9797TIP3    H150806   4.610   5.563   0.732  0.8306  0.5264  1.1530
 9797TIP3    H250807   4.585   5.699   0.792 -1.5706  0.9782 -0.7100
 9798TIP3   OH250808   6.318   6.534  11.163 -0.1674  0.1805 -0.9835
 9798TIP3    H150809   6.302   6.463  11.101  0.1174 -0.6112 -0.1654
 9798TIP3    H250810   6.373   6.596  11.114 -0.2096 -0.2808 -1.6264
 9799TIP3   OH250811   6.562   3.116  10.758  0.1088  0.0947  0.6645
 9799TIP3    H150812   6.549   3.069  10.840  0.1547  0.2157  0.7406
 9799TIP3    H250813   6.644   3.081  10.723 -1.0798 -1.6986 -0.5067
 9800TIP3   OH250814   3.870   1.479  11.938 -0.5473  0.2517 -0.2655
 9800TIP3    H150815   3.806   1.517  11.999 -2.0890  0.6039 -2.0168
 9800TIP3    H250816   3.937   1.548  11.928 -1.4413  1.0860 -0.6534
 9801TIP3   OH250817   0.009   4.046   1.148 -0.8038  0.2418  0.5263
 9801TIP3    H150818   0.048   3.971   1.104 -0.7159 -0.4169  1.6949
 9801TIP3    H250819  -0.025   4.100   1.077  0.0010 -0.4086 -0.3817
 9802TIP3   OH250820   6.064   3.117   5.311  0.1815 -0.1395  0.0504
 9802TIP3    H150821   6.157   3.139   5.314  0.1304  0.2020 -0.7174
 9802TIP3    H250822   6.044   3.109   5.217 -1.0106  1.7256  0.0899
 9803TIP3   OH250823   3.071   5.094  15.720 -0.7107 -0.2039 -0.1193
 9803TIP3    H150824   3.005   5.131  15.778 -1.3155  1.8389 -1.9684
 9803TIP3    H250825   3.096   5.166  15.662  4.0082 -0.5036  1.0925
 9804TIP3   OH250826   6.038   1.111   2.722 -0.4721 -0.2046 -0.7127
 9804TIP3    H150827   6.041   1.037   2.661  0.4361 -0.4717 -0.3625
 9804TIP3    H250828   6.005   1.074   2.804 -0.1940 -0.1861 -0.5913
 9805TIP3   OH250829   4.522   3.528  13.743  0.6608  0.1099 -0.1621
 9805TIP3    H150830   4.468   3.518  13.665  0.5258  1.8854 -0.3421
 9805TIP3    H250831   4.608   3.553  13.709  0.5243  1.1764  0.2437
 9806TIP3   OH250832   3.884   1.951  14.934 -0.3899 -1.5459 -0.1944
 9806TIP3    H150833   3.843   2.010  14.997 -0.0919 -2.6424  1.0638
 9806TIP3    H250834   3.847   1.977  14.849  0.5801  1.1594  0.1420
 9807TIP3   OH250835   1.541   5.316   4.993  0.1808  0.4522 -0.4770
 9807TIP3    H150836   1.447   5.327   5.009  0.0411  0.0966 -1.0064
 9807TIP3    H250837   1.552   5.221   4.984  0.4366  0.5485 -1.2896
 9808TIP3   OH250838   4.859   1.073   4.835  0.4168  0.0333  0.4460
 9808TIP3    H150839   4.851   1.018   4.913 -1.7383 -1.4364 -0.7239
 9808TIP3    H250840   4.867   1.012   4.762 -0.6292  1.2789 -0.7754
 9809TIP3   OH250841   0.451   6.450  12.512  0.2353  0.1965  0.3105
 9809TIP3    H150842   0.425   6.421  12.424  0.3719 -0.8365  0.5880
 9809TIP3    H250843   0.492   6.535  12.499  0.3132  0.0210 -0.6345
 9810TIP3   OH250844   2.962   4.630  14.201  0.2620  0.3484 -0.0692
 9810TIP3    H150845   2.975   4.706  14.145  2.0703 -0.4469 -0.8044
 9810TIP3    H250846   3.026   4.640  14.271 -1.1359  0.6958  1.2053
 9811TIP3   OH250847   6.078   6.205  11.690  0.4264 -0.2274  0.1208
 9811TIP3    H150848   6.010   6.145  11.721 -0.2290  1.8520  3.1950
 9811TIP3    H250849   6.035   6.255  11.620  0.1478 -1.5249 -0.6725
 9812TIP3   OH250850   0.623   1.589  13.155 -0.0950 -0.2287 -0.4701
 9812TIP3    H150851   0.570   1.601  13.077  0.0204 -0.2841 -0.5575
 9812TIP3    H250852   0.708   1.558  13.122 -1.1332 -3.9007 -0.1355
 9813TIP3   OH250853   5.380   0.071  16.893 -0.1790 -0.1704  0.0110
 9813TIP3    H150854   5.461   0.021  16.881 -0.2487  0.1526 -2.2996
 9813TIP3    H250855   5.339   0.070  16.806 -1.1888  2.1342  0.3933
 9814TIP3   OH250856   1.531   2.928  15.845 -0.0440  0.3289  0.1675
 9814TIP3    H150857   1.476   2.972  15.910  1.4558  1.8632  0.4796
 9814TIP3    H250858   1.484   2.939  15.763 -0.1110  1.8617  0.3811
 9815TIP3   OH250859   0.166   2.252   3.682 -0.0272  0.4334  0.2061
 9815TIP3    H150860   0.248   2.212   3.653 -0.2676  0.3541 -0.3851
 9815TIP3    H250861   0.097   2.195   3.648 -0.3614  1.0989 -0.2642
 9816TIP3   OH250862   5.063   3.876   3.771  0.2055  0.4181  0.3153
 9816TIP3    H150863   4.977   3.918   3.786 -0.1428 -0.3459  0.5082
 9816TIP3    H250864   5.113   3.941   3.722 -0.6192  0.7251 -0.1425
 9817TIP3   OH250865   4.782   4.447  14.503  0.1314 -0.0347 -0.1506
 9817TIP3    H150866   4.839   4.522  14.518 -0.4712  0.5236 -0.5575
 9817TIP3    H250867   4.841   4.372  14.500  0.8495  0.5327 -0.6442
 9818TIP3   OH250868   1.528   3.236  16.330 -0.4764  0.0387 -0.4462
 9818TIP3    H150869   1.450   3.188  16.357 -0.2677  0.0200  0.1470
 9818TIP3    H250870   1.581   3.172  16.283  0.4941 -0.7622  1.6392
 9819TIP3   OH250871   4.628   1.337   0.814 -0.2053  0.1128 -0.3183
 9819TIP3    H150872   4.632   1.329   0.718 -0.8180  2.2435 -0.5740
 9819TIP3    H250873   4.535   1.349   0.833 -0.3177 -2.0388  0.7749
 9820TIP3   OH250874   2.249   5.991   6.201 -0.1211  0.8158  0.1715
 9820TIP3    H150875   2.311   6.063   6.217  1.4435 -0.1255 -1.3409
 9820TIP3    H250876   2.275   5.922   6.261 -0.6258  0.9375  0.5334
 9821TIP3   OH250877   5.736   6.481  12.671 -0.0811  0.3016  0.2419
 9821TIP3    H150878   5.692   6.502  12.588 -0.3559 -0.5995  0.1495
 9821TIP3    H250879   5.751   6.387  12.667  1.0666  0.4516  0.6630
 9822TIP3   OH250880   2.530   4.922  11.677 -0.2854  0.0807 -0.3050
 9822TIP3    H150881   2.479   4.963  11.608 -1.4652 -1.0781 -0.1631
 9822TIP3    H250882   2.466   4.900  11.745  0.2464 -2.0178 -0.4156
 9823TIP3   OH250883   6.182   0.842   1.843 -0.2323  0.3042  0.5429
 9823TIP3    H150884   6.190   0.786   1.921 -2.3324 -0.2881  0.3703
 9823TIP3    H250885   6.196   0.931   1.877 -1.0866  0.0561  1.5998
 9824TIP3   OH250886   1.592   6.154   0.851  0.3981  0.6249 -0.0179
 9824TIP3    H150887   1.523   6.152   0.918  1.6854  1.5281  1.4050
 9824TIP3    H250888   1.620   6.063   0.841  0.9064  0.5972  1.4749
 9825TIP3   OH250889   4.401   0.623  14.007 -0.3578  0.0402 -0.1689
 9825TIP3    H150890   4.374   0.691  13.944 -1.4339  0.0403  0.2747
 9825TIP3    H250891   4.491   0.647  14.030 -0.8598  1.6163  0.3278
 9826TIP3   OH250892   4.510   0.355   5.061  0.2918 -0.1724 -0.4294
 9826TIP3    H150893   4.454   0.302   5.004 -0.1829 -1.1315  0.8760
 9826TIP3    H250894   4.450   0.390   5.127  1.1200 -0.7688  0.6649
 9827TIP3   OH250895   1.823   2.928  14.631 -0.5820 -0.1487  0.0855
 9827TIP3    H150896   1.867   2.878  14.561  0.6683 -0.5053  1.0882
 9827TIP3    H250897   1.853   2.887  14.712 -0.3141  1.6069  0.9191
 9828TIP3   OH250898   2.471   3.443  15.221 -0.0426  0.2560 -0.0378
 9828TIP3    H150899   2.566   3.443  15.228 -0.1132  1.1836  1.2101
 9828TIP3    H250900   2.442   3.370  15.276 -0.0426 -0.2569 -0.7114
 9829TIP3   OH250901   6.635   1.689  15.186 -0.7703  1.2217 -0.0972
 9829TIP3    H150902   6.572   1.717  15.252  1.5566  3.2539  1.4469
 9829TIP3    H250903   6.612   1.739  15.108 -2.1142  0.5590 -0.1607
 9830TIP3   OH250904   3.509   5.442   4.300 -0.1273  0.1464 -0.0355
 9830TIP3    H150905   3.559   5.523   4.289  0.9975 -0.4893  0.1796
 9830TIP3    H250906   3.505   5.429   4.395 -1.1024  0.4248 -0.0355
 9831TIP3   OH250907   2.659   1.512   0.242  0.6898 -0.0477  0.0019
 9831TIP3    H150908   2.570   1.546   0.236  0.0797 -1.2317  1.6266
 9831TIP3    H250909   2.706   1.555   0.170 -1.6330 -0.7927 -2.1178
 9832TIP3   OH250910   6.073   1.817   4.007  0.6386 -0.0255 -0.1829
 9832TIP3    H150911   6.144   1.778   3.955 -0.3040  0.4013 -1.8737
 9832TIP3    H250912   6.093   1.793   4.097  2.2426 -0.9896 -0.7563
 9833TIP3   OH250913   3.736   0.905   1.631 -0.2555 -0.4337  0.3777
 9833TIP3    H150914   3.694   0.822   1.651 -0.6414 -0.5159 -0.7239
 9833TIP3    H250915   3.671   0.953   1.580  0.8454 -0.4281 -1.0648
 9834TIP3   OH250916   0.098   4.577  14.764  0.3491  0.0627 -0.9230
 9834TIP3    H150917   0.179   4.623  14.787 -0.0753  0.1594  0.4898
 9834TIP3    H250918   0.129   4.495  14.725  1.1080  0.8975 -2.1475
 9835TIP3   OH250919   2.638   1.371  14.452 -0.3716  0.0262  0.1968
 9835TIP3    H150920   2.570   1.335  14.509  1.4281 -1.1141  1.7830
 9835TIP3    H250921   2.684   1.294  14.418 -0.2950  0.7455 -1.4229
 9836TIP3   OH250922   2.268   6.409  11.024 -0.2020  0.1293  0.0806
 9836TIP3    H150923   2.234   6.401  10.935  0.0681 -0.1550  0.0023
 9836TIP3    H250924   2.362   6.396  11.015 -0.2784 -0.8815  0.5305
 9837TIP3   OH250925   0.079   4.342   5.336 -0.8336 -0.5109  0.6449
 9837TIP3    H150926   0.089   4.310   5.246  1.3622 -0.9835  1.0074
 9837TIP3    H250927   0.038   4.428   5.326 -1.7310 -1.0633 -0.7149
 9838TIP3   OH250928   4.394   5.215   0.166 -0.4358 -0.0579 -0.1690
 9838TIP3    H150929   4.329   5.163   0.213  1.1331 -2.3353 -0.3304
 9838TIP3    H250930   4.478   5.187   0.203  0.5805  1.1632 -1.4471
 9839TIP3   OH250931   4.583   1.319   5.117 -0.1699  0.3182 -0.3727
 9839TIP3    H150932   4.576   1.370   5.036  1.2101  1.1203 -0.0255
 9839TIP3    H250933   4.678   1.307   5.128 -0.4213 -1.7044 -0.0501
 9840TIP3   OH250934   1.552   3.688  15.651 -0.0835  0.9289  0.4973
 9840TIP3    H150935   1.537   3.774  15.611  0.0883  0.4516 -0.6432
 9840TIP3    H250936   1.503   3.628  15.596  1.3164  0.0649  0.1332
 9841TIP3   OH250937   0.108   5.671   1.962  0.1980  0.4911  0.1330
 9841TIP3    H150938   0.070   5.727   2.030  1.4895  0.4919  0.8774
 9841TIP3    H250939   0.097   5.582   1.997 -0.8732  0.3400 -0.5541
 9842TIP3   OH250940   5.787   0.662  11.384  0.4028 -0.4986 -0.1722
 9842TIP3    H150941   5.784   0.587  11.325  0.8604 -0.8669  0.2686
 9842TIP3    H250942   5.868   0.650  11.435 -0.9429 -1.2379  1.9074
 9843TIP3   OH250943   1.245   6.663   2.052  0.5269  0.0625 -0.2124
 9843TIP3    H150944   1.315   6.609   2.014 -0.6886 -0.2875 -2.0605
 9843TIP3    H250945   1.291   6.734   2.096  2.1611 -2.0025  1.6655
 9844TIP3   OH250946   4.402   0.027  13.578 -0.4462  0.5410  0.1601
 9844TIP3    H150947   4.492   0.044  13.550  0.7585 -3.3952  1.0649
 9844TIP3    H250948   4.350   0.043  13.499  1.5370 -0.5313 -1.4824
 9845TIP3   OH250949   4.069   4.696   3.269 -0.1952 -0.0283  0.2263
 9845TIP3    H150950   4.030   4.660   3.349  0.8354 -0.5426  0.5034
 9845TIP3    H250951   4.124   4.625   3.235  1.0970  0.9389  0.2505
 9846TIP3   OH250952   2.450   3.334   1.808 -0.0041  0.2781  0.4101
 9846TIP3    H150953   2.437   3.422   1.843 -0.9802  0.0502  0.6576
 9846TIP3    H250954   2.367   3.313   1.765  0.7595  0.0849 -1.0255
 9847TIP3   OH250955   2.983   2.933  13.602  0.5155 -0.3792 -0.3378
 9847TIP3    H150956   2.968   2.974  13.517 -0.3895 -1.5822 -0.7897
 9847TIP3    H250957   3.053   2.870  13.587 -0.4003 -1.3861 -0.4839
 9848TIP3   OH250958   2.253   6.261   3.522  0.8033 -0.0979 -0.2147
 9848TIP3    H150959   2.292   6.289   3.440  0.1431  0.7384 -0.2646
 9848TIP3    H250960   2.299   6.312   3.589  2.0254 -1.4949  0.0548
 9849TIP3   OH250961   2.990   1.498  14.280  0.1476  0.3375  0.0122
 9849TIP3    H150962   3.019   1.432  14.343 -0.8848  1.4580  1.7578
 9849TIP3    H250963   2.900   1.472  14.258  1.1250 -1.1467 -2.6209
 9850TIP3   OH250964   6.517   4.570  15.647  0.3701 -0.0224  0.4319
 9850TIP3    H150965   6.456   4.525  15.590 -1.1289  2.6402 -0.2540
 9850TIP3    H250966   6.595   4.583  15.593 -0.4016  0.9813 -0.4760
 9851TIP3   OH250967   0.747   4.418   3.604 -0.1845 -0.3433  0.9472
 9851TIP3    H150968   0.659   4.444   3.575 -0.4458 -2.0854 -0.0018
 9851TIP3    H250969   0.740   4.411   3.699 -0.7420  0.6504  0.9917
 9852TIP3   OH250970   6.801   5.694  12.234 -0.2179 -0.0662  0.1478
 9852TIP3    H150971   6.775   5.669  12.146  0.3781  2.4535 -0.8457
 9852TIP3    H250972   6.751   5.774  12.252  1.4964  0.8623  1.0454
 9853TIP3   OH250973   3.422   4.385  13.638  0.2248 -0.1997 -0.4863
 9853TIP3    H150974   3.343   4.401  13.587 -0.7749  1.2416  1.3823
 9853TIP3    H250975   3.460   4.472  13.652  1.5079 -0.7507 -0.3467
 9854TIP3   OH250976   0.571   5.980  16.085  0.1833 -0.2353 -0.4364
 9854TIP3    H150977   0.664   5.992  16.101  0.3513 -2.1828  0.1965
 9854TIP3    H250978   0.529   6.003  16.168  0.1419  0.0276 -0.5283
 9855TIP3   OH250979   3.082   4.593   1.082 -0.3848  0.3299  0.6322
 9855TIP3    H150980   3.164   4.546   1.070  0.2144  0.3003  3.8747
 9855TIP3    H250981   3.053   4.615   0.993  2.1625 -1.2381 -0.6955
 9856TIP3   OH250982   4.384   2.481   0.550 -0.2042  0.1093  0.2979
 9856TIP3    H150983   4.422   2.458   0.634 -0.3318 -0.4567  0.2005
 9856TIP3    H250984   4.290   2.488   0.567 -0.1894  0.3620  0.2832
 9857TIP3   OH250985   2.541   0.455  13.354  0.5887 -0.0252 -0.1379
 9857TIP3    H150986   2.563   0.544  13.383 -0.8552  0.3097 -0.0099
 9857TIP3    H250987   2.626   0.411  13.348  1.1186 -0.3509  5.1909
 9858TIP3   OH250988   6.406   3.072  16.896 -0.2658  0.1877 -0.1137
 9858TIP3    H150989   6.350   3.128  16.951 -0.3292 -0.8818  0.9637
 9858TIP3    H250990   6.495   3.104  16.912 -0.3671  0.4815 -0.1256
 9859TIP3   OH250991   5.884   2.384  15.135  0.2271 -0.3909 -0.4570
 9859TIP3    H150992   5.971   2.345  15.133  0.3092 -0.2040 -0.4523
 9859TIP3    H250993   5.898   2.477  15.120  0.1290 -0.1923  0.6132
 9860TIP3   OH250994   5.976   2.038   0.396  1.3591  0.5574  0.2820
 9860TIP3    H150995   6.032   2.114   0.413 -0.7400  2.7311 -1.7596
 9860TIP3    H250996   6.006   2.006   0.310  0.4915  0.8209 -0.1307
 9861TIP3   OH250997   1.472   6.141  12.060  0.0120  0.1662 -0.6385
 9861TIP3    H150998   1.458   6.148  11.966  1.2719 -0.3371 -0.8830
 9861TIP3    H250999   1.564   6.119  12.069 -0.2041 -0.2971  0.6999
 9862TIP3   OH251000   1.087   6.683   6.477  0.4383 -0.3593 -0.2994
 9862TIP3    H151001   1.060   6.625   6.549  0.4387  1.4021  1.1876
 9862TIP3    H251002   1.173   6.650   6.450  0.7531 -0.6259  0.9817
 9863TIP3   OH251003   0.514   4.819   1.944 -0.4092  0.5152 -0.0464
 9863TIP3    H151004   0.495   4.912   1.954  1.4818  1.1694 -1.8562
 9863TIP3    H251005   0.477   4.795   1.859 -4.0186 -1.4012  1.8174
 9864TIP3   OH251006   5.103   4.525   1.118 -0.1387 -0.4760 -0.0145
 9864TIP3    H151007   5.082   4.509   1.026 -3.5906  0.8870  0.3952
 9864TIP3    H251008   5.050   4.461   1.166 -4.2312  3.3012  1.1186
 9865TIP3   OH251009   1.080   2.218   3.839 -0.2179 -0.0571 -0.4112
 9865TIP3    H151010   1.113   2.244   3.753  1.1814  1.2237  0.4499
 9865TIP3    H251011   1.101   2.124   3.845 -0.3646 -0.1720 -1.4635
 9866TIP3   OH251012   5.711   4.657   4.477  0.4215  0.4161  0.2064
 9866TIP3    H151013   5.690   4.578   4.526  0.1378  0.6853  0.5225
 9866TIP3    H251014   5.652   4.724   4.512  0.7049  0.7853 -0.0124
 9867TIP3   OH251015   1.683   3.033   3.101  0.4856 -0.0618 -0.2079
 9867TIP3    H151016   1.765   3.082   3.101 -0.6062  1.9967  1.8179
 9867TIP3    H251017   1.696   2.964   3.166  0.6703  0.1421 -0.0284
 9868TIP3   OH251018   6.400   5.406  12.848  0.1182 -0.3035 -0.3931
 9868TIP3    H151019   6.451   5.422  12.927  0.1504 -0.7998 -0.3074
 9868TIP3    H251020   6.461   5.419  12.776  0.0774  0.1935 -0.3387
 9869TIP3   OH251021   6.148   4.470   0.442 -0.2348  0.1278  0.2321
 9869TIP3    H151022   6.229   4.522   0.438  0.4957 -0.8390  1.5070
 9869TIP3    H251023   6.178   4.380   0.433 -1.5981 -0.1060 -3.2731
 9870TIP3   OH251024   4.725   3.457   4.185  1.0350  0.0885  0.2917
 9870TIP3    H151025   4.726   3.549   4.210 -1.8076 -0.1494  1.7687
 9870TIP3    H251026   4.688   3.456   4.097  2.0506  0.4158 -0.1382
 9871TIP3   OH251027   4.023   2.744  12.041 -0.4628  0.2417 -0.4762
 9871TIP3    H151028   4.042   2.834  12.014 -0.8827  0.3217 -0.5176
 9871TIP3    H251029   4.035   2.744  12.136 -5.1606  1.6620  0.3975
 9872TIP3   OH251030   4.575   1.071   6.242 -0.1974 -0.1339  0.0195
 9872TIP3    H151031   4.660   1.111   6.221 -1.0031  1.5637 -0.2263
 9872TIP3    H251032   4.597   0.992   6.291  1.5228  1.2084  1.5940
 9873TIP3   OH251033   3.962   3.171   6.084  0.7413  0.6655  0.0391
 9873TIP3    H151034   3.954   3.108   6.013  1.1090  1.0351 -0.3410
 9873TIP3    H251035   3.884   3.158   6.137 -0.3511  1.4760 -1.3176
 9874TIP3   OH251036   0.385   3.176   3.589  0.3716  0.2255  0.1722
 9874TIP3    H151037   0.375   3.264   3.625  0.7313  0.2558  0.2070
 9874TIP3    H251038   0.367   3.187   3.495 -0.3105  0.1940  0.2945
 9875TIP3   OH251039   4.081   5.981  11.272 -0.0995  0.4542  0.6012
 9875TIP3    H151040   4.165   5.943  11.295 -0.8289 -0.2123  2.3267
 9875TIP3    H251041   4.046   5.923  11.204  0.8585  0.8051 -0.2138
 9876TIP3   OH251042   2.058   5.566  16.273  0.6450  0.3021  0.0284
 9876TIP3    H151043   2.082   5.510  16.346  0.2696  1.3857  1.0029
 9876TIP3    H251044   2.123   5.636  16.273  0.6141  0.3458 -0.6532
 9877TIP3   OH251045   2.467   1.531  13.577  0.2079  0.4775  0.4061
 9877TIP3    H151046   2.417   1.450  13.568  1.3242 -0.3220  1.1612
 9877TIP3    H251047   2.440   1.567  13.661  1.3215 -0.2803  1.1094
 9878TIP3   OH251048   3.986   1.001  16.323  0.0473  0.0749  0.1350
 9878TIP3    H151049   3.907   1.028  16.370  0.1559 -0.9958  0.9725
 9878TIP3    H251050   3.973   1.034  16.234 -1.9972 -1.2388 -0.1255
 9879TIP3   OH251051   6.214   4.874  14.406 -0.7742  0.0544  0.4593
 9879TIP3    H151052   6.213   4.803  14.470  0.3306 -0.0252  0.4235
 9879TIP3    H251053   6.180   4.950  14.452  0.4921  0.1253  1.3227
 9880TIP3   OH251054   3.723   1.965   4.814  0.0617  0.0165 -0.0783
 9880TIP3    H151055   3.787   2.004   4.755  0.5073 -0.9971 -0.3029
 9880TIP3    H251056   3.650   2.027   4.817  1.1168  1.2920  0.3230
 9881TIP3   OH251057   0.512   4.396   5.343 -0.0432  0.2460 -0.3849
 9881TIP3    H151058   0.522   4.481   5.386 -2.5256  0.8606 -0.8537
 9881TIP3    H251059   0.560   4.405   5.260 -0.6604  1.3953 -0.6449
 9882TIP3   OH251060   5.736   2.319   3.831  0.2221 -0.2205  0.3929
 9882TIP3    H151061   5.650   2.341   3.866 -0.3842 -1.7603 -0.0580
 9882TIP3    H251062   5.742   2.369   3.749 -0.7672 -1.0218 -0.1902
 9883TIP3   OH251063   5.454   1.973  11.074 -0.4205  0.6238 -0.4173
 9883TIP3    H151064   5.513   1.913  11.029 -1.6536 -1.0323  0.0593
 9883TIP3    H251065   5.484   1.971  11.165 -1.8781 -1.2230  0.0932
 9884TIP3   OH251066   2.119   3.467  15.117  0.0555 -0.2926 -0.0711
 9884TIP3    H151067   2.175   3.544  15.116 -2.1222  1.3962  1.0141
 9884TIP3    H251068   2.091   3.458  15.208  0.4375 -2.5686 -0.1008
 9885TIP3   OH251069   3.576   1.860  12.864 -0.1570  0.3333 -0.0475
 9885TIP3    H151070   3.640   1.895  12.926 -0.5129 -0.9473  1.0822
 9885TIP3    H251071   3.500   1.839  12.917 -0.5539 -0.5769 -0.9487
 9886TIP3   OH251072   0.562   6.151   5.834  0.2366  0.3659 -0.6515
 9886TIP3    H151073   0.555   6.150   5.738  0.0971 -2.2167 -0.6760
 9886TIP3    H251074   0.476   6.180   5.864  0.2273  1.0282 -1.2935
 9887TIP3   OH251075   6.731   6.077   1.946 -0.7234 -0.4877 -0.2067
 9887TIP3    H151076   6.791   6.098   1.874  0.5223  0.1854  0.9865
 9887TIP3    H251077   6.761   5.992   1.978 -0.2586 -0.0696  0.5044
 9888TIP3   OH251078   1.431   3.955  12.988 -0.1818  0.5939  0.1066
 9888TIP3    H151079   1.382   3.912  12.918  0.1011 -0.0984  0.3259
 9888TIP3    H251080   1.378   4.031  13.011  0.3203  1.5627 -1.7116
 9889TIP3   OH251081   0.332   2.332   6.478  0.1536 -0.7566 -0.0673
 9889TIP3    H151082   0.239   2.334   6.501 -0.0415  1.2127 -0.8753
 9889TIP3    H251083   0.373   2.389   6.543  0.6557 -0.8160 -0.3322
 9890TIP3   OH251084   1.087   5.275  14.246 -0.3137 -0.0490  0.5441
 9890TIP3    H151085   1.106   5.201  14.304 -1.5933  0.1677  1.2693
 9890TIP3    H251086   1.163   5.333  14.256 -0.0012 -0.5452  1.1358
 9891TIP3   OH251087   5.720   1.054   2.658  0.5858  0.1687  0.6046
 9891TIP3    H151088   5.780   1.109   2.608 -0.4637 -0.0126 -0.9295
 9891TIP3    H251089   5.771   0.975   2.677  1.1176  0.3759  0.0921
 9892TIP3   OH251090   6.653   4.330   4.696 -0.4834  0.7015 -0.4739
 9892TIP3    H151091   6.610   4.394   4.640 -0.2080  2.3583  1.0993
 9892TIP3    H251092   6.583   4.269   4.720 -1.0202  1.0589 -1.0927
 9893TIP3   OH251093   3.506   0.696   4.067 -0.2881  0.4483 -0.6653
 9893TIP3    H151094   3.474   0.778   4.105 -1.3165  0.0798 -0.6970
 9893TIP3    H251095   3.459   0.689   3.984 -2.5751 -1.6390  0.6626
 9894TIP3   OH251096   1.070   3.439   1.033 -0.3508 -0.2554 -0.1602
 9894TIP3    H151097   1.085   3.522   0.987 -0.0279 -0.3172 -0.1701
 9894TIP3    H251098   1.118   3.374   0.982 -0.6082 -0.4526 -0.1551
 9895TIP3   OH251099   0.946   5.829   5.241  0.1915  0.0394 -0.8251
 9895TIP3    H151100   0.862   5.805   5.281 -0.1608 -1.0542 -2.1353
 9895TIP3    H251101   0.951   5.924   5.252 -1.0787  0.0889 -0.4619
 9896TIP3   OH251102   1.549   5.993   1.612 -0.4036  0.3654  0.0248
 9896TIP3    H151103   1.504   5.986   1.528  0.5392 -0.1581 -0.4621
 9896TIP3    H251104   1.532   5.910   1.656  2.5605 -1.2033 -1.4909
 9897TIP3   OH251105   5.071   4.179   1.581 -0.8270  0.1242  0.1877
 9897TIP3    H151106   5.026   4.116   1.526 -0.1966  0.2042 -0.4278
 9897TIP3    H251107   5.091   4.131   1.662  0.8361 -0.8957 -0.7761
 9898TIP3   OH251108   2.150   1.359  14.333 -0.1513 -0.1563 -0.5002
 9898TIP3    H151109   2.158   1.405  14.249 -2.1038 -0.2252 -0.7782
 9898TIP3    H251110   2.056   1.349  14.345  0.1002 -4.3015 -0.5447
 9899TIP3   OH251111   0.947   3.653  12.811 -0.1014 -0.2697  0.1945
 9899TIP3    H151112   0.919   3.694  12.729  0.5305  0.6015  0.4062
 9899TIP3    H251113   0.911   3.710  12.880 -1.5810 -1.5821  0.5892
 9900TIP3   OH251114   1.595   4.265  11.789 -0.0520  0.3965 -0.4147
 9900TIP3    H151115   1.630   4.216  11.864 -0.5841 -0.3883 -0.6682
 9900TIP3    H251116   1.657   4.337  11.777  0.9283 -0.3941 -0.2234
 9901TIP3   OH251117   0.919   4.188  13.406  0.3882 -0.0846 -0.8315
 9901TIP3    H151118   0.885   4.276  13.395  2.1709  0.4273 -3.0760
 9901TIP3    H251119   0.842   4.133  13.418 -0.7711  1.7061  0.3594
 9902TIP3   OH251120   1.295   2.628   1.690 -0.0167 -0.4214 -0.0210
 9902TIP3    H151121   1.218   2.575   1.675  0.2055 -1.0422  0.9798
 9902TIP3    H251122   1.279   2.672   1.774  0.5265 -0.2306 -0.0109
 9903TIP3   OH251123   5.623   1.330  16.328  0.9676  0.0609 -0.2912
 9903TIP3    H151124   5.657   1.395  16.390  1.2182  0.0652 -0.4330
 9903TIP3    H251125   5.698   1.307  16.274  1.0482 -0.8419  0.1849
 9904TIP3   OH251126   3.099   5.879   3.606 -0.8054  0.2557 -0.5138
 9904TIP3    H151127   3.115   5.972   3.624 -1.5242  0.4133 -0.6681
 9904TIP3    H251128   3.021   5.857   3.657 -0.2419 -0.4410  0.0554
 9905TIP3   OH251129   3.081   4.847  14.936  0.7699  0.0217 -0.2003
 9905TIP3    H151130   3.019   4.889  14.996  0.2933 -0.6342 -0.2267
 9905TIP3    H251131   3.048   4.868  14.849  0.8946  0.1279 -0.2223
 9906TIP3   OH251132   3.440   0.812   0.810  0.1478 -0.1538 -0.2363
 9906TIP3    H151133   3.380   0.753   0.765  0.8405 -1.2435  0.2249
 9906TIP3    H251134   3.398   0.897   0.806 -1.7555 -1.0020  0.6671
 9907TIP3   OH251135   5.980   5.528  14.761 -0.0894 -0.3155  0.2004
 9907TIP3    H151136   6.030   5.566  14.689 -1.3620  0.8120 -0.1299
 9907TIP3    H251137   5.957   5.602  14.816 -0.3126 -0.9873  1.0221
 9908TIP3   OH251138   6.406   4.096  14.278  0.2874 -0.1467 -0.4583
 9908TIP3    H151139   6.502   4.102  14.272  0.5435 -1.6988  1.1057
 9908TIP3    H251140   6.385   4.142  14.360 -0.6992  2.7179 -2.1827
 9909TIP3   OH251141   0.113   6.253   2.193  0.7627  0.0992  0.0771
 9909TIP3    H151142   0.129   6.174   2.245  0.1691 -0.1788 -0.1558
 9909TIP3    H251143   0.094   6.220   2.105 -0.1656  0.4615  0.1352
 9910TIP3   OH251144   6.287   4.828   5.531 -0.5258 -0.3153  0.1421
 9910TIP3    H151145   6.336   4.901   5.493  1.6574 -2.1350 -0.7198
 9910TIP3    H251146   6.200   4.833   5.490  0.0748  0.8876 -1.0477
 9911TIP3   OH251147   0.078   5.270   2.991  0.4922  0.4237 -0.3457
 9911TIP3    H151148   0.006   5.287   2.931  0.8391  0.0582 -0.8705
 9911TIP3    H251149   0.039   5.216   3.060  0.5209 -0.7446 -1.2272
 9912TIP3   OH251150   0.819   4.538   0.746  0.2319 -0.5183 -0.0590
 9912TIP3    H151151   0.826   4.453   0.788  2.7528  0.1358  1.0729
 9912TIP3    H251152   0.877   4.595   0.798 -1.4766  1.9364 -0.6571
 9913TIP3   OH251153   5.010   2.777  13.502 -0.3457 -0.3319  0.0507
 9913TIP3    H151154   4.937   2.725  13.470 -0.2115 -0.6030  0.1812
 9913TIP3    H251155   5.040   2.731  13.580  0.0838 -0.3288 -0.1068
 9914TIP3   OH251156   6.117   4.900   0.057 -1.0375  0.3924  0.2867
 9914TIP3    H151157   6.045   4.942   0.104 -0.4422 -0.7725  2.3732
 9914TIP3    H251158   6.074   4.838  -0.001 -1.7808  1.2689 -0.1211
 9915TIP3   OH251159   6.020   1.843  16.851 -0.2312  0.6458  0.5212
 9915TIP3    H151160   6.066   1.759  16.846  1.0114  1.2967  0.4696
 9915TIP3    H251161   5.934   1.822  16.887 -0.2442 -0.7530 -0.2776
 9916TIP3   OH251162   2.745   3.700   3.002  0.4328 -0.4644  0.2543
 9916TIP3    H151163   2.706   3.765   3.060 -0.0005  1.3113 -1.9174
 9916TIP3    H251164   2.831   3.682   3.040 -0.0891  0.1404  1.7774
 9917TIP3   OH251165   3.978   0.331   4.353 -0.5466 -0.4380 -0.2369
 9917TIP3    H151166   3.970   0.239   4.382  0.2728 -1.1573 -2.1578
 9917TIP3    H251167   4.070   0.352   4.364 -0.7004  0.1108  0.0285
 9918TIP3   OH251168   0.807   1.471   0.636  0.0804 -0.1823 -0.3015
 9918TIP3    H151169   0.877   1.524   0.597  2.6620 -2.0956  1.3561
 9918TIP3    H251170   0.823   1.383   0.603 -1.3252 -0.7489  0.4483
 9919TIP3   OH251171   4.415   5.418  15.662 -0.0664  0.2408 -0.7090
 9919TIP3    H151172   4.347   5.458  15.716  0.8823  1.3766 -0.3224
 9919TIP3    H251173   4.387   5.326  15.654 -0.7622  0.2697  0.8767
 9920TIP3   OH251174   3.428   6.735  15.737  0.0911  0.7341 -0.0874
 9920TIP3    H151175   3.426   6.642  15.716 -1.9115  0.6957  0.1211
 9920TIP3    H251176   3.378   6.743  15.818 -0.3039  2.0595 -0.4316
 9921TIP3   OH251177   0.618   6.261  15.208  0.4449  0.4308  0.0504
 9921TIP3    H151178   0.668   6.287  15.131 -0.0789  0.7995 -0.1723
 9921TIP3    H251179   0.675   6.283  15.282  0.5685  0.9615 -0.1941
 9922TIP3   OH251180   3.408   0.560   4.422 -0.3576  0.6072  0.0456
 9922TIP3    H151181   3.485   0.572   4.366  0.7011  1.6597  1.6546
 9922TIP3    H251182   3.337   0.542   4.361  1.2492 -1.0767 -1.4681
 9923TIP3   OH251183   0.140   3.069  13.208  0.0448 -0.0213 -0.4798
 9923TIP3    H151184   0.104   2.984  13.183 -0.2759  0.2163 -0.8527
 9923TIP3    H251185   0.089   3.132  13.156  0.6033  0.3640 -0.5663
 9924TIP3   OH251186   0.454   0.278   0.542  0.1905  0.2210  0.0806
 9924TIP3    H151187   0.371   0.258   0.499  1.0380  1.0181 -2.0667
 9924TIP3    H251188   0.443   0.368   0.574 -0.1692 -0.1035  0.9090
 9925TIP3   OH251189   3.145   2.929  16.067  0.3452 -0.3468 -0.1224
 9925TIP3    H151190   3.236   2.912  16.044  1.3378  1.7460  1.7881
 9925TIP3    H251191   3.137   3.025  16.063 -1.0886 -0.3085  1.9906
 9926TIP3   OH251192   4.355   6.422  16.617  0.2697  0.4667  0.8349
 9926TIP3    H151193   4.348   6.414  16.522 -2.6269  2.4677  0.7498
 9926TIP3    H251194   4.294   6.356  16.651 -0.4995  1.3174  1.1605
 9927TIP3   OH251195   1.100   1.631   4.742  0.0431 -0.2168 -0.3880
 9927TIP3    H151196   1.143   1.716   4.755  0.6508 -0.4703 -0.7293
 9927TIP3    H251197   1.153   1.569   4.791  1.1526 -0.8339 -2.2741
 9928TIP3   OH251198   0.565   6.214  16.876  0.6877  0.1744  0.2929
 9928TIP3    H151199   0.489   6.185  16.826  0.6461  1.2708 -0.3061
 9928TIP3    H251200   0.566   6.156  16.952 -0.4040 -0.2376  0.0239
 9929TIP3   OH251201   4.430   4.596   4.713  0.2870 -0.0657 -0.3205
 9929TIP3    H151202   4.375   4.524   4.743 -0.3561  0.4695 -0.1911
 9929TIP3    H251203   4.369   4.658   4.673  0.5942  1.2165  1.1108
 9930TIP3   OH251204   0.147   2.513  16.595 -0.2090  0.0081  0.0315
 9930TIP3    H151205   0.060   2.507  16.634 -1.1405  2.1074 -1.5710
 9930TIP3    H251206   0.147   2.446  16.526 -0.1076 -0.7813  0.7854
 9931TIP3   OH251207   4.311   6.564   1.271  0.5524  0.2265 -0.7925
 9931TIP3    H151208   4.323   6.651   1.309  0.8014 -0.4720  0.8061
 9931TIP3    H251209   4.393   6.518   1.287  0.4840 -0.2794 -1.7621
 9932TIP3   OH251210   1.267   2.044   5.024 -0.1174 -0.0350 -0.0534
 9932TIP3    H151211   1.323   2.107   5.068  0.1474  0.4349 -1.0585
 9932TIP3    H251212   1.188   2.041   5.078 -0.5300  1.8739 -0.4981
 9933TIP3   OH251213   5.475   6.253   5.630 -0.2112 -0.2611  0.6161
 9933TIP3    H151214   5.410   6.284   5.568 -0.0810  0.2530  0.7323
 9933TIP3    H251215   5.473   6.317   5.701 -1.2763 -1.5087  1.7772
 9934TIP3   OH251216   2.688   5.444   1.957 -0.4607  0.8305 -0.0685
 9934TIP3    H151217   2.747   5.473   2.027 -1.4117  1.0396  0.6567
 9934TIP3    H251218   2.742   5.385   1.903  0.6749  1.7235  0.0488
 9935TIP3   OH251219   4.658   5.319  15.629  0.0201 -0.8862  0.2560
 9935TIP3    H151220   4.579   5.360  15.664  0.3156 -0.9437  1.0263
 9935TIP3    H251221   4.651   5.227  15.655  0.4465 -0.8422  0.5398
 9936TIP3   OH251222   4.765   4.154   2.032  0.0119  0.1399 -0.3048
 9936TIP3    H151223   4.747   4.086   1.967  2.8750  2.4081 -3.8800
 9936TIP3    H251224   4.700   4.222   2.014 -0.6999 -0.1988  0.9179
 9937TIP3   OH251225   5.155   5.067   2.039  0.4280 -0.4430 -0.2066
 9937TIP3    H151226   5.237   5.026   2.009 -1.4181 -2.7039 -2.6740
 9937TIP3    H251227   5.126   5.011   2.111  1.2687  0.7019  1.0628
 9938TIP3   OH251228   3.688   3.001  15.822 -0.1371 -0.6995  0.1423
 9938TIP3    H151229   3.762   2.950  15.789 -0.7531 -0.3894 -1.8701
 9938TIP3    H251230   3.726   3.085  15.847  0.4800 -1.2421  1.1057
 9939TIP3   OH251231   2.808   1.210  16.706  0.3904 -0.3568 -0.1212
 9939TIP3    H151232   2.755   1.287  16.726 -0.3573 -1.5645  3.2276
 9939TIP3    H251233   2.744   1.138  16.700  1.3050 -1.2222  0.2048
 9940TIP3   OH251234   2.768   0.065  14.081 -0.1628  0.2889  0.4888
 9940TIP3    H151235   2.711   0.115  14.139  0.9059  1.3400  0.6686
 9940TIP3    H251236   2.728   0.072  13.995 -1.8349 -1.3898  1.0652
 9941TIP3   OH251237   5.685   2.179   0.470 -0.1260  0.7251  0.2889
 9941TIP3    H151238   5.598   2.167   0.507 -0.4798  1.1311 -0.3949
 9941TIP3    H251239   5.704   2.097   0.424 -1.3013  1.5915 -1.8663
 9942TIP3   OH251240   6.110   5.538   5.464 -0.0637  0.5811  0.0886
 9942TIP3    H151241   6.038   5.530   5.401 -1.0878 -1.3641  1.4140
 9942TIP3    H251242   6.077   5.599   5.530 -0.0698  0.5002  0.1593
 9943TIP3   OH251243   0.836   1.769   5.684  0.4969 -0.1495 -0.1646
 9943TIP3    H151244   0.799   1.745   5.768 -2.0643  0.6818 -0.9729
 9943TIP3    H251245   0.791   1.714   5.620  1.8370 -0.2412 -1.0823
 9944TIP3   OH251246   0.819   2.956  14.969 -0.2953  0.0243 -0.1892
 9944TIP3    H151247   0.877   2.880  14.968 -1.0934 -0.6100 -1.6172
 9944TIP3    H251248   0.740   2.926  15.014 -0.7602 -0.1394 -1.0832
 9945TIP3   OH251249   0.146   3.850  16.070 -0.1771  0.1511 -0.5624
 9945TIP3    H151250   0.220   3.855  16.011 -0.2939  0.3430 -0.6963
 9945TIP3    H251251   0.179   3.883  16.154 -0.2975  0.9176 -0.8100
 9946TIP3   OH251252   6.050   1.911   0.160  0.4616  0.4288  0.2802
 9946TIP3    H151253   6.133   1.878   0.125  0.8388  1.1884  0.4461
 9946TIP3    H251254   5.993   1.834   0.163  0.6443  0.2033 -1.3372
 9947TIP3   OH251255   0.798   0.929  13.462 -0.1319  0.3899  0.0035
 9947TIP3    H151256   0.709   0.920  13.425 -0.2490 -0.2460  0.4381
 9947TIP3    H251257   0.855   0.930  13.385 -0.3699 -1.0022 -0.2215
 9948TIP3   OH251258   2.597   4.724   0.274  0.3934 -0.0105 -0.5838
 9948TIP3    H151259   2.551   4.709   0.191 -0.1435 -1.1895 -0.0963
 9948TIP3    H251260   2.618   4.817   0.273 -1.4683  0.4450 -1.1028
 9949TIP3   OH251261   4.741   5.977   1.118  0.2803  0.3340 -0.2031
 9949TIP3    H151262   4.695   5.950   1.198  2.1574 -0.1589  0.7533
 9949TIP3    H251263   4.735   6.072   1.119  2.1410  0.5218  1.7686
 9950TIP3   OH251264   2.626   3.293   3.199 -0.1873 -0.2961 -0.0165
 9950TIP3    H151265   2.568   3.217   3.204  0.0118 -0.5109 -0.7490
 9950TIP3    H251266   2.714   3.256   3.205 -0.1191  0.0344  1.1528
 9951TIP3   OH251267   5.590   0.073   1.240 -0.3061  0.2822 -0.5728
 9951TIP3    H151268   5.533  -0.004   1.244  0.3728 -0.2078  0.0057
 9951TIP3    H251269   5.617   0.078   1.148  0.2824 -0.6597 -0.4654
 9952TIP3   OH251270   6.330   1.282  13.962  0.1330 -0.4243 -0.6962
 9952TIP3    H151271   6.353   1.337  14.036 -0.1180 -0.1266 -0.8337
 9952TIP3    H251272   6.257   1.328  13.920 -1.1143 -1.6241  0.0679
 9953TIP3   OH251273   3.228   0.576   6.403  0.5343 -0.2420 -0.7915
 9953TIP3    H151274   3.172   0.650   6.424 -0.5977 -1.1415 -0.5910
 9953TIP3    H251275   3.242   0.584   6.308 -3.4665 -2.3032 -1.7669
 9954TIP3   OH251276   6.318   0.947  15.597 -0.3142  0.0830  0.4419
 9954TIP3    H151277   6.373   1.023  15.613  1.4826 -0.5905 -1.8529
 9954TIP3    H251278   6.246   0.980  15.543 -0.9088  0.5394  1.4807
 9955TIP3   OH251279   1.265   3.139  16.177 -0.0667  0.0845  0.0424
 9955TIP3    H151280   1.267   3.098  16.263  0.5370  1.2429  0.6036
 9955TIP3    H251281   1.176   3.172  16.168  0.0040  0.3948  0.4441
 9956TIP3   OH251282   5.642   2.423  11.960 -0.0014 -0.2388  0.0684
 9956TIP3    H151283   5.735   2.430  11.943  0.3872  0.3025  2.1724
 9956TIP3    H251284   5.600   2.463  11.883  1.5224  0.7862 -0.2661
 9957TIP3   OH251285   1.782   6.095  12.149  0.2975 -0.4416  0.3418
 9957TIP3    H151286   1.793   6.081  12.243  2.0549  0.7244  0.3577
 9957TIP3    H251287   1.836   6.171  12.129 -3.4010  2.1452 -0.8706
 9958TIP3   OH251288   2.157   4.881   4.710 -0.2027  0.2938  0.1953
 9958TIP3    H151289   2.192   4.827   4.781  2.7790  0.0725 -1.2649
 9958TIP3    H251290   2.112   4.819   4.653 -0.8501  0.1481  0.8523
 9959TIP3   OH251291   5.095   3.762   1.990  0.9564 -0.2731  0.2084
 9959TIP3    H151292   5.132   3.676   1.973  1.7462 -0.0760  0.8424
 9959TIP3    H251293   5.114   3.779   2.083  0.7703  0.5539  0.1107
 9960TIP3   OH251294   1.988   4.027  16.106 -0.2984  0.3060 -0.4415
 9960TIP3    H151295   2.027   3.973  16.176 -0.8389 -0.3876 -0.6616
 9960TIP3    H251296   1.908   4.062  16.144  0.1417  1.1176 -0.2400
 9961TIP3   OH251297   4.361   0.697  12.090  0.1112 -0.0180 -0.2474
 9961TIP3    H151298   4.351   0.765  12.024  1.9498 -1.0582 -1.7043
 9961TIP3    H251299   4.302   0.627  12.062  1.1341 -0.5943 -1.0276
 9962TIP3   OH251300   5.394   2.660   2.227 -0.3983  0.0204 -0.5314
 9962TIP3    H151301   5.483   2.687   2.251  0.0212 -0.7784 -1.1700
 9962TIP3    H251302   5.373   2.714   2.151 -0.3639  0.0360 -0.5302
 9963TIP3   OH251303   2.564   5.883   2.273 -0.9168 -0.5575 -0.1100
 9963TIP3    H151304   2.485   5.903   2.324 -1.9742  0.6463 -2.1132
 9963TIP3    H251305   2.559   5.941   2.197  1.2799 -1.3405 -0.9191
 9964TIP3   OH251306   0.082   4.807   3.601 -0.5297 -0.3235  0.4926
 9964TIP3    H151307   0.147   4.870   3.632 -1.2733 -0.6016  2.7751
 9964TIP3    H251308   0.000   4.835   3.643 -1.4515 -1.2208 -0.6336
 9965TIP3   OH251309   3.836   5.890   6.221 -0.4311 -0.4358 -0.0286
 9965TIP3    H151310   3.771   5.823   6.245 -1.1077 -0.8544 -2.6856
 9965TIP3    H251311   3.786   5.971   6.216 -0.2031 -0.2665  0.4519
 9966TIP3   OH251312   4.633   6.035   3.813  0.0862  0.0641  0.4436
 9966TIP3    H151313   4.697   6.065   3.749 -0.8544 -0.4127 -0.7623
 9966TIP3    H251314   4.638   5.940   3.808 -2.1490 -0.0483 -1.2513
 9967TIP3   OH251315   6.222   1.553  13.360 -0.0250  0.3386  0.2811
 9967TIP3    H151316   6.144   1.575  13.310 -0.8214 -2.5074  0.0895
 9967TIP3    H251317   6.287   1.528  13.295  0.2732  0.4555  0.5294
 9968TIP3   OH251318   3.762   2.840   1.158  0.4443  0.5053 -0.4290
 9968TIP3    H151319   3.824   2.798   1.098 -0.2683  2.3084 -2.5920
 9968TIP3    H251320   3.677   2.806   1.132 -0.0242  2.3188 -1.5086
 9969TIP3   OH251321   4.304   4.047  14.479  0.7584 -0.3004  0.0145
 9969TIP3    H151322   4.358   3.967  14.479 -1.3719 -1.8246 -0.0610
 9969TIP3    H251323   4.220   4.019  14.445  0.3095  2.3274 -1.3022
 9970TIP3   OH251324   1.803   3.975   0.150 -0.6980 -0.0072  0.3055
 9970TIP3    H151325   1.778   3.945   0.063 -0.4244  0.1255  0.1796
 9970TIP3    H251326   1.722   4.005   0.190 -1.0770 -1.3914  0.6259
 9971TIP3   OH251327   6.147   2.043  16.683  0.1499 -0.0269  0.3892
 9971TIP3    H151328   6.131   2.033  16.777  2.5100  0.7949  0.9531
 9971TIP3    H251329   6.073   1.999  16.641  0.1357 -2.3236  2.6007
 9972TIP3   OH251330   4.656   1.691  14.107  0.3485 -0.4950 -0.4339
 9972TIP3    H151331   4.636   1.616  14.164  0.0224  0.8452  1.3159
 9972TIP3    H251332   4.751   1.695  14.106  0.3775  0.1713  1.0908
 9973TIP3   OH251333   6.765   2.467  16.348 -0.5936  0.4293  0.4830
 9973TIP3    H151334   6.690   2.408  16.345  1.5132 -2.4316 -0.8655
 9973TIP3    H251335   6.841   2.409  16.355  1.5902  3.1015  0.5962
 9974TIP3   OH251336   5.197   4.312  13.517 -0.1119 -0.2651  0.3237
 9974TIP3    H151337   5.193   4.349  13.606 -0.5480  0.2561  0.0916
 9974TIP3    H251338   5.275   4.257  13.518 -0.5036 -0.8376  1.2522
 9975TIP3   OH251339   0.886   1.870   6.088  0.2405 -0.3903 -0.5132
 9975TIP3    H151340   0.904   1.938   6.152 -0.4975 -0.4299 -0.2532
 9975TIP3    H251341   0.889   1.916   6.004 -1.1949  0.1841 -0.2809
 9976TIP3   OH251342   1.866   3.884  15.826  0.5002  0.3080  0.1270
 9976TIP3    H151343   1.902   3.941  15.758 -0.5449  0.1891 -0.5496
 9976TIP3    H251344   1.913   3.909  15.905  1.0429  1.1364 -0.4369
 9977TIP3   OH251345   2.585   1.104   5.425  0.1601 -0.0599  0.1073
 9977TIP3    H151346   2.643   1.049   5.372  0.6883  2.9190 -2.7681
 9977TIP3    H251347   2.643   1.167   5.467 -0.6736  0.6224  0.2667
 9978TIP3   OH251348   3.253   1.921  16.601  0.4932  0.3332  0.0065
 9978TIP3    H151349   3.273   1.860  16.672  0.2903 -0.7925 -0.8764
 9978TIP3    H251350   3.322   1.987  16.606  0.0420  0.7311  1.7285
 9979TIP3   OH251351   1.579   3.358  15.785 -0.4179  0.2508  0.7831
 9979TIP3    H151352   1.524   3.301  15.839 -0.2250  0.6063  1.3651
 9979TIP3    H251353   1.579   3.442  15.830  4.4357 -0.8539  3.5843
 9980TIP3   OH251354   4.490   1.042  16.168 -0.2952  0.0968  0.5548
 9980TIP3    H151355   4.435   0.983  16.117 -0.0896 -0.6199  1.1336
 9980TIP3    H251356   4.500   1.120  16.113 -0.8498 -0.2692 -0.0819
 9981TIP3   OH251357   3.104   5.869  16.916 -0.4766  0.0019  1.0531
 9981TIP3    H151358   3.150   5.827  16.989  0.9029  0.1322  0.2994
 9981TIP3    H251359   3.014   5.838  16.922  0.0147 -1.3189  1.8039
 9982TIP3   OH251360   3.805   3.447  13.775  0.3125  0.7929  0.0908
 9982TIP3    H151361   3.808   3.374  13.837 -0.3336  0.1086 -0.6652
 9982TIP3    H251362   3.889   3.443  13.729 -0.7289 -1.1477 -1.7877
 9983TIP3   OH251363   3.311   5.391  13.402 -0.0805  0.4270 -0.4757
 9983TIP3    H151364   3.321   5.484  13.422  0.1133  0.7700 -2.0980
 9983TIP3    H251365   3.282   5.388  13.311  0.2815 -1.1164 -0.5706
 9984TIP3   OH251366   3.432   4.058   3.148 -0.0656 -0.3730  0.0148
 9984TIP3    H151367   3.506   4.054   3.209  0.2689 -0.5241 -0.3976
 9984TIP3    H251368   3.370   4.117   3.190  1.0493  1.1971 -0.4605
 9985TIP3   OH251369   3.933   0.470   2.717  0.4080  1.0663 -0.2466
 9985TIP3    H151370   3.857   0.482   2.774  0.2817 -0.5320 -0.0229
 9985TIP3    H251371   3.921   0.534   2.647 -1.2087  0.7740 -0.2745
 9986TIP3   OH251372   5.712   5.625  15.604  0.2189  0.2093  0.0240
 9986TIP3    H151373   5.749   5.680  15.674 -0.0613  2.1552 -1.2647
 9986TIP3    H251374   5.617   5.634  15.614  0.1771  0.4324 -0.5420
 9987TIP3   OH251375   5.075   1.018   1.046 -0.0434 -0.3934 -0.1040
 9987TIP3    H151376   5.037   1.064   1.120 -0.0930 -0.4922 -0.0681
 9987TIP3    H251377   5.145   0.965   1.084 -0.1551 -0.5442 -0.1092
 9988TIP3   OH251378   3.405   0.107   2.192  0.4316 -0.2035  0.0817
 9988TIP3    H151379   3.453   0.142   2.117 -1.3985  1.1944 -0.5189
 9988TIP3    H251380   3.432   0.162   2.266  1.1541 -0.6423  0.1441
 9989TIP3   OH251381   2.786   2.558   5.038  0.8442  0.2911 -0.7490
 9989TIP3    H151382   2.822   2.532   4.953  0.4540  0.3529 -0.9344
 9989TIP3    H251383   2.855   2.536   5.101  1.3663  0.7641 -1.1431
 9990TIP3   OH251384   1.263   4.474  16.208 -0.1039  0.1696 -0.0170
 9990TIP3    H151385   1.190   4.423  16.171 -0.9145 -0.5447  2.3402
 9990TIP3    H251386   1.341   4.435  16.170 -0.8331 -1.1467 -0.2425
 9991TIP3   OH251387   6.349   2.878   5.695 -0.4969  0.0210 -0.4778
 9991TIP3    H151388   6.364   2.916   5.781  0.9757 -0.1881 -0.6055
 9991TIP3    H251389   6.345   2.953   5.636 -0.7251  0.1231 -0.3348
 9992TIP3   OH251390   5.588   4.634  16.258  0.5396  0.2525 -0.3999
 9992TIP3    H151391   5.674   4.600  16.234 -0.1169 -1.9087  0.1281
 9992TIP3    H251392   5.557   4.576  16.326 -0.7656  1.8594  0.4522
 9993TIP3   OH251393   3.004   5.329  16.756  0.3929  0.2507  0.3659
 9993TIP3    H151394   2.938   5.377  16.807  0.8312 -0.0637  1.2380
 9993TIP3    H251395   2.957   5.302  16.677 -0.1611  1.1782  0.3569
 9994TIP3   OH251396   0.196   5.247   1.191 -0.0307 -0.4831  0.5639
 9994TIP3    H151397   0.260   5.242   1.121  0.3808 -0.6451  0.9453
 9994TIP3    H251398   0.241   5.294   1.262 -0.3379 -0.5780  0.8280
 9995TIP3   OH251399   1.169   4.061   4.203  0.2999 -0.5226  0.1133
 9995TIP3    H151400   1.220   4.108   4.137 -1.2861  0.6179 -0.3548
 9995TIP3    H251401   1.220   3.982   4.221  2.1331  0.4789 -0.4294
 9996TIP3   OH251402   6.086   3.703  17.088 -0.4476  0.0914  0.2336
 9996TIP3    H151403   6.008   3.700  17.033  0.5235  2.4635 -1.4416
 9996TIP3    H251404   6.085   3.791  17.126  0.4558 -0.5010  1.7063
 9997TIP3   OH251405   4.856   1.756   5.508 -0.1526  0.2534 -0.6235
 9997TIP3    H151406   4.932   1.767   5.565 -0.0371 -0.5455 -0.6201
 9997TIP3    H251407   4.822   1.669   5.528 -0.2731  0.0644 -1.5644
 9998TIP3   OH251408   2.766   4.999  10.888 -0.2703 -0.1731 -0.5913
 9998TIP3    H151409   2.846   4.947  10.889  1.6957  2.6214 -0.6559
 9998TIP3    H251410   2.743   5.006  10.796 -0.5659 -0.9155 -0.5800
 9999TIP3   OH251411   3.530   6.749  12.397  0.1890  0.3150 -0.5485
 9999TIP3    H151412   3.498   6.702  12.474 -0.0294  2.0211  0.4526
 9999TIP3    H251413   3.506   6.693  12.323 -3.0456  0.3796  0.3126
10000TIP3   OH251414   0.826   0.020  16.586 -0.0110 -0.0390  0.2768
10000TIP3    H151415   0.783   0.106  16.589 -0.4031 -0.2153 -0.2016
10000TIP3    H251416   0.828  -0.008  16.677 -1.3798 -0.2482  0.2701
10001TIP3   OH251417   6.167   2.605  12.509 -0.4306 -0.6301 -0.0590
10001TIP3    H151418   6.130   2.680  12.463  1.0102 -0.8055 -1.6087
10001TIP3    H251419   6.234   2.643  12.566  0.6844 -0.7258 -1.2493
10002TIP3   OH251420   2.214   3.752  11.148 -0.8409 -0.5387  0.3280
10002TIP3    H151421   2.182   3.842  11.153  0.6162  0.0703 -0.5147
10002TIP3    H251422   2.281   3.746  11.216 -2.3089 -1.6377  1.7377
10003TIP3   OH251423   3.378   5.169  14.675  0.0858 -0.2215 -0.0615
10003TIP3    H151424   3.293   5.213  14.685  0.2866 -0.0053  0.8205
10003TIP3    H251425   3.391   5.126  14.760  0.2680 -1.3170 -0.6318
10004TIP3   OH251426   4.873   1.758   1.135 -0.3781  0.1007 -0.0696
10004TIP3    H151427   4.805   1.748   1.201  0.8155 -1.6898  0.9998
10004TIP3    H251428   4.875   1.852   1.116 -3.5354  0.1549 -0.6650
10005TIP3   OH251429   4.855   4.637  11.509  0.1241 -0.6634  0.3589
10005TIP3    H151430   4.934   4.688  11.524 -0.6641  0.4377  0.8597
10005TIP3    H251431   4.878   4.548  11.537  1.1554 -0.3477  0.5385
10006TIP3   OH251432   0.216   4.717  13.480 -0.2817 -0.4243 -0.2146
10006TIP3    H151433   0.289   4.658  13.502  0.2998 -0.2284 -1.4885
10006TIP3    H251434   0.161   4.717  13.558  2.0934  0.9865  1.6257
10007TIP3   OH251435   2.859   3.753  15.840 -0.4852  0.1109  0.1764
10007TIP3    H151436   2.770   3.776  15.811 -0.2457  0.4413 -0.3115
10007TIP3    H251437   2.852   3.744  15.935 -0.3801  3.3356  0.5818
10008TIP3   OH251438   1.500   5.493  11.091  0.1632 -0.6307 -0.0033
10008TIP3    H151439   1.427   5.442  11.056 -0.1173 -0.1898 -0.0595
10008TIP3    H251440   1.465   5.582  11.101  0.9267 -0.2264 -0.8083
10009TIP3   OH251441   5.741   6.092   3.897 -0.8664  0.2736  0.7914
10009TIP3    H151442   5.834   6.079   3.880 -1.1257  0.4857 -0.9678
10009TIP3    H251443   5.734   6.183   3.926 -0.6667  0.6338 -0.2831
10010TIP3   OH251444   1.265   1.084  16.365  0.4195 -0.5346  0.6727
10010TIP3    H151445   1.249   1.124  16.450  0.2675  0.1004  0.3474
10010TIP3    H251446   1.191   1.111  16.311  1.8547  1.3171 -0.4472
10011TIP3   OH251447   4.259   6.687   3.149 -0.1599  0.1701  0.6591
10011TIP3    H151448   4.252   6.615   3.212 -0.9752 -2.1870 -1.8905
10011TIP3    H251449   4.170   6.701   3.118  0.5225 -1.2187 -2.3618
10012TIP3   OH251450   1.946   3.144   3.124  0.0737  0.0982  0.2438
10012TIP3    H151451   2.036   3.174   3.130 -0.5754  1.9215  2.6928
10012TIP3    H251452   1.898   3.198   3.187 -2.6744 -1.0705 -0.6533
10013TIP3   OH251453   3.847   6.607  13.143  0.3009  0.1591  0.5941
10013TIP3    H151454   3.762   6.570  13.165  0.4558  0.1623  1.2410
10013TIP3    H251455   3.838   6.637  13.053  0.2131 -1.5633 -0.0035
10014TIP3   OH251456   4.301   0.519   3.088 -0.0956 -0.0934  0.2497
10014TIP3    H151457   4.261   0.444   3.045  0.3783  0.8907 -2.0743
10014TIP3    H251458   4.233   0.587   3.086  0.7975  0.8000 -1.4475
10015TIP3   OH251459   2.078   0.196   3.195  0.3776  0.4442  0.8913
10015TIP3    H151460   2.011   0.200   3.127 -1.0830  1.5598  2.3008
10015TIP3    H251461   2.103   0.104   3.200 -1.1057 -0.0126  0.3491
10016TIP3   OH251462   2.882   0.777   5.830 -0.4392 -0.6042  0.5240
10016TIP3    H151463   2.867   0.852   5.888 -1.5762 -0.5542  0.1839
10016TIP3    H251464   2.892   0.817   5.743 -0.1937 -0.7866  0.4692
10017TIP3   OH251465   1.499   2.958   0.415 -0.0116  0.3478  0.4995
10017TIP3    H151466   1.515   3.047   0.444  0.7528  0.4912 -0.3357
10017TIP3    H251467   1.566   2.941   0.350  0.1413 -1.0044  0.9748
10018TIP3   OH251468   1.723   2.648   3.255 -0.5074 -0.1211  0.1005
10018TIP3    H151469   1.778   2.588   3.306 -0.2988 -0.6178 -0.7016
10018TIP3    H251470   1.759   2.735   3.274  0.8190 -0.4594 -0.7037
10019TIP3   OH251471   5.927   6.752   6.535 -0.1562  0.4386 -0.7433
10019TIP3    H151472   5.832   6.749   6.552 -0.0232 -1.1164 -0.1223
10019TIP3    H251473   5.954   6.838   6.568 -0.9037 -0.1766  1.6962
10020TIP3   OH251474   4.188   1.558  14.713 -0.1732  0.0055 -0.3038
10020TIP3    H151475   4.217   1.594  14.797  1.2584  0.3159 -0.8860
10020TIP3    H251476   4.168   1.635  14.659  0.2707 -0.1343 -0.6805
10021TIP3   OH251477   0.639   0.067   1.376  0.4296  0.2215  0.1332
10021TIP3    H151478   0.725   0.078   1.335  0.2036  3.6923  0.2882
10021TIP3    H251479   0.578   0.107   1.314 -0.8329 -0.4291  0.9200
10022TIP3   OH251480   1.827   1.631   5.381  0.3963  0.4865  0.7387
10022TIP3    H151481   1.846   1.671   5.465 -1.9405  0.7780  1.1869
10022TIP3    H251482   1.791   1.545   5.402 -0.6696  0.7501  0.1050
10023TIP3   OH251483   3.314   5.559  15.732 -0.1026  0.3970  0.0109
10023TIP3    H151484   3.283   5.552  15.822  1.8266  2.8890  1.0011
10023TIP3    H251485   3.266   5.632  15.695  0.1360  0.2956 -0.5134
10024TIP3   OH251486   3.156   2.447   5.726  0.7030 -0.1585 -0.2813
10024TIP3    H151487   3.199   2.398   5.656  2.0646  0.4364  0.1185
10024TIP3    H251488   3.203   2.423   5.806  0.1299  0.3155  0.2158
10025TIP3   OH251489   4.122   3.493   4.752 -1.0500 -0.2976 -0.0699
10025TIP3    H151490   4.188   3.497   4.683 -1.8888  2.1591 -0.8468
10025TIP3    H251491   4.137   3.573   4.803 -3.0117 -0.0043  0.1044
10026TIP3   OH251492   2.558   0.326   5.473 -0.1123 -0.0825  0.3388
10026TIP3    H151493   2.628   0.264   5.451 -0.9399 -0.7971 -0.3964
10026TIP3    H251494   2.601   0.411   5.478  0.8048 -0.5060 -0.1678
10027TIP3   OH251495   4.280   1.547  15.028 -0.7499 -0.7303  0.2514
10027TIP3    H151496   4.195   1.552  15.073 -0.4956 -1.3277  0.8149
10027TIP3    H251497   4.339   1.600  15.082 -0.2586 -2.0684  1.0950
10028TIP3   OH251498   0.951   2.098  12.097 -0.0665  0.3168  0.0396
10028TIP3    H151499   0.945   2.192  12.114  0.7877  0.7031 -1.5353
10028TIP3    H251500   0.961   2.092  12.002  1.5076 -1.2726  0.2559
10029TIP3   OH251501   1.854   5.815  13.523 -0.3252 -0.2499 -0.3155
10029TIP3    H151502   1.849   5.731  13.568 -1.7906  0.4946  0.9994
10029TIP3    H251503   1.763   5.842  13.511  0.0874  0.6181 -1.7540
10030TIP3   OH251504   3.772   4.045  14.052  0.4825 -0.1900 -0.0848
10030TIP3    H151505   3.808   3.967  14.095  0.4120  0.5237  1.3354
10030TIP3    H251506   3.769   4.111  14.121 -2.4943  0.1314 -0.3845
10031TIP3   OH251507   3.051   4.195  16.128  0.3005 -0.1449 -0.1321
10031TIP3    H151508   2.963   4.192  16.165  0.4183 -1.7577  0.1052
10031TIP3    H251509   3.040   4.168  16.037  0.8469 -3.5791  0.6804
10032TIP3   OH251510   6.461   3.756   2.341 -0.7821 -0.1879  0.2543
10032TIP3    H151511   6.466   3.775   2.435  0.6462  0.7779  0.0184
10032TIP3    H251512   6.507   3.672   2.332  0.5282  0.4965  0.2505
10033TIP3   OH251513   6.596   6.207   3.409 -0.1388 -0.4468  0.1956
10033TIP3    H151514   6.644   6.215   3.326 -0.3224 -0.8088  0.0496
10033TIP3    H251515   6.624   6.122   3.444  0.2193 -0.1332  0.6892
10034TIP3   OH251516   3.551   5.812  14.537  0.5634  0.3347  0.2666
10034TIP3    H151517   3.620   5.748  14.523  1.2127  0.9499  0.5700
10034TIP3    H251518   3.588   5.874  14.600 -1.3592 -0.9777  2.8956
10035TIP3   OH251519   3.752   6.503   2.205 -0.4321  0.5600 -0.4613
10035TIP3    H151520   3.800   6.580   2.174  0.3434  0.1679 -0.2407
10035TIP3    H251521   3.663   6.536   2.221  0.1907  1.7186  0.8762
10036TIP3   OH251522   4.822   2.113  11.354 -0.1432  0.1408  0.0140
10036TIP3    H151523   4.818   2.117  11.259 -0.6590 -0.0865  0.0270
10036TIP3    H251524   4.731   2.117  11.383 -0.0705 -1.0180  0.4427
10037TIP3   OH251525   3.162   0.145   1.327  0.4835 -0.1915 -0.4541
10037TIP3    H151526   3.205   0.146   1.241 -0.3868  0.8449 -0.9084
10037TIP3    H251527   3.100   0.072   1.322  0.5073 -0.1973 -0.6666
10038TIP3   OH251528   2.568   0.878   4.697  0.7059 -0.2439  0.2032
10038TIP3    H151529   2.556   0.857   4.789  1.1356  1.6425  0.7209
10038TIP3    H251530   2.657   0.849   4.677  1.0093  0.3303  0.6890
10039TIP3   OH251531   3.431   4.445   0.536 -0.0322  0.1467 -0.0084
10039TIP3    H151532   3.365   4.377   0.550  1.5921 -1.3043  0.9725
10039TIP3    H251533   3.509   4.397   0.508  1.7539  1.3595  2.5336
10040TIP3   OH251534   2.910   3.346  14.575 -0.5756  0.1289 -0.2427
10040TIP3    H151535   2.965   3.289  14.522 -1.0370 -0.4652 -0.0908
10040TIP3    H251536   2.972   3.400  14.624 -0.1395  1.0866 -1.7820
10041TIP3   OH251537   0.216   4.963   3.072 -0.1503  0.0428 -0.2413
10041TIP3    H151538   0.286   4.898   3.076  1.7724  1.9691 -0.1349
10041TIP3    H251539   0.205   4.981   2.979  0.2283  0.4226 -0.2203
10042TIP3   OH251540   4.372   1.376   5.472 -0.3287  0.0386 -0.0002
10042TIP3    H151541   4.380   1.308   5.405 -3.7951 -0.1888 -0.3707
10042TIP3    H251542   4.456   1.422   5.470  1.6276 -3.2789 -0.7195
10043TIP3   OH251543   1.412   1.706   2.220 -0.3837  0.1555  0.0190
10043TIP3    H151544   1.395   1.726   2.312 -1.6155 -0.1238 -0.1246
10043TIP3    H251545   1.331   1.665   2.189 -0.5318  1.4790 -1.5475
10044TIP3   OH251546   1.273   4.077   3.702  0.6078  0.3190 -0.7343
10044TIP3    H151547   1.213   4.131   3.651  0.4550 -1.8560 -3.0472
10044TIP3    H251548   1.360   4.106   3.674  0.5963  0.9492 -0.1547
10045TIP3   OH251549   3.303   5.870  15.466  0.2995  0.1290  0.1655
10045TIP3    H151550   3.362   5.810  15.419  0.6831  0.5619  0.0898
10045TIP3    H251551   3.230   5.884  15.405  0.9903  1.0139 -0.4918
10046TIP3   OH251552   5.491   3.277  16.507  0.1798  0.0651 -0.0383
10046TIP3    H151553   5.479   3.371  16.513  0.5125  0.1322 -0.3720
10046TIP3    H251554   5.408   3.244  16.472  0.3160  0.3199 -0.6200
10047TIP3   OH251555   5.917   5.111  13.783  0.4095  0.2478 -0.5718
10047TIP3    H151556   5.915   5.048  13.855  0.2104 -0.8878 -1.5459
10047TIP3    H251557   5.922   5.197  13.827  1.9691 -0.4628  0.7664
10048TIP3   OH251558   3.797   3.378   1.530  0.0545 -0.3754  0.5073
10048TIP3    H151559   3.835   3.322   1.463 -0.2532  0.7278 -0.6306
10048TIP3    H251560   3.731   3.430   1.484  0.3115  0.9039  1.5140
10049TIP3   OH251561   3.944   2.948  12.605 -0.9439 -0.5629  0.1715
10049TIP3    H151562   3.963   2.856  12.585 -0.9544 -0.7035  0.7986
10049TIP3    H251563   3.905   2.946  12.692 -1.6376 -0.0350 -0.1127
10050TIP3   OH251564   3.474   3.119   6.305 -0.1127 -0.2170  0.7101
10050TIP3    H151565   3.419   3.197   6.293  2.6457  1.5515 -1.5324
10050TIP3    H251566   3.439   3.056   6.243 -0.2653  0.5116  0.0359
10051TIP3   OH251567   6.324   0.175  14.022  0.4574  0.3930 -0.3558
10051TIP3    H151568   6.279   0.161  13.939  0.6186  0.1550 -0.4042
10051TIP3    H251569   6.319   0.091  14.067 -3.4910  1.5687  1.8166
10052TIP3   OH251570   0.465   1.771   5.188 -0.2182  0.2911 -0.4685
10052TIP3    H151571   0.377   1.792   5.218 -0.1130 -0.1132  0.1651
10052TIP3    H251572   0.522   1.828   5.241  0.0357 -1.1477  0.8943
10053TIP3   OH251573   2.398   1.997  12.485 -0.4874  0.1329  0.4162
10053TIP3    H151574   2.468   2.019  12.547 -0.7159  1.1470  0.3227
10053TIP3    H251575   2.339   1.941  12.535  1.0917 -1.9848  0.0923
10054TIP3   OH251576   4.053   1.059   1.158  0.0165 -0.5155  0.5597
10054TIP3    H151577   4.083   0.982   1.205  1.5387  0.4045  1.1482
10054TIP3    H251578   4.094   1.052   1.072  0.2412 -0.3014  0.6504
10055TIP3   OH251579   3.050   5.555   5.013  0.1881 -0.2717 -0.0222
10055TIP3    H151580   3.118   5.554   5.081 -0.9941 -0.4353  1.2072
10055TIP3    H251581   3.009   5.641   5.022 -1.4731 -1.1203  1.0714
10056TIP3   OH251582   4.870   2.941  15.646 -0.2495  0.1287  0.2548
10056TIP3    H151583   4.899   2.994  15.571  1.4121 -2.7356 -1.2868
10056TIP3    H251584   4.780   2.917  15.625 -0.1949  0.3252 -0.2193
10057TIP3   OH251585   0.642   5.312  14.650 -0.3099 -0.1719  0.1260
10057TIP3    H151586   0.730   5.273  14.642 -1.1923 -1.9622 -2.3958
10057TIP3    H251587   0.637   5.373  14.576 -1.7541 -1.4813 -0.9214
10058TIP3   OH251588   0.412   1.860  11.417 -0.6082  0.6407  0.4235
10058TIP3    H151589   0.326   1.828  11.389  0.0291 -0.7037 -0.1065
10058TIP3    H251590   0.433   1.930  11.356 -1.4773  1.2406  0.7939
10059TIP3   OH251591   0.613   3.504   1.984  0.1944  0.3557  0.1133
10059TIP3    H151592   0.698   3.471   1.953  0.3830  0.5141  0.4562
10059TIP3    H251593   0.548   3.452   1.936  0.4851  0.1342 -0.0425
10060TIP3   OH251594   5.123   4.583   6.050 -0.5346 -0.3706  0.2931
10060TIP3    H151595   5.059   4.535   6.101 -2.1507 -0.0701 -1.3333
10060TIP3    H251596   5.111   4.675   6.076 -1.5017 -0.1912 -0.6931
10061TIP3   OH251597   1.483   3.076  14.202  0.1635  0.4955  0.0121
10061TIP3    H151598   1.448   3.028  14.127 -0.9216  0.4488  0.5319
10061TIP3    H251599   1.542   3.141  14.164  0.7436 -0.4583 -0.7776
10062TIP3   OH251600   1.804   3.223  10.491  0.0339 -0.0341  0.6832
10062TIP3    H151601   1.884   3.169  10.489  0.2617  0.3100 -0.6456
10062TIP3    H251602   1.743   3.173  10.545  0.7297 -0.9231  0.6804
10063TIP3   OH251603   2.895   3.536  14.136  0.2200 -0.2185  0.0632
10063TIP3    H151604   2.840   3.511  14.210 -0.8949 -0.1688 -0.7301
10063TIP3    H251605   2.850   3.501  14.059  2.2530 -1.8247 -0.4936
10064TIP3   OH251606   5.009   3.509   3.311 -0.5544 -0.1598 -0.1519
10064TIP3    H151607   5.041   3.446   3.246 -1.2802  1.4123 -2.1508
10064TIP3    H251608   5.071   3.502   3.383  0.0312 -2.3318 -0.7719
10065TIP3   OH251609   4.060   1.428  13.105  0.6095 -0.2449  0.6962
10065TIP3    H151610   4.126   1.481  13.060  0.5559 -0.3454  0.5000
10065TIP3    H251611   4.085   1.337  13.086 -0.4506 -0.2897 -0.6580
10066TIP3   OH251612   0.366   5.624   1.808  0.3518  0.0242 -0.6987
10066TIP3    H151613   0.293   5.655   1.862  0.1147  0.2961 -1.1696
10066TIP3    H251614   0.444   5.637   1.863  0.1954  0.9672 -0.6821
10067TIP3   OH251615   3.059   2.635  14.050  0.0020 -0.6364 -0.3058
10067TIP3    H151616   3.116   2.658  13.977 -0.2562 -0.2032 -0.3720
10067TIP3    H251617   2.972   2.630  14.012 -0.4295  1.4378  0.3121
10068TIP3   OH251618   4.829   3.070   4.136 -0.6567 -0.2629 -0.2503
10068TIP3    H151619   4.872   3.059   4.221 -3.2966 -1.3149  1.0610
10068TIP3    H251620   4.813   2.981   4.106 -0.7168  0.1088 -1.3406
10069TIP3   OH251621   5.699   5.000   2.829 -0.4683  0.1869 -0.2791
10069TIP3    H151622   5.783   4.956   2.823 -1.0456 -1.1887  0.9961
10069TIP3    H251623   5.708   5.060   2.904 -0.0182  1.5553 -1.3765
10070TIP3   OH251624   1.276   3.559  11.534  0.1733  0.1012  0.4449
10070TIP3    H151625   1.234   3.537  11.451  0.1786  0.0558  0.4547
10070TIP3    H251626   1.355   3.607  11.509 -0.0623  0.4877  0.4356
10071TIP3   OH251627   0.681   3.992   3.670  0.0466  0.1371 -0.3384
10071TIP3    H151628   0.598   3.994   3.621  0.2180  0.2601 -0.6281
10071TIP3    H251629   0.747   3.972   3.603  0.3385  0.7428 -0.2302
10072TIP3   OH251630   5.595   2.867   6.579  0.1453  0.0546  0.0856
10072TIP3    H151631   5.552   2.922   6.645 -0.7072 -0.8606  0.3225
10072TIP3    H251632   5.627   2.792   6.629  0.1143 -0.3086 -0.4415
10073TIP3   OH251633   1.339   3.959   3.404 -0.3015 -0.4271  0.0508
10073TIP3    H151634   1.251   3.934   3.376 -1.0316  0.8150  1.1465
10073TIP3    H251635   1.351   3.914   3.488  0.1119 -0.5870 -0.0940
10074TIP3   OH251636   5.389   5.294  15.433  0.0566 -0.3056  0.7617
10074TIP3    H151637   5.304   5.283  15.475  1.0067  1.6827  3.5036
10074TIP3    H251638   5.451   5.300  15.505  2.2587  0.5233 -1.0650
10075TIP3   OH251639   6.474   5.345   1.068 -0.7995 -0.1769  0.1458
10075TIP3    H151640   6.400   5.383   1.115 -1.2157 -0.2959 -0.4034
10075TIP3    H251641   6.551   5.380   1.112 -1.1785 -0.6274  1.2009
10076TIP3   OH251642   3.032   4.250  16.507 -0.0910 -0.0373 -0.3017
10076TIP3    H151643   3.017   4.345  16.511  1.1160  0.1702 -0.0918
10076TIP3    H251644   2.945   4.212  16.508 -0.6326  1.1042 -1.3828
10077TIP3   OH251645   3.584   0.119  12.839 -0.3544  0.5574  0.4255
10077TIP3    H151646   3.507   0.079  12.799 -0.5047 -0.9410  2.0642
10077TIP3    H251647   3.646   0.047  12.849  0.8809  1.5367  0.0657
10078TIP3   OH251648   3.068   4.960  16.650  0.2026  0.3838 -0.1411
10078TIP3    H151649   3.117   4.956  16.733 -0.8831  3.2757  0.7622
10078TIP3    H251650   3.134   4.982  16.585  1.1279 -2.2179 -0.2273
10079TIP3   OH251651   2.680   0.092   0.087 -0.0778 -0.5084 -0.6994
10079TIP3    H151652   2.753   0.063   0.033 -0.4343 -0.7517 -1.0512
10079TIP3    H251653   2.620   0.017   0.091 -0.7384 -0.0209 -1.1515
10080TIP3   OH251654   3.601   5.262   0.976 -0.1829 -0.1530  0.3647
10080TIP3    H151655   3.679   5.208   0.978 -1.5400 -2.2847 -0.8059
10080TIP3    H251656   3.546   5.228   1.047 -0.5995  0.4297  0.3313
10081TIP3   OH251657   6.387   6.682  11.495  0.2410  0.0278  0.1610
10081TIP3    H151658   6.387   6.636  11.579  0.1939  0.0735  0.1856
10081TIP3    H251659   6.296   6.682  11.467  0.4977 -1.6281 -0.7965
10082TIP3   OH251660   0.689   3.010   0.693 -0.7264 -0.3171  0.2540
10082TIP3    H151661   0.682   3.105   0.691  0.2538 -0.2380 -0.7043
10082TIP3    H251662   0.633   2.982   0.765 -1.2496  0.9638  0.3556
10083TIP3   OH251663   3.608   2.015  10.272  0.1790  0.5027  0.0260
10083TIP3    H151664   3.685   1.989  10.322 -0.6513  0.7052  1.4567
10083TIP3    H251665   3.555   1.936  10.267 -0.3207  0.8005  0.5642
10084TIP3   OH251666   5.197   3.368   2.178 -0.2513  0.1949 -0.0192
10084TIP3    H151667   5.185   3.286   2.130  1.4833 -0.7811  1.0943
10084TIP3    H251668   5.127   3.369   2.243  1.7647 -2.3306  2.4010
10085TIP3   OH251669   6.435   1.118  12.295 -0.0252 -0.6282  0.0920
10085TIP3    H151670   6.368   1.114  12.364 -2.6839  1.6555 -2.1313
10085TIP3    H251671   6.450   1.212  12.281  2.0547 -1.0584 -1.0342
10086TIP3   OH251672   3.228   0.090  14.947 -0.3031 -0.2177  0.1731
10086TIP3    H151673   3.246   0.127  14.861  0.6962 -2.0707 -0.4686
10086TIP3    H251674   3.315   0.073  14.984 -0.7199  0.3780  1.4835
10087TIP3   OH251675   0.727   6.134  12.255 -0.3146 -0.0069  0.0727
10087TIP3    H151676   0.798   6.070  12.259 -0.9859 -0.7433  0.6996
10087TIP3    H251677   0.691   6.136  12.344 -2.2686 -1.0797 -0.6272
10088TIP3   OH251678   4.825   1.408   2.285  0.2360  0.2743 -0.3425
10088TIP3    H151679   4.889   1.344   2.316 -0.2410  0.3074  0.7266
10088TIP3    H251680   4.744   1.359   2.274 -0.0876  0.6452  0.3153
10089TIP3   OH251681   1.110   5.302  12.676  0.9454  0.3615  0.0624
10089TIP3    H151682   1.086   5.299  12.769  1.9717  2.5173  0.4580
10089TIP3    H251683   1.065   5.227  12.638 -0.4753  0.0882  2.0723
10090TIP3   OH251684   4.846   3.617   5.137  0.4667  0.2324  0.1876
10090TIP3    H151685   4.877   3.527   5.137 -0.1417  0.0211 -0.0748
10090TIP3    H251686   4.924   3.669   5.116  0.5860 -0.3109 -0.7517
10091TIP3   OH251687   0.058   2.081   1.547  0.0670  0.3646 -0.0608
10091TIP3    H151688   0.085   2.032   1.625 -1.2202 -0.2108  0.0386
10091TIP3    H251689   0.141   2.107   1.506  0.7783 -0.8231  0.5590
10092TIP3   OH251690   4.042   4.774  16.943 -0.2078 -0.5028 -0.3279
10092TIP3    H151691   3.991   4.696  16.964 -0.1989 -0.4598 -0.1515
10092TIP3    H251692   4.043   4.826  17.023 -0.6099 -0.0953 -0.5804
10093TIP3   OH251693   6.442   3.080  16.618  0.1285  0.0050  0.0572
10093TIP3    H151694   6.362   3.126  16.596 -0.2539 -0.0975  1.1980
10093TIP3    H251695   6.493   3.142  16.669 -0.5135 -0.8697  1.8524
10094TIP3   OH251696   3.126   5.735  11.333 -0.6920  0.0228 -0.2366
10094TIP3    H151697   3.097   5.823  11.307  0.1401  1.4503  3.1304
10094TIP3    H251698   3.045   5.691  11.359 -0.8605  0.8439  0.7156
10095TIP3   OH251699   4.777   5.029   3.789 -0.0299 -0.5163 -0.0835
10095TIP3    H151700   4.858   5.018   3.840  0.4097 -0.2724 -0.7133
10095TIP3    H251701   4.788   4.971   3.713 -0.1921 -0.0554 -0.4691
10096TIP3   OH251702   2.940   5.221  11.675 -0.1612 -0.1435 -0.7209
10096TIP3    H151703   2.884   5.143  11.680  0.7315 -0.7605  0.2101
10096TIP3    H251704   2.988   5.210  11.594 -0.3529 -0.3450 -0.8100
10097TIP3   OH251705   6.214   2.757   3.419  0.4653  0.1038 -0.3321
10097TIP3    H151706   6.172   2.790   3.339 -2.0495 -1.2829  0.2978
10097TIP3    H251707   6.234   2.835   3.470 -0.4982  0.8849 -1.1108
10098TIP3   OH251708   2.613   4.006  11.699 -0.3796  0.5384  0.3105
10098TIP3    H151709   2.655   4.093  11.697 -0.6998  0.7269 -2.7723
10098TIP3    H251710   2.537   4.015  11.642 -0.8691 -1.5783  0.5613
10099TIP3   OH251711   5.864   1.554   0.895  0.4267  0.5793  0.4784
10099TIP3    H151712   5.814   1.473   0.899  2.2199 -0.6162 -0.1488
10099TIP3    H251713   5.801   1.620   0.864 -1.2459 -0.3667  1.6918
10100TIP3   OH251714   1.646   1.888  14.669  0.4597 -0.6132 -0.3676
10100TIP3    H151715   1.737   1.875  14.644  0.6738 -1.2320  0.6728
10100TIP3    H251716   1.648   1.897  14.764 -0.7204 -2.1973 -0.1458
10101TIP3   OH251717   2.587   2.007   5.789  0.2377 -0.1216 -0.0266
10101TIP3    H151718   2.683   2.004   5.786  0.1922 -1.1097 -0.8281
10101TIP3    H251719   2.563   2.074   5.724  0.3957  0.7483  0.7825
10102TIP3   OH251720   0.551   2.620  12.746 -0.1559 -0.0296 -0.1934
10102TIP3    H151721   0.527   2.705  12.711 -1.2522 -0.2350  0.0167
10102TIP3    H251722   0.533   2.558  12.675  0.7577 -0.0803 -0.3915
10103TIP3   OH251723   3.277   1.191   4.960  0.2475  0.7816  0.1962
10103TIP3    H151724   3.319   1.168   4.877  0.0287  1.2480 -0.0460
10103TIP3    H251725   3.340   1.164   5.027  0.3018  0.1376 -0.1090
10104TIP3   OH251726   5.948   6.627  15.256 -0.9186 -0.4285  0.4056
10104TIP3    H151727   5.920   6.688  15.324  1.1768  1.6594 -0.4635
10104TIP3    H251728   5.991   6.555  15.304 -0.0921  0.6621  1.3551
10105TIP3   OH251729   4.772   5.009   4.806  0.1094  0.2383  0.4651
10105TIP3    H151730   4.729   5.076   4.858  0.8381  1.1241 -0.0363
10105TIP3    H251731   4.849   4.985   4.858  1.7405  2.2979 -0.8629
10106TIP3   OH251732   4.891   2.453   3.049 -0.1065 -0.0776  0.1507
10106TIP3    H151733   4.918   2.529   2.997 -0.6279  0.1297  0.1746
10106TIP3    H251734   4.819   2.414   2.998  1.0919 -1.4146 -0.6129
10107TIP3   OH251735   3.095   3.908  14.707  0.1956 -0.6476 -0.2875
10107TIP3    H151736   3.053   3.907  14.793  0.4181  2.6713 -0.0268
10107TIP3    H251737   3.023   3.915  14.645  0.1153  2.3935  0.0195
10108TIP3   OH251738   6.528   0.756  14.585  0.0165 -0.3898  0.4135
10108TIP3    H151739   6.609   0.732  14.631 -0.5288 -1.2963  0.9238
10108TIP3    H251740   6.488   0.823  14.641  0.3333 -0.0425  0.2320
10109TIP3   OH251741   1.156   3.548  11.775 -0.3361 -0.4028  0.4377
10109TIP3    H151742   1.184   3.556  11.684 -1.3107  1.6479  0.2557
10109TIP3    H251743   1.184   3.630  11.816 -0.1587 -1.1689  1.9324
10110TIP3   OH251744   1.910   6.158  13.367  0.5622  0.4732  0.1183
10110TIP3    H151745   1.956   6.182  13.287 -0.8267  0.3743 -0.7533
10110TIP3    H251746   1.829   6.117  13.337 -0.8574  2.0575  1.5616
10111TIP3   OH251747   2.090   3.915   4.977 -0.2195  0.4387  0.4417
10111TIP3    H151748   2.065   3.981   5.041  2.1740  2.9945 -1.0574
10111TIP3    H251749   2.174   3.882   5.008 -0.5653 -0.6581  0.2515
10112TIP3   OH251750   0.685   2.018  16.901 -0.0598  0.2768  0.0218
10112TIP3    H151751   0.617   2.062  16.953  0.3415  0.3704  0.4707
10112TIP3    H251752   0.654   1.928  16.892 -1.4197  0.8446 -1.7865
10113TIP3   OH251753   5.546   0.836   0.995 -0.3047 -0.0846 -0.3261
10113TIP3    H151754   5.491   0.913   1.007 -1.7373 -1.1437  0.2125
10113TIP3    H251755   5.522   0.778   1.067  1.6903 -0.5209  0.0333
10114TIP3   OH251756   2.834   6.584  16.625  0.6210  0.3424  0.3012
10114TIP3    H151757   2.891   6.661  16.632 -0.3046  1.0792 -0.0206
10114TIP3    H251758   2.849   6.551  16.537 -1.5099  2.2646 -0.8955
10115TIP3   OH251759   2.073   5.645  12.275 -0.2823  0.2653 -0.2449
10115TIP3    H151760   2.018   5.637  12.353  2.0844 -0.0278  1.5134
10115TIP3    H251761   2.061   5.735  12.246 -1.0326  0.4546  0.6208
10116TIP3   OH251762   1.613   6.543  15.115 -0.3981  0.3120 -0.2412
10116TIP3    H151763   1.677   6.475  15.094  0.0187  0.6337 -0.0491
10116TIP3    H251764   1.600   6.535  15.210 -0.0944  0.7079 -0.1618
10117TIP3   OH251765   1.197   3.106  14.015  0.0654 -0.8990 -0.0300
10117TIP3    H151766   1.186   3.160  13.937 -1.4872 -2.9072 -1.3206
10117TIP3    H251767   1.113   3.061  14.024  0.5451 -1.4575  2.2558
10118TIP3   OH251768   5.561   1.189  16.881 -0.5955  0.4002 -0.3476
10118TIP3    H151769   5.599   1.132  16.948  1.7993  0.6229 -1.3970
10118TIP3    H251770   5.602   1.275  16.896 -1.9154  1.0994 -0.5800
10119TIP3   OH251771   1.142   0.547  14.781  0.0783  0.3990 -0.5107
10119TIP3    H151772   1.103   0.615  14.836 -0.3196  0.5714 -0.9905
10119TIP3    H251773   1.068   0.492  14.755  0.6709 -1.5416  1.6241
10120TIP3   OH251774   2.360   4.512  16.850  0.3668  0.3302  0.5365
10120TIP3    H151775   2.349   4.605  16.870 -1.2434  0.0880  0.9945
10120TIP3    H251776   2.331   4.467  16.929 -0.6595 -0.5673 -0.3036
10121TIP3   OH251777   3.296   1.715  16.783  0.6744  0.1193  0.1074
10121TIP3    H151778   3.262   1.630  16.756  0.3661  0.3883 -0.3509
10121TIP3    H251779   3.261   1.727  16.872 -1.2747  0.8324 -0.7104
10122TIP3   OH251780   5.274   4.670  11.502 -0.2425  0.0482  0.1804
10122TIP3    H151781   5.182   4.695  11.510 -0.4344 -0.7370  0.4902
10122TIP3    H251782   5.283   4.593  11.558  0.2174 -0.8752 -1.1264
10123TIP3   OH251783   2.155   0.588   3.882  0.0261  0.0732  0.5543
10123TIP3    H151784   2.099   0.647   3.932 -0.3099  1.0345 -0.9108
10123TIP3    H251785   2.186   0.524   3.947  0.9986  2.2481  2.3420
10124TIP3   OH251786   2.212   0.891   1.486 -0.3404 -0.3520  0.5212
10124TIP3    H151787   2.166   0.950   1.427 -0.4709 -0.7018  0.2694
10124TIP3    H251788   2.197   0.927   1.573 -0.9938 -0.3953  0.4318
10125TIP3   OH251789   0.041   1.944   1.074 -0.2153  0.0959 -0.6990
10125TIP3    H151790   0.027   1.954   1.168  0.7871  1.6389 -0.6887
10125TIP3    H251791   0.028   1.850   1.058 -0.9333 -0.1051  0.8663
10126TIP3   OH251792   6.700   0.024  14.428  0.2297 -0.5360  0.4445
10126TIP3    H151793   6.728   0.099  14.375 -1.1138 -0.7496 -0.5855
10126TIP3    H251794   6.729  -0.053  14.379 -1.7440 -0.7552 -0.4633
10127TIP3   OH251795   1.754   3.462  16.627 -0.3782  0.0734 -0.5649
10127TIP3    H151796   1.679   3.519  16.615 -0.2815  0.0200 -1.4408
10127TIP3    H251797   1.803   3.502  16.700 -0.3810  1.0287 -1.0804
10128TIP3   OH251798   4.992   1.176   3.086  0.3755 -0.2650 -0.6455
10128TIP3    H151799   5.018   1.183   3.178  0.4954 -0.7532 -0.6404
10128TIP3    H251800   4.953   1.089   3.079 -2.0998  0.7483 -0.4352
10129TIP3   OH251801   2.286   6.364  12.139  0.2748  0.3763 -0.3244
10129TIP3    H151802   2.362   6.414  12.168 -0.0564  0.8955 -0.3362
10129TIP3    H251803   2.315   6.273  12.137  0.3851  0.3595  1.3479
10130TIP3   OH251804   1.243   5.914   0.482  0.2949 -0.0090  0.4818
10130TIP3    H151805   1.201   5.865   0.553  1.1469  0.5555  1.4072
10130TIP3    H251806   1.177   5.978   0.455 -0.9147 -1.7278 -0.8913
10131TIP3   OH251807   5.857   4.216   0.777  0.1045  0.3532 -0.1882
10131TIP3    H151808   5.858   4.299   0.729  0.4162  0.7784  0.5315
10131TIP3    H251809   5.817   4.238   0.861 -1.5633 -0.6409 -0.6790
10132TIP3   OH251810   6.275   2.904   2.158  0.1945 -0.3802  0.3794
10132TIP3    H151811   6.183   2.915   2.184  0.3496  0.6023  0.5536
10132TIP3    H251812   6.304   2.825   2.206 -0.4347 -0.4528  0.6536
10133TIP3   OH251813   4.158   4.234   5.910  0.5016 -0.3526  0.3864
10133TIP3    H151814   4.130   4.146   5.886 -0.4171  0.3172 -1.0849
10133TIP3    H251815   4.203   4.268   5.832  0.6321  0.5760  0.8483
10134TIP3   OH251816   3.060   4.607   2.469  0.3080 -0.0381  0.5799
10134TIP3    H151817   3.156   4.609   2.472  0.2722  0.0465  1.7946
10134TIP3    H251818   3.033   4.686   2.515 -0.3437  1.2217 -1.8041
10135TIP3   OH251819   1.427   4.691   6.506 -0.1378  0.2381  0.4468
10135TIP3    H151820   1.364   4.667   6.574 -0.1526  2.5608  1.3368
10135TIP3    H251821   1.374   4.731   6.437  0.0504 -0.7901 -0.3299
10136TIP3   OH251822   5.592   4.952   1.151  0.1459  0.3490 -0.4514
10136TIP3    H151823   5.497   4.938   1.159  0.3842 -0.3323  2.0996
10136TIP3    H251824   5.627   4.866   1.126  0.0795  0.6898 -1.7587
10137TIP3   OH251825   2.185   4.961   1.898  0.3862  0.0091 -0.0177
10137TIP3    H151826   2.191   4.899   1.971 -1.9094  0.1533  0.3549
10137TIP3    H251827   2.231   4.918   1.826  0.2817 -1.3691  0.7135
10138TIP3   OH251828   3.219   4.755  11.329  0.3917 -0.0129  0.0115
10138TIP3    H151829   3.307   4.777  11.362  1.0352 -1.1828 -0.8358
10138TIP3    H251830   3.159   4.798  11.390  1.5316  2.3067 -0.3986
10139TIP3   OH251831   2.335   4.586  12.314  0.1617  0.0151 -0.2718
10139TIP3    H151832   2.403   4.578  12.380  0.7605  1.0772 -0.7420
10139TIP3    H251833   2.270   4.520  12.339  0.4148  0.3220  1.3125
10140TIP3   OH251834   6.718   5.550   4.088 -0.3588 -0.8476  0.2495
10140TIP3    H151835   6.676   5.466   4.069  0.4598 -1.0936 -0.5813
10140TIP3    H251836   6.794   5.528   4.141 -0.5127 -0.5543  0.5975
10141TIP3   OH251837   0.667   0.652   2.950  0.2072 -0.1538  0.5978
10141TIP3    H151838   0.716   0.622   2.873 -0.0950  1.8104 -0.4213
10141TIP3    H251839   0.675   0.580   3.013 -0.6072 -2.3988 -1.6989
10142TIP3   OH251840   2.011   5.266  16.556 -0.3642  0.1867 -0.1720
10142TIP3    H151841   2.100   5.235  16.573 -0.2777  0.2945 -0.4247
10142TIP3    H251842   2.019   5.361  16.548 -0.4500  0.1700 -0.5060
10143TIP3   OH251843   0.077   4.247   1.376 -1.1069 -0.0016  0.1521
10143TIP3    H151844   0.019   4.215   1.444  0.3292 -1.5213  0.7187
10143TIP3    H251845   0.123   4.169   1.344 -1.0771  0.7982 -1.9377
10144TIP3   OH251846   2.707   6.630  12.698 -0.1137  0.0434 -0.1831
10144TIP3    H151847   2.652   6.663  12.627  0.9200  2.6767  0.1203
10144TIP3    H251848   2.772   6.699  12.711  2.4346 -2.2845  0.3882
10145TIP3   OH251849   4.398   5.763  11.361 -0.2518 -0.7479 -0.4635
10145TIP3    H151850   4.373   5.813  11.439  0.1105 -2.3499  0.7266
10145TIP3    H251851   4.377   5.821  11.288 -0.1530  0.9986  0.8281
10146TIP3   OH251852   3.018   4.855  10.828 -0.5982 -0.4668 -0.6163
10146TIP3    H151853   3.073   4.904  10.766 -1.5029  0.4141 -0.7380
10146TIP3    H251854   2.989   4.778  10.779 -0.9851  0.0238 -1.1662
10147TIP3   OH251855   3.836   3.226  13.924  0.2504  0.1579  0.2919
10147TIP3    H151856   3.758   3.183  13.959  0.8255  0.1956  1.6613
10147TIP3    H251857   3.909   3.168  13.949  0.5630 -0.9175 -2.6161
10148TIP3   OH251858   1.799   1.070  17.042 -1.0060  0.0277 -0.1115
10148TIP3    H151859   1.715   1.026  17.057 -2.2034  2.2512  0.0939
10148TIP3    H251860   1.802   1.140  17.107 -0.2501  1.6763 -1.8006
10149TIP3   OH251861   5.175   4.687  13.749  0.1852  0.3775  0.1327
10149TIP3    H151862   5.176   4.591  13.745 -0.5204  0.4065 -1.2558
10149TIP3    H251863   5.168   4.706  13.842 -2.6771 -0.9918  0.3141
10150TIP3   OH251864   1.800   1.188   4.920  0.0133  0.1575  0.0889
10150TIP3    H151865   1.743   1.261   4.944  1.5803  1.1243  0.9612
10150TIP3    H251866   1.889   1.222   4.929  0.8384 -2.1881  1.6563
10151TIP3   OH251867   0.807   5.641  13.978  0.3179  0.2487 -0.2143
10151TIP3    H151868   0.713   5.623  13.967 -0.0418  1.5719  0.3926
10151TIP3    H251869   0.829   5.603  14.063 -0.0558  1.2267  0.3396
10152TIP3   OH251870   3.443   5.983   5.379 -0.0213 -0.2166 -0.3982
10152TIP3    H151871   3.358   5.988   5.335 -0.1920  1.9144  0.1059
10152TIP3    H251872   3.470   6.074   5.391  0.0406 -0.6216  3.8588
10153TIP3   OH251873   2.142   5.809  15.540  0.0588  0.3690 -0.0246
10153TIP3    H151874   2.157   5.778  15.629 -0.6149  1.8887  0.6484
10153TIP3    H251875   2.117   5.731  15.491 -0.9615 -0.2626  1.4486
10154TIP3   OH251876   6.314   0.071  11.226 -0.5201  0.3179 -0.4086
10154TIP3    H151877   6.389   0.020  11.195  1.3788  3.1139 -0.8250
10154TIP3    H251878   6.276   0.108  11.147 -0.8025  0.8748 -0.0161
10155TIP3   OH251879   4.471   1.615  14.433 -0.7740 -0.4011  0.4998
10155TIP3    H151880   4.513   1.557  14.369 -2.3109  0.1683 -1.1317
10155TIP3    H251881   4.524   1.694  14.432  1.6380 -1.8097  3.1140
10156TIP3   OH251882   2.383   4.494  12.610 -0.9688  0.0440 -0.0275
10156TIP3    H151883   2.474   4.519  12.599 -0.4416 -1.5099  0.5049
10156TIP3    H251884   2.333   4.575  12.596  0.4718  0.8942 -0.3828
10157TIP3   OH251885   1.445   0.218   5.941 -0.2527 -0.3640  0.1154
10157TIP3    H151886   1.499   0.141   5.963  1.2781  0.8384  0.7151
10157TIP3    H251887   1.482   0.250   5.859 -0.5104  0.0542  0.1636
10158TIP3   OH251888   6.445   2.676   4.062  0.4783  0.0125 -0.0307
10158TIP3    H151889   6.443   2.612   4.133 -1.6193  0.0300 -0.0373
10158TIP3    H251890   6.498   2.748   4.097  1.8878 -1.1774  0.4102
10159TIP3   OH251891   4.719   0.996  14.535  0.4624  0.2018 -0.5393
10159TIP3    H151892   4.699   1.036  14.451 -3.5819 -0.2417  0.0101
10159TIP3    H251893   4.727   1.070  14.595  0.3198  0.4143 -0.7811
10160TIP3   OH251894   1.196   3.822  13.871  0.4147 -0.1491 -0.2462
10160TIP3    H151895   1.226   3.912  13.856  2.1969 -1.0124 -2.5634
10160TIP3    H251896   1.136   3.804  13.799 -0.9734 -0.4346  0.9471
10161TIP3   OH251897   0.787   6.413   5.927 -0.1252  0.3162 -0.5158
10161TIP3    H151898   0.784   6.506   5.951 -2.0335  0.1219  0.1640
10161TIP3    H251899   0.740   6.408   5.844 -0.9399 -0.1644 -0.0393
10162TIP3   OH251900   2.588   0.891  15.309  0.4121  0.3824 -0.2257
10162TIP3    H151901   2.614   0.870  15.220  1.3867  2.1309 -0.3922
10162TIP3    H251902   2.492   0.885  15.309  0.4837 -0.9667 -1.0037
10163TIP3   OH251903   2.399   0.710  14.571 -0.3369  0.5841 -0.4450
10163TIP3    H151904   2.389   0.717  14.476 -1.1130 -1.2099 -0.5462
10163TIP3    H251905   2.493   0.698  14.585 -0.1629  1.3423 -0.9374
10164TIP3   OH251906   4.662   3.313   0.209 -0.6949  0.6323  0.0855
10164TIP3    H151907   4.726   3.251   0.245 -1.4575 -0.1172  0.1822
10164TIP3    H251908   4.608   3.337   0.284 -1.7938 -0.3211 -0.3639
10165TIP3   OH251909   4.397   4.601  14.293 -0.4724  0.1848  0.3953
10165TIP3    H151910   4.433   4.626  14.378 -0.0882  0.0703  0.2682
10165TIP3    H251911   4.460   4.537  14.259  0.7549  2.0990 -1.1083
10166TIP3   OH251912   1.109   5.528  14.834 -0.4378  0.6841  0.1632
10166TIP3    H151913   1.201   5.554  14.823 -0.0943 -0.5578  0.0086
10166TIP3    H251914   1.111   5.432  14.833 -2.0124  0.6014 -2.1494
10167TIP3   OH251915   1.464   4.982  11.451  0.6335  0.5035  0.4864
10167TIP3    H151916   1.443   4.948  11.363 -0.0589  1.2611  0.3356
10167TIP3    H251917   1.521   4.917  11.489 -0.0545 -0.4561 -0.0712
10168TIP3   OH251918   4.006   0.609  16.478  0.5059 -0.9295  0.0821
10168TIP3    H151919   4.058   0.689  16.487  1.4410 -1.5504  0.3093
10168TIP3    H251920   3.952   0.624  16.400  0.4171  0.0569  0.3224
10169TIP3   OH251921   2.942   4.497   0.358 -0.4993 -0.9579  0.3718
10169TIP3    H151922   2.954   4.503   0.453  0.9415 -1.7907  0.2745
10169TIP3    H251923   2.889   4.419   0.345  0.2412 -1.4794  0.4459
10170TIP3   OH251924   5.051   0.973  12.078  0.0375 -0.0185 -0.2294
10170TIP3    H151925   5.074   0.889  12.038  0.8051  0.2728 -0.4063
10170TIP3    H251926   5.021   0.950  12.166  0.9354 -0.4144 -0.0205
10171TIP3   OH251927   3.711   0.976  14.962 -0.0579  0.2773 -0.1261
10171TIP3    H151928   3.773   1.049  14.968  1.6042 -0.8682 -2.0911
10171TIP3    H251929   3.722   0.942  14.873 -0.5661 -2.5066  0.7562
10172TIP3   OH251930   4.245   6.756  11.821  0.5006 -0.8386  0.0650
10172TIP3    H151931   4.318   6.777  11.879 -0.5870 -0.7083  1.4248
10172TIP3    H251932   4.176   6.723  11.879 -0.5642 -0.8807 -1.1750
10173TIP3   OH251933   1.030   0.513   6.124 -0.0829 -0.4808  0.7123
10173TIP3    H151934   0.992   0.463   6.196  0.3519  0.1382  1.3924
10173TIP3    H251935   1.103   0.459   6.094 -0.3343 -0.7947  0.6609
10174TIP3   OH251936   1.980   3.909  10.239 -0.4756 -0.0329 -0.1337
10174TIP3    H151937   2.009   4.000  10.232 -1.6165  0.4499  1.0158
10174TIP3    H251938   1.901   3.913  10.294 -0.4405 -1.7331  0.0953
10175TIP3   OH251939   6.153   3.987  12.660  0.1578 -0.2426 -0.0037
10175TIP3    H151940   6.146   4.044  12.737  1.2630  1.3286 -1.0033
10175TIP3    H251941   6.236   3.941  12.672  0.3008 -0.0421 -0.1991
10176TIP3   OH251942   6.561   6.456   4.084 -0.4629 -0.0404 -0.5740
10176TIP3    H151943   6.612   6.396   4.030 -0.2386 -1.0096  0.6524
10176TIP3    H251944   6.473   6.418   4.085 -0.2260 -0.6353  0.5333
10177TIP3   OH251945   3.418   0.891   3.431  0.4789 -0.0979 -0.1409
10177TIP3    H151946   3.352   0.830   3.465  1.6548 -1.1853  0.2528
10177TIP3    H251947   3.436   0.950   3.505  0.5807 -0.3509  0.0379
10178TIP3   OH251948   4.726   2.750  17.074 -0.0169 -0.2665 -0.1656
10178TIP3    H151949   4.679   2.701  17.006 -1.8322  0.7439  0.2932
10178TIP3    H251950   4.704   2.706  17.156 -2.4094  1.7086  0.3623
10179TIP3   OH251951   0.373   1.101   1.201 -0.0303 -0.3710  0.0942
10179TIP3    H151952   0.337   1.014   1.182 -2.8575  0.5420  0.7912
10179TIP3    H251953   0.367   1.148   1.118 -2.1698  0.2597  0.5226
10180TIP3   OH251954   3.420   1.175  14.222 -0.4175  0.2767  0.2256
10180TIP3    H151955   3.324   1.170  14.218 -0.4177 -1.1203  1.1995
10180TIP3    H251956   3.449   1.154  14.133 -1.0220  2.8487 -0.6628
10181TIP3   OH251957   2.027   5.055  13.820  0.3956  0.0550 -0.2178
10181TIP3    H151958   2.115   5.080  13.792  0.0031  1.0730 -0.5730
10181TIP3    H251959   2.041   4.975  13.871  1.3158 -0.8451 -1.8064
10182TIP3   OH251960   5.725   2.018   2.924  0.6846  0.8765 -0.4091
10182TIP3    H151961   5.748   1.942   2.976 -1.2222 -0.3840 -1.2859
10182TIP3    H251962   5.718   2.089   2.987  3.0989  0.5389  0.3511
10183TIP3   OH251963   5.169   3.787   2.459 -0.0650 -0.1540 -0.1086
10183TIP3    H151964   5.197   3.801   2.550  0.4922 -0.8856 -0.1553
10183TIP3    H251965   5.229   3.840   2.407 -0.7926  0.7741 -0.0180
10184TIP3   OH251966   4.484   5.069   3.152 -0.3426 -0.4741 -0.2755
10184TIP3    H151967   4.566   5.020   3.142  1.4569  2.0641  0.7023
10184TIP3    H251968   4.430   5.015   3.210  1.2795 -1.5834  0.2712
10185TIP3   OH251969   5.205   2.642   0.458  0.3003 -0.1954  0.0108
10185TIP3    H151970   5.151   2.586   0.402  0.5440  0.1581 -0.5793
10185TIP3    H251971   5.165   2.633   0.545 -0.9557  0.3492 -0.4760
10186TIP3   OH251972   3.720   1.867   2.451 -0.5946  0.0337  0.4686
10186TIP3    H151973   3.709   1.845   2.358 -2.5380 -0.0077  0.6670
10186TIP3    H251974   3.754   1.957   2.449  3.7230 -1.3382 -0.2618
10187TIP3   OH251975   6.405   4.780   4.313  0.5029  0.6467 -0.4544
10187TIP3    H151976   6.427   4.698   4.357 -0.5901 -0.5267 -1.9559
10187TIP3    H251977   6.486   4.808   4.272  0.5000 -0.7127 -1.4565
10188TIP3   OH251978   2.460   4.176   3.221 -0.2055  0.1298  0.2628
10188TIP3    H151979   2.536   4.234   3.223 -0.4070  0.4858 -1.4647
10188TIP3    H251980   2.402   4.209   3.290  0.1235  1.3525 -0.0395
10189TIP3   OH251981   4.932   5.019  10.752  0.0583  0.4276 -0.7277
10189TIP3    H151982   4.899   4.950  10.695  0.3783  1.0936 -1.7448
10189TIP3    H251983   4.989   5.071  10.696  1.7127  0.1504  0.6114
10190TIP3   OH251984   3.776   6.443  13.945 -0.2015  0.3855  0.3967
10190TIP3    H151985   3.760   6.350  13.960  1.2091 -0.1122 -0.9058
10190TIP3    H251986   3.697   6.486  13.976 -1.3144 -1.3394  0.1028
10191TIP3   OH251987   1.770   5.169  16.432  0.1506 -0.3108 -0.1644
10191TIP3    H151988   1.774   5.195  16.340  0.5463 -0.6086 -0.2301
10191TIP3    H251989   1.842   5.216  16.474 -1.5792  1.9537  0.5436
10192TIP3   OH251990   4.499   5.240  15.927  0.0946  0.2642  0.2506
10192TIP3    H151991   4.540   5.173  15.982 -1.8438 -0.4353  0.9486
10192TIP3    H251992   4.412   5.205  15.908  0.4249  0.7998 -2.7486
10193TIP3   OH251993   5.232   2.051   4.604  0.0124 -0.3401 -0.1172
10193TIP3    H151994   5.302   1.995   4.569 -0.2312  0.5972 -2.2837
10193TIP3    H251995   5.158   1.992   4.615  0.3869 -0.8555 -0.3152
10194TIP3   OH251996   6.689   3.266  16.644 -0.2112 -0.2272 -0.7097
10194TIP3    H151997   6.638   3.346  16.636 -1.4553 -0.9572 -0.4386
10194TIP3    H251998   6.776   3.295  16.670 -1.0460  0.9608  0.9816
10195TIP3   OH251999   3.696   0.934  14.274  0.4048 -0.2672  0.0893
10195TIP3    H152000   3.633   0.876  14.317 -0.0869  0.5588  0.5106
10195TIP3    H252001   3.702   0.900  14.184 -1.5005  0.2842 -0.3032
10196TIP3   OH252002   0.140   3.423   0.206  0.0513 -0.6716 -0.5588
10196TIP3    H152003   0.149   3.442   0.113 -1.9043 -1.4446 -0.9402
10196TIP3    H252004   0.115   3.331   0.210 -1.2381 -0.3020  0.6517
10197TIP3   OH252005   5.463   0.621  15.052 -0.2596 -0.1832  0.2564
10197TIP3    H152006   5.387   0.563  15.042 -0.4607  0.3557 -1.7769
10197TIP3    H252007   5.485   0.616  15.145 -1.7291 -1.6706  0.5689
10198TIP3   OH252008   1.249   4.710   4.320 -0.3318  0.0926  0.1141
10198TIP3    H152009   1.315   4.671   4.263  0.7387  2.7192 -0.6246
10198TIP3    H252010   1.167   4.703   4.270  0.2257  0.5844 -0.9170
10199TIP3   OH252011   5.579   1.409   1.641 -0.2791 -0.0922 -0.0826
10199TIP3    H152012   5.579   1.427   1.547  0.1842  2.8684  0.3877
10199TIP3    H252013   5.642   1.339   1.651  0.4603  0.2380 -1.8908
10200TIP3   OH252014   4.528   5.365   0.550  0.4717  0.0415 -0.4654
10200TIP3    H152015   4.433   5.377   0.547  0.1484 -1.8129  0.6535
10200TIP3    H252016   4.545   5.289   0.494  1.2537  0.1230 -0.3580
10201TIP3   OH252017   4.565   2.919  15.199  0.7837 -0.4443 -0.5108
10201TIP3    H152018   4.518   2.847  15.158  0.4603 -0.5902  0.1019
10201TIP3    H252019   4.527   2.998  15.159  1.1760 -0.6059 -1.2168
10202TIP3   OH252020   5.665   2.120   1.094  0.0542  0.1105  0.1265
10202TIP3    H152021   5.726   2.047   1.106 -1.3421 -0.8923  1.4773
10202TIP3    H252022   5.702   2.192   1.145  0.3405 -0.3449  0.5693
10203TIP3   OH252023   5.133   2.059   5.379 -0.6813 -0.6909 -0.0429
10203TIP3    H152024   5.046   2.054   5.339 -1.3954  1.3929  1.0913
10203TIP3    H252025   5.116   2.055   5.473  0.4196  0.1062  0.2032
10204TIP3   OH252026   3.005   4.136   4.147 -0.1390  0.4392 -0.3102
10204TIP3    H152027   2.982   4.223   4.180  1.1542  0.6693  0.0619
10204TIP3    H252028   3.070   4.152   4.079 -1.2191 -0.1580 -1.5141
10205TIP3   OH252029   1.095   3.051  11.555  0.1088 -0.2907  0.3644
10205TIP3    H152030   1.154   3.113  11.598 -2.6680  1.6126  1.6943
10205TIP3    H252031   1.087   3.084  11.466  0.6861 -0.3259  0.2910
10206TIP3   OH252032   2.185   3.859  12.470 -0.3815 -0.0415  0.4917
10206TIP3    H152033   2.160   3.772  12.441 -0.1166  0.4144 -1.1979
10206TIP3    H252034   2.172   3.857  12.565  0.1335 -2.0667  0.5581
10207TIP3   OH252035   2.303   2.382   5.682  0.5868 -0.4465 -0.3635
10207TIP3    H152036   2.316   2.441   5.756 -0.5321  0.8530 -1.1660
10207TIP3    H252037   2.324   2.434   5.605 -1.4730 -0.7087 -1.1648
10208TIP3   OH252038   1.133   0.251   3.839  0.0926 -0.3666 -0.1831
10208TIP3    H152039   1.085   0.301   3.905  0.2505  0.0804 -0.3966
10208TIP3    H252040   1.091   0.274   3.756 -1.3662 -2.4386 -0.0599
10209TIP3   OH252041   4.471   1.774   4.584 -0.5011 -0.7111 -0.5936
10209TIP3    H152042   4.563   1.782   4.558 -0.5922  1.7437 -0.3695
10209TIP3    H252043   4.474   1.747   4.676  0.1609  2.5001  0.4362
10210TIP3   OH252044   6.776   3.016  14.118  0.4009 -0.4629  0.2419
10210TIP3    H152045   6.779   2.985  14.208  1.4793  0.9992  0.7432
10210TIP3    H252046   6.855   3.068  14.108 -0.7906  1.2218 -0.8694
10211TIP3   OH252047   4.058   4.932   2.963  0.5599  0.2188 -0.0196
10211TIP3    H152048   4.127   4.899   2.905  1.0569  0.8362  0.2047
10211TIP3    H252049   4.105   4.966   3.039 -0.0966 -0.7393  0.8343
10212TIP3   OH252050   4.363   0.072  16.028 -0.0562 -0.0342  0.6450
10212TIP3    H152051   4.269   0.054  16.038  0.0468 -0.0299  1.6744
10212TIP3    H252052   4.374   0.086  15.934 -1.5790  2.6459  0.7614
10213TIP3   OH252053   4.428   3.421   6.252 -0.4753  0.4266  0.1215
10213TIP3    H152054   4.497   3.357   6.232  1.7534  2.5887  0.3937
10213TIP3    H252055   4.350   3.387   6.207  0.6562 -2.2573 -0.0271
10214TIP3   OH252056   1.355   5.468  13.016  0.0581 -0.6566  0.1433
10214TIP3    H152057   1.433   5.511  12.981  0.4632 -1.5325 -0.0531
10214TIP3    H252058   1.381   5.377  13.027 -0.5720 -0.7212  1.1979
10215TIP3   OH252059   6.526   6.433  15.933 -0.3274  0.0348  0.1626
10215TIP3    H152060   6.595   6.490  15.900  0.6706 -0.8984  0.5717
10215TIP3    H252061   6.543   6.427  16.027 -0.1172 -1.3181  0.0554
10216TIP3   OH252062   0.452   6.752   1.630 -0.0570  0.6850  1.1130
10216TIP3    H152063   0.412   6.667   1.647 -1.3286  0.7742 -1.1140
10216TIP3    H252064   0.395   6.815   1.675 -1.5120  0.6643 -0.6170
10217TIP3   OH252065   1.541   1.739  11.471  0.1626  0.0706  0.8287
10217TIP3    H152066   1.510   1.676  11.537 -1.9193 -0.5101 -0.6029
10217TIP3    H252067   1.591   1.803  11.521  1.2533 -1.9945  2.5375
10218TIP3   OH252068   0.816   0.024  15.500 -0.1532  0.8248 -0.0520
10218TIP3    H152069   0.740   0.082  15.490 -1.0969 -0.3207  0.1665
10218TIP3    H252070   0.823   0.012  15.595 -0.5781 -0.1573 -0.1301
10219TIP3   OH252071   4.170   4.811  16.667  0.2208  0.1545 -0.1011
10219TIP3    H152072   4.118   4.767  16.734  1.1886  0.3656  0.8262
10219TIP3    H252073   4.111   4.819  16.592 -0.8154 -0.3101  0.6352
10220TIP3   OH252074   4.277   4.644   1.124 -0.5255  0.4467  0.1129
10220TIP3    H152075   4.325   4.577   1.173 -1.1298  1.3296  2.0178
10220TIP3    H252076   4.274   4.611   1.034  1.0928 -1.0025  0.5429
10221TIP3   OH252077   6.294   6.343   3.826  0.2240 -0.3739 -0.0326
10221TIP3    H152078   6.287   6.384   3.913  0.1986  0.7930 -0.5716
10221TIP3    H252079   6.386   6.317   3.820  0.7006  1.2321 -0.3630
10222TIP3   OH252080   2.215   5.938  16.746  0.1400  0.1505  0.2779
10222TIP3    H152081   2.129   5.938  16.704 -0.4048 -1.2104  1.3249
10222TIP3    H252082   2.272   5.891  16.686 -0.4020 -0.9234  0.5737
10223TIP3   OH252083   3.165   1.072  12.704  0.2093 -0.7320  0.1126
10223TIP3    H152084   3.259   1.057  12.713  0.4345 -0.7435 -1.7717
10223TIP3    H252085   3.149   1.064  12.610 -1.8916 -1.8971  0.5199
10224TIP3   OH252086   0.124   2.141   6.319  0.0593 -0.2052  0.1560
10224TIP3    H152087   0.089   2.199   6.386  1.7841 -1.0952  1.9467
10224TIP3    H252088   0.047   2.108   6.273 -1.1900  0.4947  1.6482
10225TIP3   OH252089   4.727   5.252   5.630 -0.5433 -0.0563  0.2853
10225TIP3    H152090   4.701   5.340   5.659 -0.9283  0.1952 -0.7706
10225TIP3    H252091   4.678   5.193   5.687 -1.4192  0.4228  0.0553
10226TIP3   OH252092   4.296   3.636   2.031  0.5743  0.1364 -0.0597
10226TIP3    H152093   4.276   3.718   1.985 -2.4538  0.0635  0.9262
10226TIP3    H252094   4.255   3.568   1.978  2.1989 -0.6903 -0.3209
10227TIP3   OH252095   4.677   3.675   5.355 -0.4788  0.2751  0.5448
10227TIP3    H152096   4.735   3.647   5.284 -0.1881  0.6916  0.6154
10227TIP3    H252097   4.589   3.665   5.319 -0.3884 -0.8104  0.6031
10228TIP3   OH252098   2.188   0.077  14.192 -0.6107 -0.7372  0.4817
10228TIP3    H152099   2.272   0.084  14.238  1.7275  1.4332 -3.5766
10228TIP3    H252100   2.206   0.019  14.118 -1.5749  2.2005 -2.2982
10229TIP3   OH252101   3.294   0.242   4.101 -0.2177  0.8088 -0.8039
10229TIP3    H152102   3.297   0.211   4.191  1.5266  2.0186 -0.3989
10229TIP3    H252103   3.240   0.178   4.055 -2.2281  0.8668  1.3282
10230TIP3   OH252104   1.610   4.924   6.010  0.3721  0.4423  0.2266
10230TIP3    H152105   1.592   4.965   6.094 -1.1334  0.6517 -0.1780
10230TIP3    H252106   1.609   4.830   6.028 -2.5740  0.3650  0.0137
10231TIP3   OH252107   5.161   0.442  11.914  0.3562  0.3639  0.3351
10231TIP3    H152108   5.245   0.483  11.932  0.1076  0.6821  0.7989
10231TIP3    H252109   5.142   0.391  11.994 -0.6425  1.5819  0.9006
10232TIP3   OH252110   1.251   0.192   0.249  0.1199  0.0233 -0.8225
10232TIP3    H152111   1.220   0.259   0.311  0.2544 -0.4073 -0.2843
10232TIP3    H252112   1.342   0.177   0.274  0.3021  0.1462 -1.3965
10233TIP3   OH252113   4.997   4.559   4.772  0.2771  0.7920 -0.8374
10233TIP3    H152114   5.068   4.495   4.769  0.8826  1.4711 -1.0595
10233TIP3    H252115   5.010   4.615   4.696 -0.1606  1.2820 -0.5637
10234TIP3   OH252116   0.084   5.600  14.790 -0.0997 -0.4698 -0.0602
10234TIP3    H152117   0.055   5.553  14.868  0.3990  0.0928  0.4746
10234TIP3    H252118   0.032   5.681  14.791  1.8029  0.8327  1.2363
10235TIP3   OH252119   5.030   6.269   2.406  0.1430 -0.6821  0.4285
10235TIP3    H152120   4.939   6.270   2.437 -0.1881 -1.1964 -0.4817
10235TIP3    H252121   5.080   6.304   2.479 -0.8090 -0.1911  0.8732
10236TIP3   OH252122   4.319   1.770   5.513 -0.4353  0.1781 -0.4261
10236TIP3    H152123   4.326   1.814   5.428  0.8298 -1.2456 -1.1024
10236TIP3    H252124   4.288   1.682   5.491  1.8736 -0.9013  0.3169
10237TIP3   OH252125   3.749   5.027  16.321 -0.2278  0.3794 -0.0025
10237TIP3    H152126   3.745   4.946  16.371 -1.1605  0.2780 -0.2238
10237TIP3    H252127   3.839   5.030  16.287  0.2607  0.1907  1.2224
10238TIP3   OH252128   3.113   5.111   2.633  0.1425 -0.4188  0.2771
10238TIP3    H152129   3.155   5.156   2.559  4.2555 -0.2238  2.4346
10238TIP3    H252130   3.051   5.175   2.667 -1.0264 -0.0882 -2.2447
10239TIP3   OH252131   6.626   2.158  14.773 -0.2939  0.7255  0.2326
10239TIP3    H152132   6.596   2.073  14.804 -1.6768  1.6535  1.6287
10239TIP3    H252133   6.599   2.161  14.681 -0.1679 -0.3524  0.1491
10240TIP3   OH252134   6.771   3.251  13.079 -0.3682  0.3241  0.4078
10240TIP3    H152135   6.793   3.297  13.160  0.9647  0.2422  0.1181
10240TIP3    H252136   6.787   3.315  13.010  0.7956 -0.3350  0.0523
10241TIP3   OH252137   4.781   4.281   0.551  0.1671 -0.1294 -0.0507
10241TIP3    H152138   4.774   4.269   0.457 -1.3201  2.4557 -0.3516
10241TIP3    H252139   4.733   4.207   0.588 -0.0857 -0.6443 -1.3486
10242TIP3   OH252140   4.980   2.667   0.652 -0.2652  0.6394  0.0474
10242TIP3    H152141   5.027   2.607   0.710  1.3775 -0.2635 -2.0577
10242TIP3    H252142   5.009   2.754   0.680  1.9309  0.1453 -0.5001
10243TIP3   OH252143   1.983   4.538  14.839 -0.6514 -0.2863  0.1905
10243TIP3    H152144   1.899   4.583  14.840  0.5508  2.1900  1.1302
10243TIP3    H252145   2.046   4.608  14.820  1.1550 -2.1477 -1.0395
10244TIP3   OH252146   4.474   5.045  12.292  0.4659 -0.1068  0.2039
10244TIP3    H152147   4.552   4.998  12.323  0.3501 -0.0943  0.5179
10244TIP3    H252148   4.446   5.098  12.367 -0.0974 -0.4363  0.2313
10245TIP3   OH252149   1.703   0.542   1.874 -0.1565  0.4093  0.0622
10245TIP3    H152150   1.628   0.510   1.823 -0.3497 -0.0123  0.6053
10245TIP3    H252151   1.690   0.506   1.961  0.5949  0.4723  0.2052
10246TIP3   OH252152   3.023   5.218  12.232  0.2270 -0.1458  0.5265
10246TIP3    H152153   2.958   5.235  12.164 -0.2395 -0.1047  0.9792
10246TIP3    H252154   3.030   5.123  12.236 -0.3970 -0.1752  1.0261
10247TIP3   OH252155   5.899   2.547   3.317  0.1885 -0.0340 -0.0256
10247TIP3    H152156   5.919   2.592   3.235  1.3281 -1.1344 -0.3839
10247TIP3    H252157   5.957   2.471   3.318 -1.0253 -1.0064  0.9903
10248TIP3   OH252158   2.990   2.002   5.607 -0.4989  0.1492 -0.0064
10248TIP3    H152159   3.038   2.053   5.541 -0.8255  0.3773 -0.0714
10248TIP3    H252160   3.018   2.039   5.690  1.1175 -1.1696  0.0896
10249TIP3   OH252161   3.520   6.593  14.450  0.4349 -0.0259  0.1762
10249TIP3    H152162   3.561   6.667  14.495  0.0224 -0.4057  1.2114
10249TIP3    H252163   3.512   6.525  14.517 -1.4989 -0.1077 -0.0580
10250TIP3   OH252164   0.443   5.740   2.193  0.1641 -0.3083  0.3737
10250TIP3    H152165   0.496   5.661   2.193  0.3347 -0.1949  0.0346
10250TIP3    H252166   0.359   5.713   2.232  0.5659 -0.4187  1.1934
10251TIP3   OH252167   1.177   3.699  16.171  0.1893  1.0088 -0.2954
10251TIP3    H152168   1.200   3.718  16.080  1.5026  1.8922  0.1984
10251TIP3    H252169   1.122   3.621  16.165 -0.4928  1.5603 -1.9095
10252TIP3   OH252170   6.162   6.595   5.883  0.2268  0.5371 -0.2086
10252TIP3    H152171   6.150   6.684   5.850 -2.2818  0.2144 -0.3587
10252TIP3    H252172   6.182   6.606   5.976  2.3020  1.2956 -0.7042
10253TIP3   OH252173   5.876   2.500   2.039 -0.4236  0.4204 -0.4768
10253TIP3    H152174   5.807   2.443   2.004 -0.0948 -1.2542  1.4512
10253TIP3    H252175   5.945   2.498   1.973 -0.9802 -0.3154 -1.0556
10254TIP3   OH252176   2.118   3.642  10.117 -0.5530  0.0554 -0.7112
10254TIP3    H152177   2.190   3.705  10.122 -0.6628  0.0956  0.7992
10254TIP3    H252178   2.103   3.629  10.023  1.3926  0.0669 -1.0496
10255TIP3   OH252179   1.653   1.158   1.931  0.4104 -0.5830 -0.3330
10255TIP3    H152180   1.678   1.213   1.858  1.6905 -0.0600  0.4651
10255TIP3    H252181   1.666   1.212   2.008 -1.3783 -0.9494  0.2939
10256TIP3   OH252182   6.689   4.072   5.861 -0.3743 -0.0992  0.7862
10256TIP3    H152183   6.717   3.986   5.891 -0.7307 -0.1557  0.9605
10256TIP3    H252184   6.768   4.126   5.866 -0.1550 -0.4090  0.6942
10257TIP3   OH252185   6.524   0.648  13.783  0.3775  0.2314  0.5508
10257TIP3    H152186   6.480   0.706  13.721  1.9714  0.1303 -0.7474
10257TIP3    H252187   6.482   0.563  13.770  1.0396  0.0814 -0.8385
10258TIP3   OH252188   4.030   0.530  12.324 -0.1133 -0.5252  0.2961
10258TIP3    H152189   4.072   0.592  12.384 -1.5996 -0.8918  1.7573
10258TIP3    H252190   3.937   0.543  12.338 -0.5529 -0.2096 -2.3982
10259TIP3   OH252191   5.069   0.610   2.272  0.8698 -0.0028 -0.2480
10259TIP3    H152192   5.150   0.587   2.225  0.3915  0.5290 -1.3918
10259TIP3    H252193   5.074   0.561   2.354  2.7512  0.6776  0.0961
10260TIP3   OH252194   0.104   0.059   2.709 -0.0324  0.2774  0.1875
10260TIP3    H152195   0.197   0.069   2.691  0.3706 -2.1433  0.5587
10260TIP3    H252196   0.065   0.035   2.625  0.2208 -1.5373  0.5407
10261TIP3   OH252197   2.041   0.520  13.069 -0.0129  0.3772  0.5255
10261TIP3    H152198   2.124   0.497  13.111 -0.1745  1.1902  1.3352
10261TIP3    H252199   1.987   0.555  13.140 -0.9950  0.0162 -0.0185
10262TIP3   OH252200   5.770   3.202   6.095  0.0340 -0.3462  0.4604
10262TIP3    H152201   5.811   3.131   6.145 -0.0006  0.7102  2.0708
10262TIP3    H252202   5.711   3.243   6.158 -3.0192 -1.3418 -1.5252
10263TIP3   OH252203   3.869   1.964  12.234 -0.0087 -0.4210 -0.2261
10263TIP3    H152204   3.792   1.914  12.205 -0.2335  0.0979 -0.5463
10263TIP3    H252205   3.865   2.044  12.182 -0.7199  0.7986  1.6188
10264TIP3   OH252206   3.779   3.116   6.298 -0.0008  0.0737 -0.5512
10264TIP3    H152207   3.690   3.082   6.283 -0.0036 -1.4609  2.1916
10264TIP3    H252208   3.766   3.198   6.345  0.0175 -0.0772 -0.2796
10265TIP3   OH252209   3.992   3.949   5.079  0.2980  0.1009 -0.1222
10265TIP3    H152210   3.938   4.017   5.038 -0.2135 -0.4420 -0.3674
10265TIP3    H252211   4.079   3.961   5.040  0.4495  1.1708  0.4989
10266TIP3   OH252212   1.307   5.156  11.566 -0.1720  0.1828  0.1035
10266TIP3    H152213   1.372   5.099  11.525  1.3898  1.1181  1.1593
10266TIP3    H252214   1.225   5.137  11.520  0.3486 -2.6374  0.1916
10267TIP3   OH252215   3.708   0.273   0.370 -0.4327  0.1304 -0.5633
10267TIP3    H152216   3.638   0.269   0.304 -3.1231 -0.2100  2.0655
10267TIP3    H252217   3.724   0.367   0.381 -1.1415  0.2617 -0.5845
10268TIP3   OH252218   5.502   5.674   1.625 -0.4325  0.0271  0.1338
10268TIP3    H152219   5.425   5.720   1.593 -1.4181 -1.2583  0.5925
10268TIP3    H252220   5.518   5.605   1.560  2.1915  2.0382 -1.6079
10269TIP3   OH252221   0.724   3.428   4.750  0.4977  0.5151  0.4568
10269TIP3    H152222   0.792   3.426   4.683  1.9794  1.7882  1.8529
10269TIP3    H252223   0.722   3.339   4.785  1.4923  0.4809  0.4359
10270TIP3   OH252224   6.686   4.235   0.948 -0.7246 -0.2892  0.2661
10270TIP3    H152225   6.702   4.271   1.036  0.6253  0.5591 -0.2846
10270TIP3    H252226   6.658   4.311   0.897  0.9084 -0.2229 -0.6025
10271TIP3   OH252227   2.352   6.342   0.196 -0.5380  0.4280  0.7846
10271TIP3    H152228   2.376   6.414   0.253 -2.1740  0.7330  1.1138
10271TIP3    H252229   2.262   6.359   0.170 -0.5852 -0.8931 -0.0701
10272TIP3   OH252230   0.918   0.260   3.172  0.1476 -0.4639  0.8014
10272TIP3    H152231   0.915   0.293   3.082 -0.3655  0.7095  1.2267
10272TIP3    H252232   0.864   0.182   3.171 -1.3215  0.5222  0.4478
10273TIP3   OH252233   3.005   4.920   5.075 -0.1751 -0.2402  0.4545
10273TIP3    H152234   3.071   4.972   5.122 -0.7153 -0.6905  1.7601
10273TIP3    H252235   2.923   4.939   5.121 -0.4762 -1.7964  0.6185
10274TIP3   OH252236   0.730   2.609  16.307 -0.1519 -0.5342  0.1898
10274TIP3    H152237   0.759   2.604  16.216 -1.6626 -0.2819 -0.3452
10274TIP3    H252238   0.686   2.525  16.322  0.6067 -0.8095  0.8799
10275TIP3   OH252239   2.427   0.164  14.308 -0.8126 -0.0760 -0.4094
10275TIP3    H152240   2.489   0.218  14.260 -0.3070  0.9322  1.2953
10275TIP3    H252241   2.466   0.076  14.308 -0.4729  0.0684 -1.1718
10276TIP3   OH252242   3.127   5.827  11.995  0.0487 -0.0859 -0.0317
10276TIP3    H152243   3.081   5.770  12.056  1.1585  0.0329  0.9528
10276TIP3    H252244   3.135   5.775  11.915  0.7611 -1.2269  0.7414
10277TIP3   OH252245   3.152   2.824   5.202 -0.6033 -0.3257  0.1490
10277TIP3    H152246   3.078   2.881   5.225 -0.5698  0.2120 -0.9687
10277TIP3    H252247   3.119   2.773   5.128 -0.2895 -1.0478  0.5043
10278TIP3   OH252248   2.240   2.948  13.974 -0.3461  0.4684 -0.5727
10278TIP3    H152249   2.171   3.009  13.947  0.8475  1.9391 -0.4318
10278TIP3    H252250   2.291   2.933  13.895 -0.0067  0.5234 -0.3689
10279TIP3   OH252251   2.148   2.579   4.070  0.2701  0.1228 -0.2137
10279TIP3    H152252   2.195   2.497   4.082 -0.1887 -0.1589 -0.3089
10279TIP3    H252253   2.191   2.621   3.996  0.2265 -0.2415 -0.4506
10280TIP3   OH252254   3.677   1.676   2.640 -0.4968 -0.0471  0.7568
10280TIP3    H152255   3.604   1.622   2.610 -1.3579  1.5346 -0.1295
10280TIP3    H252256   3.699   1.731   2.565  0.6237  0.5532  1.4939
10281TIP3   OH252257   5.174   0.911   3.161 -0.1994  0.4710  0.6744
10281TIP3    H152258   5.243   0.973   3.184  1.1909  0.4897 -2.9460
10281TIP3    H252259   5.149   0.935   3.072 -0.7229 -3.1435 -0.3020
10282TIP3   OH252260   0.436   0.045  13.825 -0.0546 -0.3387  0.8946
10282TIP3    H152261   0.530   0.039  13.806 -0.0856 -0.5325  0.8045
10282TIP3    H252262   0.430   0.118  13.887 -0.1037  1.1376 -0.7738
10283TIP3   OH252263   2.981   6.369  15.013 -0.2443 -0.4574  0.0254
10283TIP3    H152264   3.055   6.369  14.953 -0.1980 -1.5030  0.0578
10283TIP3    H252265   2.993   6.290  15.066 -0.9721 -0.2327  0.5457
10284TIP3   OH252266   0.828   3.411   1.818  0.1347 -0.5508 -0.4973
10284TIP3    H152267   0.801   3.472   1.750  1.0060  0.5878  0.1303
10284TIP3    H252268   0.923   3.423   1.824 -0.1467  1.1378  2.4787
10285TIP3   OH252269   2.658   5.478   1.561 -0.1619  0.0744  0.3393
10285TIP3    H152270   2.620   5.562   1.587 -1.8226 -0.4533 -0.2847
10285TIP3    H252271   2.690   5.494   1.472 -0.2458  0.1196  0.3169
10286TIP3   OH252272   5.113   6.408   3.897  0.3795 -0.2114 -0.0042
10286TIP3    H152273   5.184   6.428   3.837 -0.8375  0.2184 -1.3531
10286TIP3    H252274   5.086   6.319   3.873  0.3991 -0.3387  0.4372
10287TIP3   OH252275   0.986   5.876   1.442 -0.1517 -0.0056 -0.0417
10287TIP3    H152276   1.075   5.840   1.444 -0.5326 -1.1489  3.6663
10287TIP3    H252277   0.999   5.971   1.440  1.2047 -0.1206  1.2823
10288TIP3   OH252278   4.030   0.657  11.751  0.0781  0.0827  0.5730
10288TIP3    H152279   4.039   0.673  11.657  1.5940 -0.3119  0.6243
10288TIP3    H252280   4.007   0.743  11.787  0.6337  0.4913 -0.0263
10289TIP3   OH252281   3.181   1.076  14.564 -0.6911  0.4573 -0.1523
10289TIP3    H152282   3.156   1.025  14.641 -0.7437 -1.9954 -1.6810
10289TIP3    H252283   3.264   1.039  14.536 -1.0012  0.8293 -1.6566
10290TIP3   OH252284   1.227   1.940   4.446 -0.5700  0.2719  0.1310
10290TIP3    H152285   1.179   1.862   4.416 -1.8745  0.7185  0.9656
10290TIP3    H252286   1.316   1.909   4.460 -0.8890 -0.8944 -0.2999
10291TIP3   OH252287   5.360   2.207  14.578 -0.3116 -0.0264  0.2539
10291TIP3    H152288   5.400   2.164  14.503  0.8262  0.8719  0.3270
10291TIP3    H252289   5.320   2.135  14.628  0.4094 -0.8392 -0.3011
10292TIP3   OH252290   4.892   0.162  12.836 -0.1463  0.5417 -0.0850
10292TIP3    H152291   4.798   0.172  12.820 -0.1244  1.9566  0.5110
10292TIP3    H252292   4.934   0.200  12.758 -0.0269 -1.2600 -0.9612
10293TIP3   OH252293   6.340   0.328   1.852  0.1023  0.4089 -0.5326
10293TIP3    H152294   6.313   0.244   1.814  0.4730  0.9527 -2.0858
10293TIP3    H252295   6.434   0.319   1.865  0.3453  0.9387 -1.7597
10294TIP3   OH252296   4.389   1.220  14.195 -0.0553  0.3619 -0.0827
10294TIP3    H152297   4.432   1.146  14.239 -0.8765 -1.5682 -2.3241
10294TIP3    H252298   4.303   1.186  14.171 -0.8377  2.4165 -0.3267
10295TIP3   OH252299   5.696   4.725  12.396  0.1301 -0.0599 -0.4549
10295TIP3    H152300   5.625   4.676  12.355 -0.1518  0.5103 -0.6639
10295TIP3    H252301   5.695   4.810  12.351 -0.6258  0.8361  1.1500
10296TIP3   OH252302   0.422   5.240  16.613  0.2501  0.1193 -0.0231
10296TIP3    H152303   0.482   5.291  16.559 -1.4826  2.3050 -0.0322
10296TIP3    H252304   0.342   5.293  16.616 -0.9012 -1.5953  1.8230
10297TIP3   OH252305   2.105   3.259  13.658  0.0457  0.1099  0.4505
10297TIP3    H152306   2.153   3.341  13.662  0.0172  0.0844  1.7538
10297TIP3    H252307   2.082   3.240  13.749 -0.8452 -0.8102  0.0561
10298TIP3   OH252308   1.103   1.496  15.694  0.5399 -0.3675 -0.1556
10298TIP3    H152309   1.089   1.430  15.625  1.2370  0.3829 -1.0461
10298TIP3    H252310   1.190   1.532  15.675  1.5904 -1.4193  2.2182
10299TIP3   OH252311   5.970   3.270   5.928 -0.1227  0.1171  1.1414
10299TIP3    H152312   5.885   3.246   5.967 -2.1111  0.7167 -2.3435
10299TIP3    H252313   5.974   3.365   5.936  1.6632 -0.0730  3.6794
10300TIP3   OH252314   6.290   0.069  12.715  0.0158  0.4543  0.0581
10300TIP3    H152315   6.280   0.164  12.703 -1.5476  0.3363  0.2142
10300TIP3    H252316   6.251   0.031  12.636 -0.0115 -0.0661  0.3216
10301TIP3   OH252317   2.728   4.976  16.373  0.1801  0.7364  0.3034
10301TIP3    H152318   2.638   5.007  16.383  0.8544  2.5530  1.1647
10301TIP3    H252319   2.760   4.967  16.463  1.4642  2.0297 -0.0028
10302TIP3   OH252320   3.895   6.431   2.712 -0.3539  0.4808  0.4154
10302TIP3    H152321   3.872   6.436   2.619 -0.9740 -3.0267  0.2669
10302TIP3    H252322   3.817   6.396   2.754  1.0692 -1.3927  1.6347
10303TIP3   OH252323   4.581   4.804   1.078 -0.1061  0.2128 -0.0070
10303TIP3    H152324   4.566   4.722   1.124 -2.0330  0.8065  0.5144
10303TIP3    H252325   4.666   4.834   1.110  0.3330 -1.2329  0.2681
10304TIP3   OH252326   2.520   2.814   1.732 -0.5030 -0.2706  0.0746
10304TIP3    H152327   2.509   2.891   1.676  2.0591 -0.2862 -0.5779
10304TIP3    H252328   2.449   2.755   1.705 -1.2640  1.0150 -0.8645
10305TIP3   OH252329   0.811   0.067  15.044  0.3515  0.6873  0.2606
10305TIP3    H152330   0.746   0.138  15.044 -1.0810 -0.5619  0.7317
10305TIP3    H252331   0.761  -0.011  15.020  1.5220 -0.4792  1.4573
10306TIP3   OH252332   2.072   3.984  11.136 -0.5854  0.1500  0.1410
10306TIP3    H152333   1.987   3.960  11.098 -1.6001  3.7446 -0.2510
10306TIP3    H252334   2.054   4.063  11.187  2.2528  0.0405  1.5007
10307TIP3   OH252335   2.000   4.653   2.232  0.3344  0.3081  0.3135
10307TIP3    H152336   2.046   4.587   2.179  0.2513 -0.1376  0.7865
10307TIP3    H252337   1.977   4.722   2.170  1.4765  0.4500  0.0368
10308TIP3   OH252338   2.642   5.148   1.898  0.5743  0.1439  0.0304
10308TIP3    H152339   2.586   5.191   1.962 -1.6761 -0.1175 -1.6726
10308TIP3    H252340   2.676   5.219   1.843  2.0596  0.3090  1.0968
10309TIP3   OH252341   3.897   2.555   1.255 -0.2262  0.5094 -0.0847
10309TIP3    H152342   3.979   2.559   1.305  0.8812 -0.6698 -1.7197
10309TIP3    H252343   3.919   2.593   1.170 -0.4661 -2.4294 -1.5914
10310TIP3   OH252344   0.051   2.913  12.824  0.0938  0.3040  0.2649
10310TIP3    H152345   0.116   2.851  12.791  0.1856  1.2577 -1.4765
10310TIP3    H252346   0.075   2.997  12.784 -1.4937  0.9326  0.5411
10311TIP3   OH252347   1.292   6.479  14.165  0.3107  0.2413  0.2278
10311TIP3    H152348   1.225   6.494  14.231 -0.5926  1.4868 -0.9228
10311TIP3    H252349   1.285   6.385  14.143 -0.8100  0.2834  0.3812
10312TIP3   OH252350   3.174   0.221   4.979  0.2434 -0.1712  0.3230
10312TIP3    H152351   3.130   0.223   4.895  0.8465 -1.8869 -0.0887
10312TIP3    H252352   3.250   0.164   4.965  1.5866  1.2160  1.4740
10313TIP3   OH252353   4.032   0.247  14.104 -0.1769 -0.0915  0.1294
10313TIP3    H152354   4.097   0.314  14.083  1.0325 -0.7733  1.4991
10313TIP3    H252355   4.053   0.175  14.045  0.1125 -0.1797  0.3339
10314TIP3   OH252356   5.939   1.392  13.290 -1.0201  0.1453  0.3124
10314TIP3    H152357   5.869   1.373  13.227 -1.5619 -0.8672  1.1816
10314TIP3    H252358   5.935   1.487  13.302 -1.7154  0.1994 -0.2608
10315TIP3   OH252359   3.590   6.583  11.887 -0.2539 -0.8675 -0.3018
10315TIP3    H152360   3.531   6.558  11.816  1.6667 -0.2907 -2.2140
10315TIP3    H252361   3.638   6.658  11.853 -0.4891  0.5866  2.3357
10316TIP3   OH252362   2.514   5.159   5.728  0.3129  0.0136 -0.1451
10316TIP3    H152363   2.535   5.151   5.821  1.5727 -0.7656 -0.4638
10316TIP3    H252364   2.421   5.182   5.725 -0.1573 -1.5289  1.2788
10317TIP3   OH252365   2.537   1.245  13.017 -0.2372 -0.3821  0.0060
10317TIP3    H152366   2.443   1.228  13.007 -0.2819 -1.1962  1.4111
10317TIP3    H252367   2.548   1.260  13.111  0.7844  1.5591 -0.3822
10318TIP3   OH252368   6.510   3.092  11.650 -0.6672  0.7172  0.1186
10318TIP3    H152369   6.447   3.159  11.673 -0.0523  1.3534 -0.0078
10318TIP3    H252370   6.474   3.049  11.573 -0.5458  1.6381 -0.4538
10319TIP3   OH252371   5.573   2.234  13.972 -0.0919 -0.3617  0.5197
10319TIP3    H152372   5.489   2.196  13.947 -0.2992 -0.2165  0.9931
10319TIP3    H252373   5.633   2.206  13.903 -0.7561  0.4364 -0.4183
10320TIP3   OH252374   0.354   0.105   5.882 -0.4506 -0.4405 -0.4401
10320TIP3    H152375   0.262   0.130   5.893 -0.1387  0.4688  0.2779
10320TIP3    H252376   0.380   0.070   5.968 -0.0123 -0.2808 -0.5051
10321TIP3   OH252377   2.588   0.513  12.047 -0.3750 -0.2558 -0.2542
10321TIP3    H152378   2.677   0.549  12.050 -0.4629 -0.0176 -0.5040
10321TIP3    H252379   2.545   0.561  11.977 -0.4287 -0.9951 -0.7366
10322TIP3   OH252380   2.938   0.410  15.076  0.9094 -0.3157 -0.1300
10322TIP3    H152381   2.903   0.450  15.156 -0.6616 -1.7859 -0.0276
10322TIP3    H252382   3.033   0.420  15.084  0.8111 -0.5900  2.0418
10323TIP3   OH252383   2.044   3.935   0.446  0.8416  0.3523 -0.0488
10323TIP3    H152384   2.002   3.977   0.521 -2.8051 -0.9792 -1.1241
10323TIP3    H252385   2.055   4.005   0.381 -2.8140  0.3527 -0.8747
10324TIP3   OH252386   0.429   1.042  13.594 -0.5365 -0.4305 -0.2300
10324TIP3    H152387   0.420   1.114  13.657 -1.8583  0.4274 -1.3533
10324TIP3    H252388   0.443   0.965  13.649 -1.4747  0.3166  1.1146
10325TIP3   OH252389   0.439   6.154  12.296  0.9427  0.1333 -0.3301
10325TIP3    H152390   0.466   6.240  12.264 -1.5549  0.9775 -0.4113
10325TIP3    H252391   0.426   6.102  12.217 -1.5909  1.0611 -0.6265
10326TIP3   OH252392   6.643   0.237  11.169 -0.8898 -0.2819  0.5956
10326TIP3    H152393   6.581   0.165  11.155 -1.8265  0.2857  1.6869
10326TIP3    H252394   6.636   0.290  11.089 -1.0438 -0.7794  0.2747
10327TIP3   OH252395   0.434   4.698   3.912  0.0601  0.2136 -0.1118
10327TIP3    H152396   0.524   4.701   3.879 -0.3182  0.5477 -1.1403
10327TIP3    H252397   0.385   4.651   3.844 -0.2608 -1.3804  1.1574
10328TIP3   OH252398   0.956   3.894  16.821  0.7874 -0.0096 -0.1632
10328TIP3    H152399   1.031   3.890  16.880  0.8122 -0.7833 -0.2348
10328TIP3    H252400   0.953   3.808  16.780 -2.0273 -1.2649  2.2334
10329TIP3   OH252401   1.500   4.793   0.803  0.2623  0.7961 -0.1151
10329TIP3    H152402   1.492   4.703   0.772 -1.5123  0.9479 -0.2074
10329TIP3    H252403   1.551   4.786   0.884 -1.4636 -0.5840  0.9471
10330TIP3   OH252404   0.141   1.548   0.685 -0.1929 -0.4061 -0.5417
10330TIP3    H152405   0.097   1.490   0.623  0.9634 -0.4362 -1.3495
10330TIP3    H252406   0.215   1.584   0.637  1.3650 -1.2224  1.1049
10331TIP3   OH252407   4.270   5.388  14.555  0.4513 -0.4329 -0.0180
10331TIP3    H152408   4.176   5.396  14.570  0.3845 -1.2047 -0.0095
10331TIP3    H252409   4.278   5.323  14.486  0.9602 -0.0260 -0.3495
10332TIP3   OH252410   0.763   1.614   4.948  0.1911 -0.4874 -0.2642
10332TIP3    H152411   0.850   1.650   4.967  0.0847 -0.7738  0.8461
10332TIP3    H252412   0.777   1.557   4.873  1.3907 -2.0554  1.0757
10333TIP3   OH252413   3.003   2.229   5.920 -0.1602  0.1664 -0.6524
10333TIP3    H152414   3.004   2.299   5.986  0.4263 -0.0934 -0.3733
10333TIP3    H252415   3.088   2.186   5.930 -1.2987 -1.9641  0.6774
10334TIP3   OH252416   0.994   0.825   6.695 -1.4454 -0.4139  0.0623
10334TIP3    H152417   1.003   0.860   6.784 -1.4400 -2.5533  0.9730
10334TIP3    H252418   1.083   0.825   6.660 -1.2954 -0.4421  0.4305
10335TIP3   OH252419   1.339   1.309  13.277 -0.1630 -1.3669 -0.3798
10335TIP3    H152420   1.259   1.343  13.319  0.2810 -0.8033  0.0265
10335TIP3    H252421   1.315   1.299  13.185  0.1957  1.8632 -0.9475
10336TIP3   OH252422   3.410   0.774  15.235 -0.6194  0.2170  0.2117
10336TIP3    H152423   3.406   0.839  15.306  0.1608  0.1188  0.3586
10336TIP3    H252424   3.372   0.695  15.273 -1.7642  0.6327 -0.0314
10337TIP3   OH252425   2.234   4.713  15.583 -0.7029 -0.3940  0.2629
10337TIP3    H152426   2.250   4.619  15.583  2.2866  0.0259  0.7608
10337TIP3    H252427   2.279   4.745  15.661  0.5080  1.7270 -1.2093
10338TIP3   OH252428   1.780   1.128  10.463 -0.6759 -0.1107  0.8264
10338TIP3    H152429   1.864   1.082  10.454  0.6926  2.4433 -0.4477
10338TIP3    H252430   1.777   1.155  10.555  0.3646  0.5531  0.6804
10339TIP3   OH252431   3.226   2.317  15.914 -0.0556 -0.0236 -0.6129
10339TIP3    H152432   3.192   2.237  15.875 -0.5883 -0.0635 -0.0872
10339TIP3    H252433   3.295   2.346  15.854  1.7040 -2.0591  0.2762
10340TIP3   OH252434   0.579   4.198  15.158  0.1618 -0.2170 -0.4783
10340TIP3    H152435   0.585   4.130  15.226  1.4057  1.2902  0.9980
10340TIP3    H252436   0.613   4.156  15.079  1.3183 -1.1899  0.4984
10341TIP3   OH252437   5.532   3.052   1.319  0.3745 -0.1168 -0.1010
10341TIP3    H152438   5.621   3.020   1.309 -0.2531 -2.1896  0.5407
10341TIP3    H252439   5.511   3.090   1.233  1.3580 -0.9651 -0.7455
10342TIP3   OH252440   2.976   1.149  12.038 -0.9301 -0.1714  0.0777
10342TIP3    H152441   2.892   1.172  12.079 -1.2642 -0.2614 -0.5359
10342TIP3    H252442   2.961   1.063  11.999 -0.4364 -0.3472  0.2684
10343TIP3   OH252443   2.638   2.983   2.391  0.2705  0.4379  0.2933
10343TIP3    H152444   2.564   2.965   2.333 -0.2948  0.9594  0.8410
10343TIP3    H252445   2.673   2.897   2.413  0.6423  0.2397 -1.0071
10344TIP3   OH252446   0.117   1.258   5.685 -0.6453  0.2583  0.0028
10344TIP3    H152447   0.197   1.225   5.645 -0.4105 -1.1728  1.5570
10344TIP3    H252448   0.143   1.282   5.774 -1.7460  0.6683  0.2241
10345TIP3   OH252449   0.186   1.340   2.998 -0.2562 -0.9948 -0.2761
10345TIP3    H152450   0.170   1.257   3.043  1.0681 -0.0784  2.0397
10345TIP3    H252451   0.274   1.366   3.026 -0.3202  0.8195 -1.5708
10346TIP3   OH252452   5.857   5.729  15.293 -0.2796  0.0056  0.7819
10346TIP3    H152453   5.802   5.765  15.224  2.1071 -0.9251 -1.7527
10346TIP3    H252454   5.819   5.643  15.313  0.3704 -0.7653 -1.1583
10347TIP3   OH252455   4.659   5.847   0.422 -0.4277 -0.2648  0.0973
10347TIP3    H152456   4.726   5.822   0.486 -0.1204 -1.5755 -0.6992
10347TIP3    H252457   4.690   5.810   0.339 -1.5821  0.0751 -0.5117
10348TIP3   OH252458   5.960   0.212  13.458  0.2739 -0.2648  0.0786
10348TIP3    H152459   5.942   0.217  13.364  3.3807 -2.6532 -0.8317
10348TIP3    H252460   5.903   0.142  13.490 -0.5481  0.3282 -0.0424
10349TIP3   OH252461   1.986   3.625   3.611  0.0955 -0.7231 -0.8589
10349TIP3    H152462   2.064   3.608   3.665 -0.6545  0.4100  0.6774
10349TIP3    H252463   2.020   3.666   3.532  1.0439  0.4121  0.0971
10350TIP3   OH252464   1.742   3.292   4.874 -0.1399  0.5489 -0.3052
10350TIP3    H152465   1.745   3.199   4.898 -0.0955  0.5899 -0.1515
10350TIP3    H252466   1.834   3.316   4.865 -0.1695  0.4012 -1.0314
10351TIP3   OH252467   2.324   0.303  13.455 -0.1786  0.3866 -0.3744
10351TIP3    H152468   2.266   0.334  13.525  0.2701  0.3200  0.0289
10351TIP3    H252469   2.371   0.381  13.426 -0.0630  0.3377 -0.3188
10352TIP3   OH252470   2.229   5.037   3.676  0.8682  0.0450 -0.0279
10352TIP3    H152471   2.209   5.006   3.588  1.1076 -0.3872  0.0686
10352TIP3    H252472   2.169   5.111   3.690 -2.0644 -2.3529  0.9714
10353TIP3   OH252473   2.552   5.718   0.138 -0.1396  0.0029  0.2955
10353TIP3    H152474   2.557   5.630   0.176 -1.8460 -0.4448 -0.4427
10353TIP3    H252475   2.624   5.721   0.075  1.1713 -0.1260  1.7254
10354TIP3   OH252476   4.988   1.174  11.612 -0.1824 -0.2016  0.5210
10354TIP3    H152477   5.046   1.098  11.604  0.1968  0.1543 -0.2034
10354TIP3    H252478   4.900   1.136  11.616  0.0203 -0.6930  0.4189
10355TIP3   OH252479   1.448   4.515   0.799 -0.2048  0.9180  0.4761
10355TIP3    H152480   1.396   4.492   0.722  1.4691 -2.6061  0.1824
10355TIP3    H252481   1.432   4.444   0.861  2.6274  0.7181  1.1373
10356TIP3   OH252482   4.333   0.491  12.707 -0.1186 -0.1454 -1.0290
10356TIP3    H152483   4.408   0.450  12.750 -1.7195  0.4464  2.7103
10356TIP3    H252484   4.256   0.452  12.750 -1.9577  0.5638 -3.4422
10357TIP3   OH252485   3.915   1.812   2.744  0.8144 -0.1203 -0.1775
10357TIP3    H152486   3.844   1.755   2.714  2.0541 -0.5451 -2.5155
10357TIP3    H252487   3.939   1.776   2.829 -1.1265 -0.5309  0.2592
10358TIP3   OH252488   1.188   4.084  11.047  0.0401  0.5149 -0.1132
10358TIP3    H152489   1.187   4.077  10.952 -0.2086  0.0009 -0.0773
10358TIP3    H252490   1.201   4.177  11.065  2.3804  0.3630 -0.6482
10359TIP3   OH252491   2.943   4.603  12.061 -0.4196  0.1242 -0.0409
10359TIP3    H152492   3.022   4.552  12.077 -0.8601 -1.0723 -1.4330
10359TIP3    H252493   2.973   4.685  12.022  0.1119 -0.6959 -1.4076
10360TIP3   OH252494   0.103   6.571  11.849 -0.4593  0.0378 -0.4758
10360TIP3    H152495   0.161   6.623  11.793  0.1892  0.4813  0.5664
10360TIP3    H252496   0.015   6.590  11.817 -0.0852 -0.0898 -1.6336
10361TIP3   OH252497   0.615   4.357  11.727  0.4329  0.2814  0.0957
10361TIP3    H152498   0.670   4.408  11.669  1.6132  0.5953  1.4243
10361TIP3    H252499   0.671   4.338  11.803 -0.7959 -0.7498  0.7947
10362TIP3   OH252500   3.979   2.543   3.278 -0.6130 -0.1467  0.5932
10362TIP3    H152501   4.073   2.530   3.286 -0.8044 -2.2227  0.2058
10362TIP3    H252502   3.967   2.638   3.277  1.3308  0.1723  2.0861
10363TIP3   OH252503   1.805   5.335  11.018 -0.1304 -0.5666  0.7153
10363TIP3    H152504   1.737   5.376  10.964  1.3578  0.7779 -0.2138
10363TIP3    H252505   1.806   5.244  10.989 -0.6464 -0.2992 -0.2091
10364TIP3   OH252506   5.909   0.975  10.492 -0.5386 -0.5515  0.1592
10364TIP3    H152507   5.878   1.063  10.473  0.1331 -0.6889 -1.8474
10364TIP3    H252508   5.997   0.987  10.526  0.0993 -0.4685 -1.4452
10365TIP3   OH252509   0.167   2.881   3.136 -0.7389 -0.5729 -0.8583
10365TIP3    H152510   0.157   2.809   3.198 -0.8373 -0.0550 -0.2646
10365TIP3    H252511   0.087   2.879   3.083 -2.4488  1.2246  1.4216
10366TIP3   OH252512   1.101   6.245   2.298 -0.8812 -0.7312 -0.3775
10366TIP3    H152513   1.007   6.264   2.305 -0.5686  0.4790  1.0646
10366TIP3    H252514   1.107   6.151   2.311 -2.0070 -1.0783 -2.0217
10367TIP3   OH252515   4.627   1.930  12.947  0.1436  0.2382 -0.4857
10367TIP3    H152516   4.619   1.878  12.867  1.0219  1.3342 -1.3121
10367TIP3    H252517   4.720   1.949  12.955  0.3141 -1.1048  1.6519
10368TIP3   OH252518   3.412   6.513   6.357 -0.1694 -0.3057  0.0911
10368TIP3    H152519   3.477   6.583   6.357 -2.4995  2.0174 -0.4263
10368TIP3    H252520   3.378   6.512   6.446 -0.0048 -0.9517  0.1514
10369TIP3   OH252521   2.481   3.327  15.968 -0.0258  0.2468  0.2763
10369TIP3    H152522   2.489   3.319  16.063  0.1448 -0.7186  0.1954
10369TIP3    H252523   2.570   3.345  15.938 -0.0536  0.4043  0.2895
10370TIP3   OH252524   0.145   2.736   4.701  0.1310  0.0810 -0.5066
10370TIP3    H152525   0.159   2.831   4.691  1.7484  0.1012  1.3302
10370TIP3    H252526   0.227   2.697   4.670  0.5522 -0.5047  1.2160
10371TIP3   OH252527   1.753   1.943   5.946 -0.1368 -0.2796 -0.5348
10371TIP3    H152528   1.756   1.849   5.965 -1.9629 -0.5922 -1.5077
10371TIP3    H252529   1.757   1.949   5.851 -0.9403  0.5547 -0.5334
10372TIP3   OH252530   0.433   6.419   3.767  0.0399 -0.6835 -0.1924
10372TIP3    H152531   0.502   6.481   3.743 -1.0208  0.5892 -0.0124
10372TIP3    H252532   0.352   6.468   3.758 -0.7514 -1.6851  1.1148
10373TIP3   OH252533   0.079   6.114   2.877  0.3177  0.0943 -0.4143
10373TIP3    H152534   0.101   6.198   2.917  1.0226  0.3773 -1.3639
10373TIP3    H252535   0.152   6.057   2.900  1.8889  0.8610 -3.0352
10374TIP3   OH252536   2.018   3.609   6.404  0.4161 -0.3233  0.6388
10374TIP3    H152537   2.096   3.569   6.442 -0.0430 -0.3550  1.5672
10374TIP3    H252538   1.985   3.544   6.341  1.1944 -0.2545  0.1485
10375TIP3   OH252539   1.038   4.969   5.053  0.5456  0.3000 -0.0810
10375TIP3    H152540   1.074   4.944   4.968 -1.6122 -0.4029 -0.8530
10375TIP3    H252541   1.113   4.972   5.111  1.5734 -3.8499 -0.8975
10376TIP3   OH252542   5.355   6.508  12.503 -0.6623  0.4616  0.1901
10376TIP3    H152543   5.386   6.595  12.528 -0.7907  0.4589  0.3663
10376TIP3    H252544   5.380   6.498  12.411 -0.1556  0.4641  0.3206
10377TIP3   OH252545   1.355   0.890  12.571  0.1823  0.0428 -0.0586
10377TIP3    H152546   1.421   0.945  12.614  1.6338  1.0876 -3.2975
10377TIP3    H252547   1.295   0.952  12.530 -1.1123 -0.8954  0.3481
10378TIP3   OH252548   5.531   6.263   3.328  0.6416 -0.4771 -0.1747
10378TIP3    H152549   5.437   6.274   3.344  0.7289 -2.3632  2.1764
10378TIP3    H252550   5.535   6.209   3.248 -0.0824  2.3754 -2.2770
10379TIP3   OH252551   1.085   0.880   2.377 -0.0247  0.2099  0.5179
10379TIP3    H152552   1.112   0.969   2.401  0.7564  0.3893 -0.8771
10379TIP3    H252553   0.991   0.879   2.392 -0.0522  1.2995  0.5402
10380TIP3   OH252554   5.572   1.817  16.856 -0.3416  0.3519 -0.1317
10380TIP3    H152555   5.530   1.844  16.774 -0.4640  0.1789 -0.1261
10380TIP3    H252556   5.513   1.751  16.893 -0.8692  1.2413  0.6688
10381TIP3   OH252557   0.018   3.697  14.714  0.3929  0.6198 -0.0948
10381TIP3    H152558   0.084   3.765  14.703  1.5232 -0.3881  0.1494
10381TIP3    H252559   0.025   3.671  14.806 -2.5634  2.6298  0.8510
10382TIP3   OH252560   2.563   5.283   4.167  0.4041  0.2873  0.3856
10382TIP3    H152561   2.633   5.348   4.165  1.3651 -0.7204 -0.3652
10382TIP3    H252562   2.576   5.232   4.086 -0.5888 -0.5441  0.7336
10383TIP3   OH252563   3.387   6.694   2.503 -0.2628  0.1044  0.3730
10383TIP3    H152564   3.461   6.682   2.443 -2.2984  1.5246 -2.7475
10383TIP3    H252565   3.376   6.609   2.546 -0.2051 -2.0104 -3.3471
10384TIP3   OH252566   1.374   3.043   3.272  0.0460 -0.1037  0.6039
10384TIP3    H152567   1.390   3.089   3.355  0.7461 -0.7237  0.8222
10384TIP3    H252568   1.432   2.967   3.275 -1.6043 -1.4334  0.5847
10385TIP3   OH252569   0.503   3.075  16.273 -0.4510  0.4516 -0.8188
10385TIP3    H152570   0.416   3.063  16.311 -0.1596  1.7427  0.3052
10385TIP3    H252571   0.520   2.993  16.227 -1.5319 -0.4997  0.4100
10386TIP3   OH252572   0.923   2.732  12.321 -0.1400  0.9362 -0.6494
10386TIP3    H152573   0.944   2.701  12.408  1.5189  0.0641 -1.3119
10386TIP3    H252574   0.835   2.698  12.303  0.0702 -0.0498  0.1450
10387TIP3   OH252575   0.207   6.045   3.601 -0.4361  0.6623  0.2222
10387TIP3    H152576   0.290   6.068   3.560  0.4880  0.4657  1.8827
10387TIP3    H252577   0.220   6.065   3.694 -1.6391 -1.0267  0.8038
10388TIP3   OH252578   2.456   1.638   3.877  0.3024  0.1259  0.0225
10388TIP3    H152579   2.543   1.628   3.913 -0.0797 -0.9801  0.6852
10388TIP3    H252580   2.470   1.671   3.788  1.5231 -2.2429 -0.7236
10389TIP3   OH252581   4.185   3.381   1.979  0.5264  0.1922 -0.3002
10389TIP3    H152582   4.242   3.360   1.905 -0.5938  0.1216 -1.1629
10389TIP3    H252583   4.160   3.296   2.015  1.3525  0.2328  0.3994
10390TIP3   OH252584   4.158   4.606   2.782  0.2076 -0.2107 -0.4692
10390TIP3    H152585   4.063   4.593   2.785  0.0100  0.9534 -0.8359
10390TIP3    H252586   4.168   4.692   2.741  1.3568  0.4615  1.1440
10391TIP3   OH252587   0.597   1.085  16.864 -0.1096  0.1425 -0.2985
10391TIP3    H152588   0.527   1.019  16.865 -1.2587  1.3325 -0.4980
10391TIP3    H252589   0.570   1.149  16.799  1.2168  0.6054 -0.4295
10392TIP3   OH252590   6.137   2.151  16.066  0.5934 -0.0608  0.1205
10392TIP3    H152591   6.108   2.067  16.100  1.1974 -0.3192  0.0038
10392TIP3    H252592   6.226   2.161  16.097 -0.5364  2.1588  3.1111
10393TIP3   OH252593   5.172   5.059   3.351  0.4989 -0.4255 -0.1460
10393TIP3    H152594   5.207   5.141   3.387  3.0016 -1.0832 -0.8719
10393TIP3    H252595   5.083   5.081   3.323  0.0890  1.2901  2.1499
10394TIP3   OH252596   6.415   2.900  15.705  0.4604  0.0477 -0.2013
10394TIP3    H152597   6.422   2.819  15.655 -0.5824 -1.3082  1.7589
10394TIP3    H252598   6.321   2.914  15.714  0.5625 -0.4641  2.4051
10395TIP3   OH252599   1.027   2.649  17.055 -0.0483  0.3315  0.1791
10395TIP3    H152600   1.107   2.632  17.005 -0.4704 -1.4755  0.0581
10395TIP3    H252601   1.039   2.599  17.136 -1.9897 -1.9566 -0.8329
10396TIP3   OH252602   5.294   1.535   1.450 -0.0714  0.0803 -0.2289
10396TIP3    H152603   5.243   1.454   1.446  0.2430 -0.1342  0.0274
10396TIP3    H252604   5.270   1.582   1.370  0.7707 -0.9016 -1.1007
10397TIP3   OH252605   3.701   2.144  10.056 -0.1066 -0.3809 -0.0661
10397TIP3    H152606   3.664   2.131  10.143 -1.1983  0.1827 -0.4279
10397TIP3    H252607   3.791   2.112  10.063  0.8469  2.4485  2.0845
10398TIP3   OH252608   4.696   6.115   5.487  0.2662 -0.1347  0.1520
10398TIP3    H152609   4.742   6.185   5.442  2.0595 -1.3362  0.0482
10398TIP3    H252610   4.695   6.142   5.579  1.7597 -0.3776  0.2544
10399TIP3   OH252611   4.747   0.595   0.285 -0.3263 -0.7471  0.1504
10399TIP3    H152612   4.801   0.673   0.299 -1.7052 -0.1614  2.8967
10399TIP3    H252613   4.782   0.530   0.347 -1.8993 -0.7662  1.0834
10400TIP3   OH252614   4.592   1.789  12.704 -0.0044  0.6800  0.1099
10400TIP3    H152615   4.687   1.781  12.698 -0.1367 -1.1706 -0.2067
10400TIP3    H252616   4.569   1.856  12.640  0.9196 -0.3975 -1.4166
10401TIP3   OH252617   0.429   4.230   0.453  0.1990  0.3466 -0.6282
10401TIP3    H152618   0.353   4.175   0.434  0.6151 -0.1622 -0.8688
10401TIP3    H252619   0.406   4.316   0.420  0.0405  0.0025 -1.4419
10402TIP3   OH252620   2.094   2.058   1.144  0.3592 -0.2907 -0.4392
10402TIP3    H152621   2.089   1.962   1.138  0.7799 -0.2722 -1.1159
10402TIP3    H252622   2.020   2.082   1.200  0.3031 -1.0168 -0.1910
10403TIP3   OH252623   4.155   4.599  16.256  0.5272  0.3220 -0.0479
10403TIP3    H152624   4.144   4.509  16.285  0.5003 -0.2657 -1.7666
10403TIP3    H252625   4.067   4.628  16.232  0.8265 -0.0357 -1.7247
10404TIP3   OH252626   2.898   1.310   0.250  0.1585 -0.3625 -0.4458
10404TIP3    H152627   2.843   1.372   0.203 -2.4732 -0.2926  2.4271
10404TIP3    H252628   2.986   1.347   0.246 -0.3846  0.8742 -3.0151
10405TIP3   OH252629   4.244   2.862  12.228 -0.0587 -0.1805  0.2204
10405TIP3    H152630   4.326   2.836  12.271 -0.6460 -1.0303  0.8583
10405TIP3    H252631   4.207   2.929  12.285 -0.0812 -0.1978  0.2257
10406TIP3   OH252632   4.089   0.056  16.155  0.6278  0.0161  0.4065
10406TIP3    H152633   4.056   0.138  16.120 -0.3170 -0.8866 -0.9452
10406TIP3    H252634   4.100   0.072  16.248  1.7212  2.0434 -0.0100
10407TIP3   OH252635   6.716   2.230   2.142 -0.0452 -0.0585  0.1733
10407TIP3    H152636   6.706   2.324   2.154  0.6319 -0.1099  1.3721
10407TIP3    H252637   6.742   2.219   2.051 -1.3234  0.7949 -0.3141
10408TIP3   OH252638   2.715   2.711   2.987  0.1926 -0.4331 -0.1341
10408TIP3    H152639   2.750   2.668   2.909 -0.8886 -1.8327  0.1120
10408TIP3    H252640   2.769   2.789   2.997  0.8485 -0.6211 -1.8308
10409TIP3   OH252641   3.228   4.670  10.758 -0.1764  0.2107 -0.0294
10409TIP3    H152642   3.234   4.764  10.746 -0.7327  0.1697 -0.6700
10409TIP3    H252643   3.174   4.639  10.685 -0.7226 -0.4957  0.6548
10410TIP3   OH252644   2.189   2.483   0.365  0.4670  0.1070 -0.1006
10410TIP3    H152645   2.270   2.534   0.367  0.3469  0.3091 -0.2955
10410TIP3    H252646   2.186   2.447   0.277 -0.0992  0.8309 -0.3855
10411TIP3   OH252647   0.192   3.666   4.412 -0.2844 -0.1460  0.0378
10411TIP3    H152648   0.166   3.724   4.483  0.1825  0.4578 -0.2710
10411TIP3    H252649   0.115   3.612   4.395 -1.1000  1.1310 -0.4160
10412TIP3   OH252650   2.001   6.698   6.906 -0.1512 -0.2192 -0.1620
10412TIP3    H152651   2.000   6.733   6.817  4.6498  0.5442 -0.1318
10412TIP3    H252652   2.018   6.604   6.895  0.5493 -0.1056 -0.0379
10413TIP3   OH252653   5.042   4.148   5.874  0.3305  0.2779 -0.3291
10413TIP3    H152654   4.989   4.153   5.953  0.5046  1.5884 -0.2791
10413TIP3    H252655   5.001   4.079   5.822 -0.3190  0.0181  0.5099
10414TIP3   OH252656   5.924   2.928   0.571 -0.1398 -0.0451  0.6441
10414TIP3    H152657   5.957   2.886   0.492  1.1314 -0.6576  1.4702
10414TIP3    H252658   5.843   2.970   0.543  0.8339  0.7306 -1.2657
10415TIP3   OH252659   5.458   2.254   5.742 -0.4575 -0.2890  0.2888
10415TIP3    H152660   5.371   2.271   5.779  0.2392  0.2495  1.7343
10415TIP3    H252661   5.481   2.166   5.773  0.4997  0.5119  1.9253
10416TIP3   OH252662   5.240   6.041  12.880 -0.0874 -0.4338  0.0419
10416TIP3    H152663   5.247   5.949  12.853  1.3073 -0.4530  0.3981
10416TIP3    H252664   5.308   6.086  12.830 -1.1099  0.5215 -0.5289
10417TIP3   OH252665   5.434   2.239  15.145 -0.4511  0.4164  0.0040
10417TIP3    H152666   5.433   2.251  15.050 -3.6960 -1.3675 -0.3185
10417TIP3    H252667   5.522   2.206  15.164  0.3993  1.1494 -2.2786
10418TIP3   OH252668   6.121   1.136  14.282  0.0610 -0.3527  0.1214
10418TIP3    H152669   6.208   1.104  14.259 -0.0162 -0.4134 -0.0924
10418TIP3    H252670   6.073   1.137  14.199 -0.2329 -0.6054  0.2856
10419TIP3   OH252671   2.452   1.006  13.199  0.2262 -0.5929 -0.3697
10419TIP3    H152672   2.542   1.021  13.227 -0.2510  0.3280  0.7287
10419TIP3    H252673   2.461   0.962  13.114  1.6989 -0.5177 -0.2842
10420TIP3   OH252674   5.118   6.647   4.618  0.1107  0.0400  0.3958
10420TIP3    H152675   5.187   6.618   4.558  0.2121 -0.6505  0.8345
10420TIP3    H252676   5.163   6.663   4.701 -0.1758  0.0428  0.5546
10421TIP3   OH252677   5.951   1.192  14.702  0.1472 -0.6572 -0.6323
10421TIP3    H152678   5.932   1.202  14.796 -1.7806  0.4746 -1.0792
10421TIP3    H252679   5.927   1.102  14.681 -0.5525 -0.5557 -0.2722
10422TIP3   OH252680   2.560   6.080  17.085  0.0850 -0.4725 -0.1994
10422TIP3    H152681   2.587   6.036  17.005  1.1985  2.1172 -1.3740
10422TIP3    H252682   2.642   6.104  17.128 -0.4934 -0.3602  0.8693
10423TIP3   OH252683   4.673   1.396   1.109 -0.3228  0.4920 -0.1709
10423TIP3    H152684   4.668   1.383   1.203 -0.4387  0.2919 -0.2060
10423TIP3    H252685   4.756   1.355   1.083 -0.6809 -0.1665 -0.2796
10424TIP3   OH252686   5.494   3.468  15.109 -0.1621  0.2533  0.2380
10424TIP3    H152687   5.546   3.449  15.186 -0.6885  2.4016  1.2017
10424TIP3    H252688   5.403   3.459  15.138 -0.3683 -0.2546 -0.5243
10425TIP3   OH252689   2.131   5.959   0.717  0.0424 -0.0551  0.6120
10425TIP3    H152690   2.043   5.934   0.744  0.3201 -1.3771  0.3582
10425TIP3    H252691   2.184   5.881   0.732  1.3730  0.9977  1.5998
10426TIP3   OH252692   3.743   2.169  12.045  0.4563  0.3098 -0.2197
10426TIP3    H152693   3.699   2.217  11.975  4.2324  1.4656 -2.1107
10426TIP3    H252694   3.743   2.229  12.119 -1.7043 -0.0664  0.1591
10427TIP3   OH252695   3.866   2.102  15.735  0.3680  0.1041  0.0756
10427TIP3    H152696   3.944   2.078  15.685  1.5947  1.0813  1.4192
10427TIP3    H252697   3.889   2.083  15.826 -1.4925 -0.8635  0.3894
10428TIP3   OH252698   4.770   4.118   3.263 -0.0242 -0.2619  0.1698
10428TIP3    H152699   4.707   4.188   3.246 -0.7464 -1.2787 -1.7525
10428TIP3    H252700   4.855   4.161   3.262 -0.5803  0.8918  1.1415
10429TIP3   OH252701   0.160   0.776   5.102  0.1751  0.1932 -0.6602
10429TIP3    H152702   0.145   0.700   5.157  0.3629  0.1655 -0.6449
10429TIP3    H252703   0.203   0.840   5.160  1.5558 -0.3100 -1.0858
10430TIP3   OH252704   1.628   5.720   3.142 -0.2151  0.0663  0.4891
10430TIP3    H152705   1.661   5.792   3.088  1.7011 -2.6444 -2.2946
10430TIP3    H252706   1.580   5.763   3.212  2.5713  4.1408  0.2555
10431TIP3   OH252707   6.240   3.623  10.954  0.0376  0.9475  0.9833
10431TIP3    H152708   6.304   3.689  10.929 -1.2094  2.1270  0.7954
10431TIP3    H252709   6.162   3.673  10.979 -1.9009 -0.4783 -1.7213
10432TIP3   OH252710   1.149   6.635  11.989 -0.1974  0.1010 -0.1161
10432TIP3    H152711   1.100   6.650  12.069  0.5737 -1.2846  0.6690
10432TIP3    H252712   1.171   6.542  11.992  3.5267  0.8486  0.2212
10433TIP3   OH252713   1.887   5.951   1.074 -0.1237 -0.1087 -0.0813
10433TIP3    H152714   1.811   5.966   1.130  0.1525  0.0071  0.2715
10433TIP3    H252715   1.941   5.890   1.123  0.0673 -0.0966 -0.2755
10434TIP3   OH252716   5.489   4.858  11.840  0.1572  0.5117  0.6231
10434TIP3    H152717   5.553   4.929  11.836 -1.0677  1.6136  0.0730
10434TIP3    H252718   5.526   4.790  11.783 -0.1704  2.0158 -1.5191
10435TIP3   OH252719   3.771   1.075  15.315  0.0553  0.3871  0.0870
10435TIP3    H152720   3.820   1.007  15.270  0.5261  1.3879 -0.9552
10435TIP3    H252721   3.824   1.154  15.305 -0.3644  0.8814  1.4573
10436TIP3   OH252722   1.507   0.584   3.410 -0.1784  0.2760 -0.3073
10436TIP3    H152723   1.548   0.660   3.450 -0.7375  0.6193 -0.3643
10436TIP3    H252724   1.442   0.622   3.350 -1.0125 -0.2491  0.2480
10437TIP3   OH252725   2.718   3.064   3.529 -0.0648 -0.0125  0.0728
10437TIP3    H152726   2.642   3.035   3.479  0.8069  0.8733 -1.8746
10437TIP3    H252727   2.767   2.984   3.546  0.5686 -0.1750 -2.2179
10438TIP3   OH252728   3.997   1.433   4.622  0.0118  0.1820  0.3871
10438TIP3    H152729   4.015   1.347   4.661  1.2012  0.0539 -0.3918
10438TIP3    H252730   3.972   1.488   4.696 -1.3361 -0.9575  0.8350
10439TIP3   OH252731   5.609   1.783   3.831 -0.0613 -0.4626 -0.6043
10439TIP3    H152732   5.643   1.707   3.878  2.6222  0.7545 -0.3382
10439TIP3    H252733   5.549   1.825   3.893 -0.7341 -1.7320 -0.3605
10440TIP3   OH252734   4.465   3.992   5.140 -0.1806 -0.5326  0.1480
10440TIP3    H152735   4.476   4.031   5.227  0.7132 -0.8690  0.2030
10440TIP3    H252736   4.514   4.049   5.081 -2.8042  1.1101 -0.5918
10441TIP3   OH252737   1.362   4.181   4.053  0.0450  0.5748  0.2979
10441TIP3    H152738   1.406   4.097   4.039  0.7277  0.5399  2.3501
10441TIP3    H252739   1.423   4.245   4.017 -0.8547  0.2036 -2.0559
10442TIP3   OH252740   5.883   2.806  13.993  0.0876 -0.1442 -0.0788
10442TIP3    H152741   5.838   2.777  14.071  1.2957 -1.4030  0.1938
10442TIP3    H252742   5.952   2.865  14.025  1.4313 -1.6743  0.0081
10443TIP3   OH252743   2.917   1.849   1.009  0.1980 -0.3867  0.1735
10443TIP3    H152744   2.865   1.871   0.931  0.7583  1.5224  0.2911
10443TIP3    H252745   2.858   1.867   1.082  0.6557  0.7861  0.2708
10444TIP3   OH252746   2.948   3.028   0.087  0.3013 -0.0563 -0.0019
10444TIP3    H152747   2.984   3.116   0.102  0.3661 -0.0172 -0.3893
10444TIP3    H252748   2.995   2.996   0.010 -1.8239  0.7527 -1.7448
10445TIP3   OH252749   5.684   6.545  14.281 -0.5388 -0.3333  0.1631
10445TIP3    H152750   5.701   6.632  14.316  1.2028 -0.7527  0.4709
10445TIP3    H252751   5.648   6.560  14.194 -0.8211  0.6846  0.4452
10446TIP3   OH252752   5.961   4.342  17.038  0.3509 -0.2934 -0.5375
10446TIP3    H152753   5.897   4.319  16.970  0.0585  0.0987 -0.4012
10446TIP3    H252754   5.908   4.370  17.112  0.6723  1.6407 -0.9801
10447TIP3   OH252755   3.984   4.212   3.592  0.2088 -0.4596 -0.1906
10447TIP3    H152756   4.013   4.241   3.678  1.1489  0.7089 -0.8705
10447TIP3    H252757   3.894   4.244   3.584 -0.0779 -1.0593  0.5608
10448TIP3   OH252758   5.774   4.436  16.840  0.3175  0.1771  0.0677
10448TIP3    H152759   5.765   4.520  16.884  0.3975  0.4021 -0.3444
10448TIP3    H252760   5.853   4.444  16.787  0.2588 -0.1126 -0.0708
10449TIP3   OH252761   1.329   2.054   3.521  0.1306 -0.7273 -0.7500
10449TIP3    H152762   1.372   2.020   3.442 -0.1863 -1.5747 -0.5590
10449TIP3    H252763   1.352   1.992   3.590  2.0850  1.0493  0.3309
10450TIP3   OH252764   0.912   1.959  10.846  0.4558 -0.6537  0.1507
10450TIP3    H152765   0.870   2.038  10.812 -2.6136 -1.7764  1.0268
10450TIP3    H252766   0.925   1.903  10.770 -2.2342 -1.3303  0.0746
10451TIP3   OH252767   2.347   5.051   2.476 -0.6456 -0.0978 -0.1473
10451TIP3    H152768   2.350   4.982   2.542 -2.4740 -1.8414 -1.7704
10451TIP3    H252769   2.425   5.038   2.422 -0.0420  0.2761  0.6153
10452TIP3   OH252770   2.736   3.954   1.271  0.1479  0.5485 -0.0953
10452TIP3    H152771   2.831   3.940   1.280  0.0087 -0.4446 -0.1016
10452TIP3    H252772   2.728   4.048   1.254  1.1665  0.5662 -0.5891
10453TIP3   OH252773   2.704   5.735  13.483 -0.1944 -0.4938 -0.3350
10453TIP3    H152774   2.715   5.668  13.416 -1.4244  0.2957 -1.3778
10453TIP3    H252775   2.632   5.790  13.450 -2.2358 -1.2230  2.5539
10454TIP3   OH252776   0.505   0.984  16.470 -0.3320  0.6542 -0.6690
10454TIP3    H152777   0.474   1.075  16.475 -4.0858 -0.5141  3.5415
10454TIP3    H252778   0.591   0.987  16.512 -0.7134  2.2000  0.1057
10455TIP3   OH252779   3.254   3.555  14.079 -0.3491 -0.5305 -0.3612
10455TIP3    H152780   3.273   3.581  13.989 -0.1907  0.3137 -0.0892
10455TIP3    H252781   3.160   3.565  14.088 -0.2082  0.6071 -0.0612
10456TIP3   OH252782   0.853   4.355  15.812  0.6813 -0.1322  0.1165
10456TIP3    H152783   0.897   4.439  15.803  1.1927 -0.2184  1.5218
10456TIP3    H252784   0.762   4.377  15.830  0.6837  0.0974 -0.1399
10457TIP3   OH252785   1.421   2.514  15.349 -0.3202 -0.0495  0.0265
10457TIP3    H152786   1.472   2.534  15.428 -0.9107 -2.8415  1.2405
10457TIP3    H252787   1.336   2.556  15.363  0.3230  1.4092 -0.2522
10458TIP3   OH252788   4.610   4.007   4.138  0.2470  0.0704  0.1030
10458TIP3    H152789   4.628   3.983   4.229  0.3011 -1.0207 -0.1851
10458TIP3    H252790   4.687   4.058   4.112  2.1261 -2.8638 -0.4972
10459TIP3   OH252791   4.479   0.009   4.248  1.0185 -0.0306  0.3843
10459TIP3    H152792   4.559  -0.027   4.209 -1.0123 -2.5602 -1.8301
10459TIP3    H252793   4.466  -0.043   4.328 -0.3142 -2.3888 -1.2510
10460TIP3   OH252794   2.409   2.041   5.414 -0.2115 -0.4498  0.0009
10460TIP3    H152795   2.444   2.083   5.336  1.6321  1.0366  1.5205
10460TIP3    H252796   2.414   1.947   5.395  1.7343 -0.1719 -1.0881
10461TIP3   OH252797   2.422   5.312   3.602 -0.7035  0.5418  0.5951
10461TIP3    H152798   2.392   5.288   3.689  0.4841  2.5208  1.6147
10461TIP3    H252799   2.391   5.241   3.546 -0.0300 -1.6927  2.8648
10462TIP3   OH252800   5.239   3.624  12.966 -0.3622  0.1140 -0.5014
10462TIP3    H152801   5.187   3.691  13.011  0.5737  0.6322 -0.1591
10462TIP3    H252802   5.221   3.543  13.013  0.9630  0.7252  1.1600
10463TIP3   OH252803   2.642   6.641   4.528  0.3189 -0.9826 -0.5482
10463TIP3    H152804   2.653   6.589   4.448  1.1310  1.0922 -1.8532
10463TIP3    H252805   2.707   6.711   4.520 -1.1020  0.5616  0.8606
10464TIP3   OH252806   2.579   1.737   1.872  0.4066 -0.1315  0.1624
10464TIP3    H152807   2.528   1.735   1.953 -1.1596 -2.3046 -0.7876
10464TIP3    H252808   2.555   1.657   1.826  0.9240  1.1955 -2.6532
10465TIP3   OH252809   0.736   2.271  13.839 -0.2403  0.3082  1.0107
10465TIP3    H152810   0.743   2.324  13.760  1.2139  0.2357  1.0583
10465TIP3    H252811   0.655   2.221  13.828  0.2418 -0.1674 -0.7260
10466TIP3   OH252812   0.965   0.968   4.469  0.5993 -0.2185  0.0420
10466TIP3    H152813   0.919   0.888   4.496  0.8647 -0.4651 -0.2320
10466TIP3    H252814   0.951   1.029   4.542  1.0464 -0.7755  0.6120
10467TIP3   OH252815   5.539   5.601  14.297 -0.1720  0.4487  0.1259
10467TIP3    H152816   5.583   5.686  14.294 -1.1049  0.9160 -1.2127
10467TIP3    H252817   5.474   5.609  14.366 -0.8463  1.1433 -0.5740
10468TIP3   OH252818   2.864   0.779  14.363  0.0165 -0.1298 -0.2756
10468TIP3    H152819   2.913   0.846  14.315 -0.5360  0.8488  0.5104
10468TIP3    H252820   2.840   0.820  14.446  0.1043 -1.4765  0.4396
10469TIP3   OH252821   6.659   3.960  11.147 -0.3753  0.3961  0.3161
10469TIP3    H152822   6.739   3.927  11.189 -1.5614 -1.4627  1.2193
10469TIP3    H252823   6.649   3.905  11.070  1.1359  3.0188 -1.9539
10470TIP3   OH252824   0.103   5.001  16.906 -0.3751  0.7151 -0.4972
10470TIP3    H152825   0.034   5.036  16.850 -0.8388  0.6984  0.0494
10470TIP3    H252826   0.164   5.073  16.918 -0.3845  0.7830 -0.8392
10471TIP3   OH252827   0.254   4.437   2.675 -1.2580 -0.2531 -0.2365
10471TIP3    H152828   0.237   4.449   2.768  0.1329 -0.0859  0.0232
10471TIP3    H252829   0.199   4.363   2.649  1.1056 -2.9071  1.6552
10472TIP3   OH252830   4.438   3.722  15.439  0.0348 -0.8892 -0.3221
10472TIP3    H152831   4.369   3.661  15.467  1.7641 -2.6877  0.2565
10472TIP3    H252832   4.435   3.793  15.503 -0.7285 -1.3644  0.1946
10473TIP3   OH252833   4.889   4.673   1.447  0.4254 -0.7094  0.2576
10473TIP3    H152834   4.935   4.607   1.500 -0.0253  0.3705  2.0880
10473TIP3    H252835   4.959   4.732   1.418  0.4491 -0.1368  1.4357
10474TIP3   OH252836   1.255   4.646   2.463  0.1174 -0.0318 -1.0234
10474TIP3    H152837   1.333   4.700   2.457  0.0019  0.2140 -0.3959
10474TIP3    H252838   1.242   4.612   2.374  0.2817  0.8429 -1.3925
10475TIP3   OH252839   5.434   6.353  13.189 -0.1446  0.0036  0.0864
10475TIP3    H152840   5.526   6.330  13.202 -0.3486 -0.5431  0.6089
10475TIP3    H252841   5.392   6.271  13.164 -0.2858  0.4814 -1.3367
10476TIP3   OH252842   4.531   5.509  13.814  0.2190  0.9245  0.3116
10476TIP3    H152843   4.547   5.462  13.896  2.7631  0.5614 -0.3275
10476TIP3    H252844   4.476   5.449  13.763 -1.7707  1.3422  1.8551
10477TIP3   OH252845   4.823   4.578  14.874  0.5374  0.3835  0.7577
10477TIP3    H152846   4.809   4.629  14.954  0.4294 -0.3615  1.2181
10477TIP3    H252847   4.777   4.496  14.889 -0.6208  0.7408 -0.6081
10478TIP3   OH252848   1.432   3.252   6.160 -0.2591 -0.3231  0.0084
10478TIP3    H152849   1.466   3.291   6.080  0.6897  0.8718  0.9544
10478TIP3    H252850   1.486   3.175   6.175 -0.9521 -1.0116 -0.8886
10479TIP3   OH252851   0.106   1.646  11.941 -0.1507 -0.3331 -0.0863
10479TIP3    H152852   0.118   1.719  12.002  0.1378 -0.1011 -0.4187
10479TIP3    H252853   0.085   1.687  11.858  1.2360 -0.5768 -0.5754
10480TIP3   OH252854   1.679   2.366   0.312  0.1760  0.6150 -0.3989
10480TIP3    H152855   1.680   2.460   0.292  0.1058  0.8144  0.4833
10480TIP3    H252856   1.752   2.355   0.374  0.9892 -0.1420 -1.4538
10481TIP3   OH252857   1.019   4.438   5.888  0.2435 -0.0495  0.0383
10481TIP3    H152858   1.113   4.430   5.906  0.5965  1.2686 -1.0459
10481TIP3    H252859   1.000   4.531   5.900 -0.7891 -0.1994 -0.3687
10482TIP3   OH252860   1.058   4.430  13.110  0.2688  0.6460  0.1242
10482TIP3    H152861   1.027   4.490  13.178 -0.4313  0.4892 -0.0508
10482TIP3    H252862   0.992   4.437  13.040 -1.0594 -1.9477  1.0052
10483TIP3   OH252863   0.675   1.256   5.716 -0.0087  0.0911 -0.5219
10483TIP3    H152864   0.737   1.183   5.716 -0.1151 -0.0008  0.1665
10483TIP3    H252865   0.622   1.243   5.794 -1.0955  0.0027 -1.2480
10484TIP3   OH252866   3.170   2.481   0.037  0.1808 -0.3154 -0.3174
10484TIP3    H152867   3.146   2.389   0.030 -1.3203  0.0234  0.1666
10484TIP3    H252868   3.094   2.529   0.006  0.7593  0.7888 -0.1000
10485TIP3   OH252869   6.580   1.983  13.925  0.3772 -0.3875 -0.1126
10485TIP3    H152870   6.618   2.064  13.891  0.4325 -0.6477 -0.6767
10485TIP3    H252871   6.541   2.008  14.008  1.7817 -0.1083  0.4894
10486TIP3   OH252872   3.587   5.028  16.015  0.4292  0.1510  0.4468
10486TIP3    H152873   3.638   5.108  16.008  0.3508  0.6939  4.1200
10486TIP3    H252874   3.496   5.058  16.025  0.1532 -0.5021 -0.0352
10487TIP3   OH252875   4.088   0.299  12.553  0.1020 -0.1559 -0.6035
10487TIP3    H152876   4.121   0.352  12.481 -0.9642  0.7235 -0.4687
10487TIP3    H252877   4.033   0.232  12.512  0.1704 -0.1747 -0.6637
10488TIP3   OH252878   4.191   3.973   3.339 -0.2409 -0.1374 -0.1324
10488TIP3    H152879   4.245   3.955   3.262 -1.3552 -0.1436 -0.9259
10488TIP3    H252880   4.173   4.067   3.335 -1.3519 -0.3599 -0.5883
10489TIP3   OH252881   3.783   5.697  10.680  0.3381 -0.1325  0.0952
10489TIP3    H152882   3.691   5.685  10.655  0.7852 -0.6176 -1.3782
10489TIP3    H252883   3.832   5.681  10.600  1.6542  1.2013  0.5959
10490TIP3   OH252884   4.949   6.668  14.129 -0.0063 -0.1032  1.0917
10490TIP3    H152885   4.865   6.704  14.159  1.0150  1.2096  2.5570
10490TIP3    H252886   5.015   6.725  14.169  1.6214 -1.7155  0.8427
10491TIP3   OH252887   6.375   5.857  16.766  0.3005 -0.3877 -0.4709
10491TIP3    H152888   6.320   5.921  16.721 -0.5180 -1.5708 -1.1950
10491TIP3    H252889   6.461   5.867  16.726 -0.4211 -1.4796 -2.4434
10492TIP3   OH252890   0.574   4.906  16.582 -0.5865  0.3601 -0.4822
10492TIP3    H152891   0.562   4.979  16.642 -0.8547  0.2440 -0.3946
10492TIP3    H252892   0.489   4.861  16.580 -0.3870 -0.0254 -0.4320
10493TIP3   OH252893   5.870   5.263  16.416 -0.0446  0.1608 -0.0084
10493TIP3    H152894   5.929   5.313  16.472 -0.2439  0.9337 -0.4719
10493TIP3    H252895   5.858   5.318  16.339 -0.1537 -0.6771 -0.6020
10494TIP3   OH252896   5.863   2.266   0.736  0.2916 -0.0010 -0.2564
10494TIP3    H152897   5.792   2.255   0.799 -0.2449  0.5466 -0.7404
10494TIP3    H252898   5.818   2.281   0.652  0.9688 -1.8464 -1.0130
10495TIP3   OH252899   0.729   5.672  15.665 -0.9646  0.5440 -0.5652
10495TIP3    H152900   0.642   5.693  15.700 -0.9560  0.9957 -0.8038
10495TIP3    H252901   0.782   5.750  15.683 -0.5686  0.2135 -0.2924
10496TIP3   OH252902   3.791   2.463  12.509 -0.4513  0.3968  0.2154
10496TIP3    H152903   3.825   2.388  12.560  0.2516  0.2546 -0.4435
10496TIP3    H252904   3.710   2.488  12.554  0.6634  0.9369  2.0430
10497TIP3   OH252905   2.748   1.263  15.772 -0.1600 -0.3658  0.5996
10497TIP3    H152906   2.696   1.279  15.851 -0.1235 -0.8991  0.7307
10497TIP3    H252907   2.839   1.270  15.802 -0.1430 -0.8695  0.6687
10498TIP3   OH252908   2.470   5.014  14.683 -0.5992 -0.1039 -0.0280
10498TIP3    H152909   2.511   5.037  14.600  0.6063  0.3984  0.6860
10498TIP3    H252910   2.438   4.924  14.671 -0.1112 -0.1642 -0.9060
10499TIP3   OH252911   0.501   0.259   3.696  0.2834 -0.0448  0.0992
10499TIP3    H152912   0.552   0.266   3.776 -2.2156  1.3728  1.6786
10499TIP3    H252913   0.527   0.174   3.658 -0.9275 -2.5229  4.2286
10500TIP3   OH252914   6.220   1.579  12.796 -0.3082 -0.2252  0.2020
10500TIP3    H152915   6.197   1.640  12.725  0.2034 -1.3061 -0.9211
10500TIP3    H252916   6.196   1.493  12.763  0.6567 -0.8355  1.0367
10501TIP3   OH252917   5.632   3.711  15.058  0.0170  0.0862  0.1822
10501TIP3    H152918   5.555   3.760  15.028  0.0668 -1.1252 -2.2199
10501TIP3    H252919   5.601   3.621  15.067  1.0780 -0.4043 -0.7413
10502TIP3   OH252920   6.529   4.949   0.675 -0.7590  0.2862 -0.4212
10502TIP3    H152921   6.500   4.871   0.723  1.8867 -0.4486  0.1413
10502TIP3    H252922   6.451   4.977   0.627 -2.2534 -1.7110  0.6513
10503TIP3   OH252923   5.867   0.448   1.843 -0.5027 -0.2017  0.2737
10503TIP3    H152924   5.932   0.447   1.773  0.5346 -1.5473  1.2080
10503TIP3    H252925   5.887   0.370   1.896 -1.3745  0.6680  1.9605
10504TIP3   OH252926   0.002   0.734   3.728  0.1150  0.3037  0.1102
10504TIP3    H152927   0.023   0.822   3.697  0.9138 -0.4547 -1.5908
10504TIP3    H252928   0.003   0.742   3.824  2.5996  1.6154  0.0545
10505TIP3   OH252929   6.163   3.016  11.438  0.2748  0.0097 -0.5201
10505TIP3    H152930   6.127   3.038  11.352 -0.8379 -0.7066 -0.2549
10505TIP3    H252931   6.089   2.978  11.486  1.0120 -0.0819  0.5774
10506TIP3   OH252932   3.850   1.601  13.662  0.0248  0.2698  0.1847
10506TIP3    H152933   3.922   1.548  13.628  0.1276 -1.2098  2.5552
10506TIP3    H252934   3.818   1.649  13.585  2.8846  0.2811 -1.1420
10507TIP3   OH252935   5.939   5.204   2.026 -0.0484  0.1012  0.1907
10507TIP3    H152936   5.958   5.258   1.950  0.8617  0.2086  0.4859
10507TIP3    H252937   5.967   5.116   2.000 -2.7021 -0.5521 -0.7686
10508TIP3   OH252938   6.102   6.368  13.072  0.4022 -0.1435  0.8112
10508TIP3    H152939   6.139   6.418  12.999  0.1054  0.2240  0.9085
10508TIP3    H252940   6.178   6.326  13.114  0.6887  0.4521  0.8988
10509TIP3   OH252941   0.063   3.310  12.455 -0.6701  0.3529  0.2161
10509TIP3    H152942   0.100   3.255  12.525  1.3474  0.6722 -0.5337
10509TIP3    H252943  -0.016   3.263  12.428 -0.0743 -1.1613  0.9481
10510TIP3   OH252944   4.179   3.606   2.618 -0.2038 -0.0758 -0.0686
10510TIP3    H152945   4.088   3.628   2.599  0.0813 -0.3143 -1.8823
10510TIP3    H252946   4.223   3.609   2.533  1.0628 -1.8688  0.4505
10511TIP3   OH252947   0.944   4.590  13.582 -0.1371 -0.4325  0.1108
10511TIP3    H152948   0.891   4.659  13.621  0.5364  1.1216 -1.5897
10511TIP3    H252949   1.008   4.568  13.649 -1.6938 -1.0176  1.4972
10512TIP3   OH252950   3.629   4.519  11.037  0.4869 -0.1966  0.1097
10512TIP3    H152951   3.715   4.506  10.997  0.9458 -0.7597  1.2260
10512TIP3    H252952   3.573   4.547  10.965  1.5501 -0.0469 -0.6850
10513TIP3   OH252953   6.039   3.187  15.568  0.6728 -0.3210 -0.2683
10513TIP3    H152954   5.991   3.124  15.622  2.2515 -0.4154  1.1028
10513TIP3    H252955   6.015   3.273  15.604  1.2131 -0.3462  0.1574
10514TIP3   OH252956   0.993   5.056  15.335  0.3489 -0.1627 -0.1186
10514TIP3    H152957   1.056   5.018  15.274  0.0875 -2.6159  1.0256
10514TIP3    H252958   0.909   5.048  15.291  0.1069 -2.2946  0.6432
10515TIP3   OH252959   2.503   3.608  13.448  0.5184  0.1589  0.4762
10515TIP3    H152960   2.510   3.515  13.468 -1.1012  0.3350  1.9848
10515TIP3    H252961   2.488   3.610  13.353  0.0381 -1.1290  0.5019
10516TIP3   OH252962   3.983   0.173   3.816  0.3299 -0.1919  0.0086
10516TIP3    H152963   3.987   0.081   3.789 -0.2993 -0.4774  0.8658
10516TIP3    H252964   3.898   0.182   3.858  0.3722  0.8013 -0.1069
10517TIP3   OH252965   5.507   2.077   4.334  0.7438  0.4685 -0.4464
10517TIP3    H152966   5.587   2.123   4.358  2.2772 -1.3670 -1.6608
10517TIP3    H252967   5.501   2.005   4.396 -0.0451  0.6607 -0.2892
10518TIP3   OH252968   3.619   1.255  14.449 -0.0776  0.3729 -0.4515
10518TIP3    H152969   3.570   1.190  14.400 -0.9731 -1.3433  2.4799
10518TIP3    H252970   3.566   1.335  14.443 -2.2542 -0.8796  0.9369
10519TIP3   OH252971   3.727   6.168   5.958  0.3868  0.0433 -0.0147
10519TIP3    H152972   3.648   6.130   5.918  0.8984  0.4421 -1.4821
10519TIP3    H252973   3.694   6.226   6.026 -0.4859 -1.4278  0.8614
10520TIP3   OH252974   6.581   5.033  15.742  0.1469 -0.1661  0.3146
10520TIP3    H152975   6.676   5.022  15.733  0.1340  1.0026 -2.5398
10520TIP3    H252976   6.544   4.955  15.701  0.0025  1.2318 -2.4861
10521TIP3   OH252977   5.343   6.032  13.577  0.1066  0.1045  0.3675
10521TIP3    H152978   5.396   6.050  13.499 -1.3964  1.6531 -0.3562
10521TIP3    H252979   5.352   6.110  13.631 -0.2649 -0.2267  0.9190
10522TIP3   OH252980   6.107   5.356  13.659  0.1787 -0.3298 -0.2371
10522TIP3    H152981   6.153   5.273  13.660 -1.1563 -1.1351  1.8728
10522TIP3    H252982   6.124   5.394  13.745 -1.5874  0.1677 -0.0654
10523TIP3   OH252983   3.199   0.789  14.359 -0.0181  0.1388 -0.1327
10523TIP3    H152984   3.264   0.841  14.405  1.2299 -0.4912 -1.1383
10523TIP3    H252985   3.225   0.698  14.375  0.0266 -0.1050 -1.4736
10524TIP3   OH252986   2.741   1.117  13.392  1.1817  0.6143  0.0344
10524TIP3    H152987   2.759   1.075  13.308 -0.1677  0.5860 -0.2615
10524TIP3    H252988   2.729   1.044  13.453 -1.7604  0.4433 -0.6022
10525TIP3   OH252989   1.673   2.533   1.283  0.0823 -0.2790 -0.2785
10525TIP3    H152990   1.666   2.458   1.223  0.4453 -1.7015  1.3724
10525TIP3    H252991   1.641   2.607   1.232 -0.2509 -1.5401 -2.0070
10526TIP3   OH252992   6.083   4.367   5.883 -0.0973  0.1289  0.0322
10526TIP3    H152993   6.054   4.322   5.963 -0.2458  0.6543  0.2803
10526TIP3    H252994   6.011   4.426   5.862 -0.3518 -0.4896 -0.8824
10527TIP3   OH252995   5.074   5.481  11.364 -0.0121  0.5933 -0.1077
10527TIP3    H152996   5.031   5.564  11.385  0.6030  0.7723  0.4722
10527TIP3    H252997   5.061   5.471  11.270 -1.9697  0.2623  0.1681
10528TIP3   OH252998   0.901   2.297   4.931 -0.0610 -0.6770  0.8875
10528TIP3    H152999   0.973   2.277   4.871  0.9748  1.3911  1.3488
10528TIP3    H253000   0.905   2.226   4.996  1.4839 -0.7143  0.8072
10529TIP3   OH253001   3.433   1.978   4.423 -0.0710  0.3488  0.5714
10529TIP3    H153002   3.526   1.998   4.434  0.3823 -2.4477  3.3769
10529TIP3    H253003   3.389   2.030   4.490 -0.6311  1.6309 -0.7199
10530TIP3   OH253004   4.870   5.467  16.284  0.7665 -0.4218  0.3295
10530TIP3    H153005   4.848   5.558  16.262  0.7019 -0.1684  1.3753
10530TIP3    H253006   4.812   5.414  16.230 -0.0613  0.1822  0.6030
10531TIP3   OH253007   2.988   4.586  11.600 -0.2993 -0.1140  0.2806
10531TIP3    H153008   2.923   4.646  11.562  2.0860  2.2620 -0.4165
10531TIP3    H253009   2.951   4.561  11.685 -1.9168  1.4888  0.1117
10532TIP3   OH253010   1.253   5.575   4.070 -0.4412  0.0489 -0.5005
10532TIP3    H153011   1.238   5.620   3.987 -0.1209  2.7296  0.7815
10532TIP3    H253012   1.346   5.556   4.071 -0.4061  0.2073 -0.6787
10533TIP3   OH253013   4.873   4.099   1.013  0.4835 -0.7699 -0.1427
10533TIP3    H153014   4.887   4.172   0.953  1.0818 -1.3170 -0.6822
10533TIP3    H253015   4.907   4.129   1.097  0.4705 -0.3311 -0.2949
10534TIP3   OH253016   4.985   3.099   2.468  0.4498  0.7541 -0.0236
10534TIP3    H153017   5.072   3.059   2.477  0.6504  0.8554 -1.3103
10534TIP3    H253018   5.001   3.185   2.431 -0.1864  0.8750 -0.0385
10535TIP3   OH253019   5.300   4.822  14.575 -0.0019 -0.2191 -0.5703
10535TIP3    H153020   5.298   4.916  14.593 -0.0766 -0.1421 -0.9883
10535TIP3    H253021   5.251   4.783  14.648 -0.6444  0.1317 -0.8063
10536TIP3   OH253022   1.343   5.025   0.053 -0.5564  0.1180 -0.1084
10536TIP3    H153023   1.291   5.032   0.134 -0.4168 -1.3773  0.1320
10536TIP3    H253024   1.278   5.009  -0.015 -0.5301 -0.4321 -0.0075
10537TIP3   OH253025   1.125   3.593   5.556  0.1683 -0.2741  0.1903
10537TIP3    H153026   1.187   3.620   5.624 -0.7429 -0.6659  1.2030
10537TIP3    H253027   1.054   3.656   5.562 -0.5493 -1.0962  0.5301
10538TIP3   OH253028   2.099   6.152   3.198 -0.2430 -0.0104  0.2783
10538TIP3    H153029   2.077   6.206   3.123  0.8136  0.3846  0.2410
10538TIP3    H253030   2.033   6.174   3.264 -1.7588 -1.0585 -0.8298
10539TIP3   OH253031   0.655   6.051  14.687 -0.1780  0.3282  0.1094
10539TIP3    H153032   0.620   5.969  14.722 -1.0800  0.9605  0.7342
10539TIP3    H253033   0.741   6.060  14.728 -0.7644  0.5029  1.3481
10540TIP3   OH253034   4.085   1.203   5.225  0.1028 -0.9476  0.2775
10540TIP3    H153035   4.110   1.175   5.313  0.1493  0.5845  0.7836
10540TIP3    H253036   4.166   1.236   5.186 -0.2370 -0.0461  0.3020
10541TIP3   OH253037   5.628   4.618   2.687  0.1947 -0.4400 -0.4068
10541TIP3    H153038   5.605   4.654   2.773  0.0265  0.7027 -0.9134
10541TIP3    H253039   5.547   4.576   2.657 -1.1691  2.8094 -1.7980
10542TIP3   OH253040   4.721   0.513  16.392 -0.4185 -0.3220  0.7002
10542TIP3    H153041   4.720   0.552  16.304  0.3613 -0.9477  0.3952
10542TIP3    H253042   4.674   0.576  16.447 -0.3596  0.3891 -0.0369
10543TIP3   OH253043   5.060   6.033  11.989 -0.0558  0.1553  0.7785
10543TIP3    H153044   4.977   6.028  12.035  0.6230 -2.3460  1.9350
10543TIP3    H253045   5.046   5.983  11.909  0.4190 -0.6832  1.2020
10544TIP3   OH253046   6.631   0.803  13.464 -0.5565 -0.5171  0.0885
10544TIP3    H153047   6.687   0.738  13.507  2.0253  1.1252 -0.5946
10544TIP3    H253048   6.670   0.816  13.378 -1.3054  1.5397 -0.0042
10545TIP3   OH253049   5.546   2.961   4.170  0.1274 -0.7090 -0.4381
10545TIP3    H153050   5.627   2.945   4.122 -0.6000  0.5314 -2.1669
10545TIP3    H253051   5.535   2.883   4.225  2.5357 -0.8448 -0.0475
10546TIP3   OH253052   5.367   0.596  16.824 -0.1010  0.1218 -0.1211
10546TIP3    H153053   5.413   0.653  16.887 -1.0434  0.1099  0.5948
10546TIP3    H253054   5.408   0.510  16.835 -0.4373  0.0583  0.6728
10547TIP3   OH253055   2.215   0.089   4.778 -0.3777  0.1135  0.2866
10547TIP3    H153056   2.294   0.085   4.723  0.2783 -0.2063  1.2269
10547TIP3    H253057   2.248   0.112   4.864 -1.3346  0.0232  0.6846
10548TIP3   OH253058   2.184   4.050   4.390 -0.2110 -0.5749  0.2511
10548TIP3    H153059   2.169   4.016   4.478 -1.0359 -1.0245 -0.0560
10548TIP3    H253060   2.276   4.030   4.372  0.1329  0.0300  1.2202
10549TIP3   OH253061   4.281   0.853  14.740 -0.4088 -0.3272  0.1274
10549TIP3    H153062   4.186   0.859  14.749 -0.4243 -1.3219  0.7736
10549TIP3    H253063   4.294   0.807  14.657 -0.6300 -3.4017  1.6487
10550TIP3   OH253064   5.285   6.719  12.838  0.0021 -0.1605  0.0833
10550TIP3    H153065   5.339   6.649  12.875  1.3687  0.0877 -1.3089
10550TIP3    H253066   5.296   6.792  12.898  1.8484  0.1049 -0.4921
10551TIP3   OH253067   1.197   1.242  13.015  0.1263 -0.1106 -0.4281
10551TIP3    H153068   1.226   1.153  12.998 -0.2649 -0.7096  1.6844
10551TIP3    H253069   1.224   1.292  12.938  4.4076 -1.0869  0.2197
10552TIP3   OH253070   3.006   1.130  15.311 -0.5255 -0.4224  0.0607
10552TIP3    H153071   2.927   1.144  15.258 -0.4626  0.4681  0.1888
10552TIP3    H253072   2.973   1.098  15.395 -0.6450 -1.5281 -0.3836
10553TIP3   OH253073   1.261   5.815  14.644  0.3871 -0.1390  0.0608
10553TIP3    H153074   1.338   5.836  14.697 -0.2670 -0.4959  1.1827
10553TIP3    H253075   1.255   5.887  14.581 -0.4292  1.9213  2.2853
10554TIP3   OH253076   3.203   1.798  12.205  0.2779  0.4695  0.0717
10554TIP3    H153077   3.201   1.722  12.147  0.6037  0.3659  0.1926
10554TIP3    H253078   3.207   1.762  12.293  0.9462  0.6213  0.1095
10555TIP3   OH253079   2.252   5.091  14.101 -0.2690 -0.4443  0.3937
10555TIP3    H153080   2.252   5.082  14.006 -2.6323  0.6638  0.2187
10555TIP3    H253081   2.180   5.036  14.130  1.0660 -1.5940  1.6973
10556TIP3   OH253082   4.037   2.937   1.610 -0.4737  0.0440  0.2591
10556TIP3    H153083   4.127   2.906   1.614 -0.4617  0.0625  0.1368
10556TIP3    H253084   4.025   2.963   1.519 -0.9130 -0.8900  0.0389
10557TIP3   OH253085   1.493   5.454  16.456 -0.0099  0.0935  0.0946
10557TIP3    H153086   1.485   5.454  16.551 -1.1509  0.5664  0.0207
10557TIP3    H253087   1.585   5.437  16.439  0.2466  0.2225  1.2875
10558TIP3   OH253088   3.335   1.951   4.150  0.2202  0.1628  0.4056
10558TIP3    H153089   3.417   1.978   4.109  0.4880 -0.4200  0.5511
10558TIP3    H253090   3.356   1.944   4.243  0.4646 -1.6419  0.2438
10559TIP3   OH253091   0.343   5.644  14.007 -0.4950  0.6946 -0.8777
10559TIP3    H153092   0.343   5.715  14.072 -2.3192 -0.4852  0.5126
10559TIP3    H253093   0.282   5.674  13.939 -0.5650  0.8445 -0.7508
10560TIP3   OH253094   2.113   4.669   5.036 -0.2659 -0.4063  0.2714
10560TIP3    H153095   2.181   4.692   4.974 -1.3374  1.6421 -0.2033
10560TIP3    H253096   2.161   4.642   5.115  1.0799  0.6931 -0.1408
10561TIP3   OH253097   1.236   6.078   3.862 -0.2247 -0.2065  0.4167
10561TIP3    H153098   1.299   6.077   3.934 -0.1285  0.7479  0.3666
10561TIP3    H253099   1.268   6.148   3.804 -0.8189 -0.3373 -0.0762
10562TIP3   OH253100   2.809   3.716   2.166 -0.3804 -0.0100 -0.0301
10562TIP3    H153101   2.879   3.719   2.231 -0.9464 -1.2223  0.6703
10562TIP3    H253102   2.763   3.634   2.184 -3.1300  1.5663  0.7691
10563TIP3   OH253103   2.613   3.188  14.147 -0.4147 -0.6213  0.3384
10563TIP3    H153104   2.612   3.276  14.186  1.5164 -0.7709  0.8547
10563TIP3    H253105   2.544   3.190  14.082  0.0648  1.5539 -0.1884
10564TIP3   OH253106   3.861   6.533   0.107  0.5397  0.4295  0.4705
10564TIP3    H153107   3.804   6.532   0.030  0.2894 -1.7337  0.6093
10564TIP3    H253108   3.938   6.482   0.082  0.3900 -0.4440  1.6628
10565TIP3   OH253109   4.938   1.263  11.109 -0.4828  0.2123  0.6347
10565TIP3    H153110   4.993   1.186  11.119 -0.3765  0.2167  0.1040
10565TIP3    H253111   4.974   1.309  11.034 -2.3770 -0.7801 -0.9792
10566TIP3   OH253112   4.810   6.739   1.255 -0.0693  0.5044 -0.1962
10566TIP3    H153113   4.826   6.710   1.345 -1.1848 -0.7816 -0.3646
10566TIP3    H253114   4.728   6.788   1.260  0.9523  2.2636 -0.1969
10567TIP3   OH253115   2.858   5.590   4.792 -0.5746 -0.1763  0.3870
10567TIP3    H153116   2.909   5.516   4.760  0.0181 -0.6905  2.3348
10567TIP3    H253117   2.869   5.658   4.726  0.9973 -0.9575 -0.2108
10568TIP3   OH253118   3.534   4.955   2.132  0.4921  0.4305  0.1872
10568TIP3    H153119   3.579   4.892   2.188 -0.2104  1.0821  1.5369
10568TIP3    H253120   3.597   5.027   2.121  0.8543  0.0343 -0.3791
10569TIP3   OH253121   0.556   2.538  14.543 -0.5606  0.4197  0.1591
10569TIP3    H153122   0.497   2.508  14.613 -0.7799  0.9361  0.1989
10569TIP3    H253123   0.618   2.466  14.532 -0.8174  0.1324  0.5548
10570TIP3   OH253124   5.982   1.305   4.546 -0.1381 -0.2971 -0.0672
10570TIP3    H153125   6.002   1.243   4.477  0.1770  0.8372 -1.0209
10570TIP3    H253126   6.067   1.330   4.582 -0.3166 -1.2037  1.0533
10571TIP3   OH253127   1.352   4.132  11.797 -0.1028 -0.2821  0.2231
10571TIP3    H153128   1.445   4.141  11.817 -0.0084  0.0586 -0.3446
10571TIP3    H253129   1.315   4.218  11.817 -0.2093 -0.2792  0.0157
10572TIP3   OH253130   0.664   4.317  11.194  0.4164 -0.0325 -0.5790
10572TIP3    H153131   0.596   4.320  11.126 -1.6153 -0.9018  1.2977
10572TIP3    H253132   0.669   4.407  11.226 -0.5341 -0.1053 -0.1660
10573TIP3   OH253133   6.349   4.249  12.531  0.4177 -0.2791  0.2134
10573TIP3    H153134   6.276   4.223  12.473  0.0298  0.4703  0.3563
10573TIP3    H253135   6.423   4.195  12.501 -0.5266 -2.0933  0.9822
10574TIP3   OH253136   4.885   3.342  14.954 -0.2172 -0.9727 -0.0135
10574TIP3    H153137   4.866   3.433  14.976 -0.6998 -1.2348  0.7076
10574TIP3    H253138   4.920   3.305  15.035  0.1677 -1.3802 -0.3613
10575TIP3   OH253139   4.379   4.864  15.266 -0.5041 -0.3762  0.5008
10575TIP3    H153140   4.290   4.845  15.296 -0.1596 -0.2476  1.6310
10575TIP3    H253141   4.417   4.778  15.250 -1.4199 -0.4120 -1.8581
10576TIP3   OH253142   5.541   3.953  14.678  0.2833 -0.1299 -0.1761
10576TIP3    H153143   5.475   3.984  14.616  0.3726 -1.7335 -1.1331
10576TIP3    H253144   5.519   3.861  14.693  1.2015 -0.1932  0.9508
10577TIP3   OH253145   2.716   6.780  11.983  0.6245  0.1832 -0.0322
10577TIP3    H153146   2.714   6.717  11.911  0.0018 -0.0086  0.1480
10577TIP3    H253147   2.738   6.863  11.941 -1.7430  0.5083 -0.8056
10578TIP3   OH253148   2.229   4.857   0.405  0.0147 -0.0858 -0.1954
10578TIP3    H153149   2.284   4.793   0.450  0.0227  1.5286  2.2923
10578TIP3    H253150   2.140   4.833   0.431 -0.2461 -0.7666 -1.6173
10579TIP3   OH253151   0.926   1.407  11.481 -0.2153 -0.0878  0.2304
10579TIP3    H153152   0.884   1.455  11.409 -0.4397 -1.0782 -0.3138
10579TIP3    H253153   1.019   1.429  11.474 -0.4991  1.4135  0.8893
10580TIP3   OH253154   3.470   5.909  12.488  0.0437  0.2966 -0.0076
10580TIP3    H153155   3.485   5.848  12.559 -0.0573  0.4073  0.1091
10580TIP3    H253156   3.493   5.995  12.525  1.5563  0.1773 -0.5805
10581TIP3   OH253157   4.875   6.418  17.005  0.3551 -0.1983  0.2402
10581TIP3    H153158   4.856   6.448  16.916 -1.1806  1.7357  1.1463
10581TIP3    H253159   4.966   6.442  17.019  0.4502 -0.0193 -0.6055
10582TIP3   OH253160   1.791   0.962  14.275  0.4115 -0.1668  0.1582
10582TIP3    H153161   1.763   0.888  14.328 -0.1355 -0.1538 -0.0987
10582TIP3    H253162   1.709   1.004  14.248  0.7186  0.7051  0.5509
10583TIP3   OH253163   6.365   0.596  11.962  0.4794  0.1317  0.5656
10583TIP3    H153164   6.412   0.628  11.885  0.3652 -0.8069  0.0947
10583TIP3    H253165   6.433   0.568  12.022  0.5716 -1.5659 -0.2599
10584TIP3   OH253166   6.163   4.722  14.044  0.2379 -0.3287 -0.0231
10584TIP3    H153167   6.209   4.669  13.979 -3.4209 -0.7119 -2.6269
10584TIP3    H253168   6.160   4.667  14.122 -1.5547 -3.2181 -1.9442
10585TIP3   OH253169   3.610   3.707  11.257 -0.3612  0.3837 -0.0938
10585TIP3    H153170   3.679   3.772  11.266  0.1539 -0.1671  0.0355
10585TIP3    H253171   3.583   3.688  11.347  1.0654 -1.2111  0.0517
10586TIP3   OH253172   3.842   1.983  15.367 -0.2498 -0.0555  0.1840
10586TIP3    H153173   3.789   1.905  15.351  0.6215 -0.3450 -1.5453
10586TIP3    H253174   3.838   2.032  15.286 -0.8767  1.8197  1.2887
10587TIP3   OH253175   3.764   6.353  11.578 -0.0429 -0.4206  0.7280
10587TIP3    H153176   3.682   6.391  11.609 -0.5737 -0.3027 -0.7446
10587TIP3    H253177   3.746   6.259  11.569  0.0107 -0.4083  0.4845
10588TIP3   OH253178   2.132   0.710   4.616  0.1072 -0.1263  0.0361
10588TIP3    H153179   2.142   0.697   4.710  0.5895 -1.8857 -0.2238
10588TIP3    H253180   2.129   0.805   4.605 -0.0425  0.1101  1.8230
10589TIP3   OH253181   4.487   5.767  12.113 -0.0230  1.2785 -0.0676
10589TIP3    H153182   4.557   5.738  12.054  0.3924  2.3340 -0.1211
10589TIP3    H253183   4.457   5.850  12.075 -1.2064  0.9107  0.0431
10590TIP3   OH253184   0.741   3.397  11.755 -0.0336 -0.1676 -0.0356
10590TIP3    H153185   0.784   3.445  11.825 -0.8953 -1.0602  1.1425
10590TIP3    H253186   0.654   3.375  11.790 -0.7416 -0.0847 -1.6156
10591TIP3   OH253187   2.284   1.512  15.984 -0.4913 -0.0495  0.3121
10591TIP3    H153188   2.358   1.455  15.962 -0.9971 -0.6657  0.1668
10591TIP3    H253189   2.209   1.472  15.940 -0.7564  1.0690 -0.2658
10592TIP3   OH253190   3.538   6.477  14.704 -0.3984  0.1155 -0.1628
10592TIP3    H153191   3.633   6.483  14.695 -0.5842  1.0151 -2.2885
10592TIP3    H253192   3.523   6.396  14.752  1.4578  0.6119  1.3341
10593TIP3   OH253193   1.716   6.500   0.424 -0.1918  0.2545  0.2163
10593TIP3    H153194   1.767   6.529   0.499  1.6496 -1.5352 -0.2699
10593TIP3    H253195   1.680   6.416   0.450 -0.2242  0.0043 -0.5967
10594TIP3   OH253196   2.073   2.673  16.944 -0.1348  0.3257  0.1415
10594TIP3    H153197   2.067   2.700  17.036  0.0355  0.3688  0.1392
10594TIP3    H253198   2.167   2.664  16.927 -0.1919 -0.2541  0.1365
10595TIP3   OH253199   3.574   4.850  14.301 -0.4472 -0.4303  0.2011
10595TIP3    H153200   3.512   4.777  14.299 -0.9591 -0.1519  2.3631
10595TIP3    H253201   3.522   4.926  14.274 -0.4809 -0.5470 -0.0570
10596TIP3   OH253202   0.187   0.327  10.775 -0.2158 -0.0283  0.2218
10596TIP3    H153203   0.170   0.420  10.784  0.4899  0.1313 -0.0049
10596TIP3    H253204   0.277   0.316  10.807 -0.0527 -0.5162 -0.3862
10597TIP3   OH253205   2.722   0.566   3.768 -0.0664  0.3820 -0.7060
10597TIP3    H153206   2.777   0.488   3.772  2.3983  2.0151 -0.5949
10597TIP3    H253207   2.686   0.566   3.679 -1.0906 -1.4410 -0.3394
10598TIP3   OH253208   3.861   6.205  16.981 -0.1570  0.4227 -0.4505
10598TIP3    H153209   3.838   6.255  16.903  0.8795 -0.1455 -1.1531
10598TIP3    H253210   3.940   6.157  16.956 -0.9686 -1.3729  0.2720
10599TIP3   OH253211   0.991   3.600  15.500  0.0143 -0.1856 -0.2008
10599TIP3    H153212   0.970   3.529  15.561  0.8185  0.3998  0.7949
10599TIP3    H253213   0.919   3.599  15.437 -1.0991 -0.5330  1.0076
10600TIP3   OH253214   1.061   6.267   3.660  0.1524 -0.3408  0.3586
10600TIP3    H153215   1.078   6.218   3.580  3.1890 -0.0794  0.7435
10600TIP3    H253216   0.969   6.249   3.680  0.2746 -3.2864 -1.2232
10601TIP3   OH253217   2.312   5.436   3.098  0.7106 -0.3449 -0.5536
10601TIP3    H153218   2.239   5.407   3.044 -0.0905 -0.6815  0.6641
10601TIP3    H253219   2.375   5.364   3.095 -0.2625 -1.2920  0.6181
10602TIP3   OH253220   4.098   5.050  12.751 -0.3060 -0.3209  0.2252
10602TIP3    H153221   4.080   5.008  12.836 -0.4369  1.0926  0.9308
10602TIP3    H253222   4.012   5.054  12.709  0.0375 -2.7899 -0.8797
10603TIP3   OH253223   1.388   1.030  15.729 -0.7680  0.9120 -0.1350
10603TIP3    H153224   1.483   1.028  15.719 -0.6475 -1.6321  0.9089
10603TIP3    H253225   1.362   1.112  15.686  1.7611  1.2030 -1.3281
10604TIP3   OH253226   1.173   0.673  16.043  0.2521 -0.9908  0.1843
10604TIP3    H153227   1.082   0.677  16.011  0.8561 -2.3668 -1.9005
10604TIP3    H253228   1.206   0.762  16.032 -0.1174 -1.0235 -1.4491
10605TIP3   OH253229   6.094   2.699  16.281 -0.2278 -0.5614  0.9859
10605TIP3    H153230   6.086   2.724  16.373 -0.3404 -3.0910  1.7404
10605TIP3    H253231   6.188   2.699  16.264 -0.1055 -1.5341  1.5824
10606TIP3   OH253232   2.486   0.125  15.292  0.3677 -0.2938  0.7366
10606TIP3    H153233   2.509   0.146  15.383  0.9257  0.4312  0.4409
10606TIP3    H253234   2.549   0.058  15.267  0.6581 -0.0051  0.6791
10607TIP3   OH253235   1.150   4.283  12.758 -0.2177  0.5455  0.4182
10607TIP3    H153236   1.119   4.296  12.668 -1.2702  0.9741  0.8331
10607TIP3    H253237   1.226   4.340  12.765  0.2533  0.0366 -0.3907
10608TIP3   OH253238   6.150   5.406  14.510  0.5895 -0.2805  0.1127
10608TIP3    H153239   6.060   5.387  14.538  0.8912 -1.1623  0.5329
10608TIP3    H253240   6.140   5.473  14.442 -0.4482 -0.9073 -0.3908
10609TIP3   OH253241   0.039   0.190   1.478 -0.9019  0.2247  0.3388
10609TIP3    H153242   0.078   0.108   1.449  0.0926  1.0048 -0.6125
10609TIP3    H253243  -0.031   0.164   1.538 -1.9110 -1.3900 -1.4487
10610TIP3   OH253244   1.840   6.546  10.826  0.7827 -0.0067 -0.1051
10610TIP3    H153245   1.797   6.475  10.778  0.1879  0.6169 -0.5108
10610TIP3    H253246   1.928   6.551  10.787  1.0067 -0.8489  0.2766
10611TIP3   OH253247   5.750   1.791   3.073  0.2566  0.3784 -0.0137
10611TIP3    H153248   5.660   1.762   3.088  0.5873  0.3269  2.2995
10611TIP3    H253249   5.790   1.721   3.023 -0.1182 -1.2197  1.8135
10612TIP3   OH253250   4.690   1.243  12.901  0.1422 -0.3142  0.1819
10612TIP3    H153251   4.664   1.291  12.822  0.1863 -3.3215 -1.8202
10612TIP3    H253252   4.634   1.278  12.970 -1.1410  1.2289 -1.5494
10613TIP3   OH253253   4.709   2.000  13.842 -0.1584  0.2566  0.7861
10613TIP3    H153254   4.689   1.912  13.873  0.9285 -0.4324 -0.3863
10613TIP3    H253255   4.698   1.995  13.747  1.9995  0.7856  0.4760
10614TIP3   OH253256   2.248   6.207   1.185 -0.6990  0.0701  0.0540
10614TIP3    H153257   2.339   6.191   1.157 -0.8308  0.2089 -0.4736
10614TIP3    H253258   2.232   6.141   1.252  0.9471  2.2290  2.7660
10615TIP3   OH253259   0.309   0.015  14.509 -0.3761 -0.9117 -0.1307
10615TIP3    H153260   0.290  -0.026  14.593 -0.3502 -0.3940  0.1311
10615TIP3    H253261   0.395   0.056  14.521 -1.4385  1.3119  0.4194
10616TIP3   OH253262   5.914   0.569  12.000 -0.2849 -0.1707  0.1871
10616TIP3    H153263   5.851   0.639  12.019  0.7115  0.8694 -0.2341
10616TIP3    H253264   5.978   0.575  12.070  0.1672 -0.2219 -0.2171
10617TIP3   OH253265   1.011   3.852  11.197  1.1331 -1.3197  0.4047
10617TIP3    H153266   1.029   3.941  11.165  1.8219 -1.6998 -0.2773
10617TIP3    H253267   0.951   3.816  11.132  1.5279 -1.6514  0.2236
10618TIP3   OH253268   1.644   2.218  12.089  0.0184  0.0230  0.2111
10618TIP3    H153269   1.636   2.139  12.144  0.4688 -0.0970  0.1116
10618TIP3    H253270   1.709   2.271  12.134  1.9491 -0.9768 -1.2272
10619TIP3   OH253271   4.577   3.645   0.069 -0.3882  0.2148  0.5412
10619TIP3    H153272   4.544   3.558   0.046 -0.9639  0.0014  2.0689
10619TIP3    H253273   4.499   3.698   0.080 -0.1638  0.2924  1.9572
10620TIP3   OH253274   4.929   4.952   3.190  0.4881  0.2463  0.7316
10620TIP3    H153275   4.847   4.943   3.142  1.7739 -0.6999 -1.4403
10620TIP3    H253276   4.911   4.913   3.276 -0.9338 -1.3146 -0.2184
10621TIP3   OH253277   5.167   4.558   0.618  0.1235 -0.0575  0.3409
10621TIP3    H153278   5.088   4.565   0.671 -1.9604  2.1668 -2.6920
10621TIP3    H253279   5.211   4.642   0.629  0.1111  0.1039 -0.6914
10622TIP3   OH253280   1.973   3.342   3.665 -0.4003  0.5723  0.8631
10622TIP3    H153281   1.908   3.412   3.662 -0.7668  0.2173 -0.6871
10622TIP3    H253282   2.039   3.372   3.727 -0.9972  1.8822  0.8867
10623TIP3   OH253283   4.503   3.851   2.690 -0.4032 -0.0029  0.5108
10623TIP3    H153284   4.587   3.897   2.696 -0.9415  0.9493  0.9243
10623TIP3    H253285   4.510   3.800   2.609  1.2680 -1.3975  1.4665
10624TIP3   OH253286   0.186   4.404   5.894  0.6321  0.0024  0.1041
10624TIP3    H153287   0.143   4.474   5.942  2.0306  1.0472 -0.1218
10624TIP3    H253288   0.157   4.323   5.937  2.3685  0.8899  3.2096
10625TIP3   OH253289   4.570   5.930   1.324  0.8928 -0.2958 -0.4756
10625TIP3    H153290   4.483   5.971   1.325  0.9583 -0.1564 -0.2169
10625TIP3    H253291   4.553   5.836   1.330  0.7197 -0.3518 -1.6956
10626TIP3   OH253292   5.755   1.509   2.915 -0.1603 -0.1217 -0.1850
10626TIP3    H153293   5.684   1.463   2.872 -1.0965  0.7206  0.4276
10626TIP3    H253294   5.834   1.480   2.868 -0.9444 -0.6434 -1.2227
10627TIP3   OH253295   5.206   1.292   2.907  0.7905  0.2869 -0.4644
10627TIP3    H153296   5.166   1.350   2.971  2.2807 -0.7475  1.5163
10627TIP3    H253297   5.195   1.204   2.945 -0.5895 -0.7055 -2.9163
10628TIP3   OH253298   0.868   5.725  10.815 -0.3865 -0.4659  0.4981
10628TIP3    H153299   0.911   5.660  10.870  1.2532 -0.1433 -0.3424
10628TIP3    H253300   0.793   5.678  10.777 -0.3109 -1.2945  1.3216
10629TIP3   OH253301   5.838   1.947  11.662 -0.2425 -0.0356 -0.0947
10629TIP3    H153302   5.779   1.893  11.714 -0.3208 -0.8896 -1.0335
10629TIP3    H253303   5.816   2.037  11.686  0.4750 -0.3941  2.1415
10630TIP3   OH253304   1.626   0.063   5.478  0.4032  0.3239  0.0025
10630TIP3    H153305   1.679   0.131   5.437  1.7498 -0.1517  0.8820
10630TIP3    H253306   1.656  -0.019   5.439 -0.3388  0.1068 -0.1433
10631TIP3   OH253307   5.113   0.231  17.046  0.3156  0.3900 -0.0697
10631TIP3    H153308   5.047   0.227  17.116  1.3912 -0.9822  0.9417
10631TIP3    H253309   5.113   0.322  17.018 -1.1545  0.6693  0.7394
10632TIP3   OH253310   4.367   2.589   2.253 -0.3024  0.3535  0.9246
10632TIP3    H153311   4.362   2.670   2.202  0.0730  0.6432  1.3399
10632TIP3    H253312   4.396   2.617   2.340  1.4150 -0.3808  0.6372
10633TIP3   OH253313   2.374   0.236   5.820  0.0813  0.0635 -0.5236
10633TIP3    H153314   2.443   0.243   5.754  0.1224 -1.8752 -0.7667
10633TIP3    H253315   2.370   0.142   5.840 -1.8941  0.2436  0.1331
10634TIP3   OH253316   0.037   6.323   3.989 -0.2813  0.3696  0.3667
10634TIP3    H153317   0.071   6.413   3.993 -0.5421  0.5038 -0.3150
10634TIP3    H253318  -0.003   6.309   4.075 -0.7677  1.1261  0.2790
10635TIP3   OH253319   6.233   0.217  16.709 -0.0223  0.7872  0.2455
10635TIP3    H153320   6.167   0.179  16.767  0.1065  1.1741  0.6506
10635TIP3    H253321   6.197   0.208  16.621 -1.0512  1.8795  0.5416
10636TIP3   OH253322   3.012   4.393  10.808 -0.3777 -0.0689  0.4155
10636TIP3    H153323   2.924   4.426  10.829 -1.2746 -0.4849 -2.2822
10636TIP3    H253324   3.009   4.377  10.714  2.1926 -1.3964  0.4904
10637TIP3   OH253325   2.032   2.883   1.129  0.1223 -0.1014  0.1477
10637TIP3    H153326   1.936   2.879   1.121  0.1947  0.4219 -1.2808
10637TIP3    H253327   2.054   2.971   1.100  1.1263 -0.6067 -0.6862
10638TIP3   OH253328   6.620   2.972   1.219  0.1396 -0.6552  0.0998
10638TIP3    H153329   6.666   2.890   1.234 -0.3175 -1.2568 -1.5708
10638TIP3    H253330   6.673   3.017   1.153 -1.3531 -1.1489 -1.4988
10639TIP3   OH253331   4.986   4.797  17.084  0.0575  0.1066  0.7672
10639TIP3    H153332   4.950   4.873  17.039 -0.7500 -0.0228  1.1781
10639TIP3    H253333   5.009   4.736  17.014  0.5114  0.6346  0.4468
10640TIP3   OH253334   2.583   2.869   4.299  0.1454  0.3894 -0.0050
10640TIP3    H153335   2.574   2.923   4.377  0.8883  0.7770 -0.1798
10640TIP3    H253336   2.495   2.836   4.282 -0.2496  1.2600  0.3098
10641TIP3   OH253337   6.416   6.244  11.121  0.2223  0.6633 -0.3939
10641TIP3    H153338   6.325   6.242  11.093  0.4893 -3.3539 -1.7694
10641TIP3    H253339   6.463   6.281  11.046 -0.0852  0.2586 -0.7976
10642TIP3   OH253340   0.171   1.188   3.632 -0.1321 -0.3515 -0.1473
10642TIP3    H153341   0.110   1.167   3.703  0.3597 -1.0896  0.0660
10642TIP3    H253342   0.256   1.199   3.675  0.5556 -2.6698 -0.7964
10643TIP3   OH253343   5.591   4.247   1.696  0.0323  0.1641  0.3022
10643TIP3    H153344   5.509   4.212   1.731  1.1140 -0.2743  2.5649
10643TIP3    H253345   5.639   4.169   1.667 -0.1902  0.3979 -0.7463
10644TIP3   OH253346   5.866   6.614  11.164 -0.4478 -0.2221  0.1530
10644TIP3    H153347   5.790   6.593  11.109 -0.2778  2.2752 -1.1938
10644TIP3    H253348   5.879   6.708  11.152  4.2512 -0.7977 -1.5766
10645TIP3   OH253349   5.012   3.350  15.227 -0.0792  0.3987 -0.5020
10645TIP3    H153350   5.108   3.354  15.226  0.0640 -1.3129  1.0803
10645TIP3    H253351   4.987   3.399  15.305 -0.4256  0.1832 -0.4755
10646TIP3   OH253352   5.099   0.510  12.306  0.0349 -0.3315 -0.2920
10646TIP3    H153353   5.191   0.489  12.287 -0.0601  0.8694 -2.3374
10646TIP3    H253354   5.102   0.553  12.391  1.2144 -1.2442  0.1646
10647TIP3   OH253355   0.524   1.982   2.831 -0.2420 -0.4410 -0.9812
10647TIP3    H153356   0.458   2.034   2.786  0.8180  0.1709 -1.9033
10647TIP3    H253357   0.595   1.974   2.768  1.6866  1.1760  0.8241
10648TIP3   OH253358   4.520   6.568   1.071  0.1084  0.5408  0.4777
10648TIP3    H153359   4.525   6.479   1.037  1.2462  0.1151  1.6690
10648TIP3    H253360   4.593   6.574   1.133 -0.6316  1.9368  1.2627
10649TIP3   OH253361   0.513   3.370   4.019 -0.4469 -0.0795 -0.4426
10649TIP3    H153362   0.550   3.374   3.931 -0.4159 -0.0256 -0.4270
10649TIP3    H253363   0.511   3.277   4.040  0.4529 -0.0295 -0.1119
10650TIP3   OH253364   5.391   2.034   3.574 -0.2904  0.1845 -0.1874
10650TIP3    H153365   5.456   2.042   3.644 -1.1154 -0.5962  0.7011
10650TIP3    H253366   5.394   1.941   3.550  0.5963  0.5920 -1.8277
10651TIP3   OH253367   4.424   5.473  16.038 -0.3227  0.0051 -0.0894
10651TIP3    H153368   4.425   5.404  15.971 -0.4498  0.4164 -0.5175
10651TIP3    H253369   4.336   5.511  16.031  0.2719  1.2625 -0.9362
10652TIP3   OH253370   3.345   6.746  14.280  0.5117 -0.0206 -0.8182
10652TIP3    H153371   3.412   6.698  14.327  2.5716  3.9915  0.8391
10652TIP3    H253372   3.393   6.808  14.225 -1.8970  0.6100 -2.4275
10653TIP3   OH253373   2.594   0.066  12.265  0.0846 -0.2461  0.2283
10653TIP3    H153374   2.668   0.125  12.277  0.1721 -0.4812  0.8643
10653TIP3    H253375   2.600   0.039  12.173  0.6474 -0.0807  0.2124
10654TIP3   OH253376   4.217   3.068  15.531 -0.6324 -0.4560  0.4992
10654TIP3    H153377   4.187   3.034  15.447  1.1900  0.8480 -0.7576
10654TIP3    H253378   4.139   3.105  15.572 -1.2334  0.6313 -1.5144
10655TIP3   OH253379   5.805   3.769   0.841  0.0415  0.2447  0.1871
10655TIP3    H153380   5.854   3.827   0.783  1.1062 -0.0276  0.7887
10655TIP3    H253381   5.866   3.749   0.912 -0.8068 -0.4395  0.7427
10656TIP3   OH253382   4.354   3.878   5.757 -0.1293  0.1097  0.0691
10656TIP3    H153383   4.317   3.806   5.706 -1.0776  0.8815 -0.3623
10656TIP3    H253384   4.346   3.849   5.848  0.7160 -0.8756 -0.1429
10657TIP3   OH253385   4.553   6.153  16.577  0.4327 -0.0252 -0.4086
10657TIP3    H153386   4.469   6.114  16.554  0.8613 -0.5724 -1.0864
10657TIP3    H253387   4.610   6.079  16.597 -0.2131  0.3859  3.8654
10658TIP3   OH253388   3.707   1.807  12.625 -0.4206  0.2314  0.2516
10658TIP3    H153389   3.661   1.853  12.696 -1.1719  0.4435 -0.3541
10658TIP3    H253390   3.686   1.715  12.639  0.0198  0.1999  0.7181
10659TIP3   OH253391   4.545   4.729  13.561  0.3761 -0.2479  0.2205
10659TIP3    H153392   4.522   4.774  13.642  0.9494 -0.4872  0.5191
10659TIP3    H253393   4.610   4.785  13.519 -0.0918 -0.0044 -0.2006
10660TIP3   OH253394   4.734   0.736  13.284 -0.2430 -0.3896 -0.0570
10660TIP3    H153395   4.667   0.772  13.341  2.2732  1.8632  1.7671
10660TIP3    H253396   4.754   0.650  13.320 -0.6100 -0.1351  0.7717
10661TIP3   OH253397   2.911   6.749  12.903 -0.4362 -0.3142  0.3891
10661TIP3    H153398   2.850   6.797  12.959 -0.1492 -0.7209  1.0585
10661TIP3    H253399   2.892   6.657  12.918  0.7382 -0.4701  1.0781
10662TIP3   OH253400   1.151   6.627   5.149  0.1856 -0.1803  0.0970
10662TIP3    H153401   1.213   6.559   5.175  1.4807  0.9866  0.1884
10662TIP3    H253402   1.161   6.695   5.216 -0.0717  0.6919 -0.7323
10663TIP3   OH253403   2.392   1.961  15.405  0.3711  0.3158  0.1386
10663TIP3    H153404   2.456   1.905  15.449  1.4161  2.5952  1.6546
10663TIP3    H253405   2.309   1.913  15.414  1.1674 -0.8767  1.5611
10664TIP3   OH253406   1.774   5.066  14.182  0.3555 -0.1580  0.0242
10664TIP3    H153407   1.819   5.149  14.169  1.4380 -0.7728 -0.2313
10664TIP3    H253408   1.707   5.064  14.113  2.4772 -0.9328 -2.1671
10665TIP3   OH253409   5.774   5.654  16.580  0.8384 -0.1190 -1.1080
10665TIP3    H153410   5.720   5.711  16.635 -0.4907 -1.4995 -0.9210
10665TIP3    H253411   5.789   5.705  16.501  2.4736  1.7631  0.3266
10666TIP3   OH253412   0.874   0.363  13.565  0.4688  0.9198 -0.0726
10666TIP3    H153413   0.879   0.312  13.646  1.7217  0.0734 -0.6433
10666TIP3    H253414   0.882   0.454  13.594 -1.3129  0.8034  0.9211
10667TIP3   OH253415   4.086   1.218  14.183  0.1350  0.6860 -0.3044
10667TIP3    H153416   4.049   1.303  14.159 -0.2593  0.4301 -0.6308
10667TIP3    H253417   4.011   1.159  14.182  0.4085  0.3337 -0.0854
10668TIP3   OH253418   5.758   1.068  15.540  0.6235  0.4084 -0.2175
10668TIP3    H153419   5.733   1.160  15.544 -1.3431 -0.0008 -1.6953
10668TIP3    H253420   5.836   1.062  15.595  0.9551  2.9860 -0.2985
10669TIP3   OH253421   6.005   2.215   3.778 -0.9738  0.2867  0.1777
10669TIP3    H153422   6.051   2.298   3.792  1.2877 -0.7634 -0.6179
10669TIP3    H253423   5.912   2.238   3.782 -0.4094  2.8330 -0.0041
10670TIP3   OH253424   1.269   3.551  15.372 -0.3186  0.5791 -0.0823
10670TIP3    H153425   1.301   3.513  15.454  0.5342  1.8158  0.1907
10670TIP3    H253426   1.340   3.537  15.310 -1.1124 -0.6922 -0.7565
10671TIP3   OH253427   5.984   4.015   3.701 -0.0371 -0.1016  0.0016
10671TIP3    H153428   5.965   4.061   3.619 -1.4909 -1.7399 -0.6221
10671TIP3    H253429   5.916   4.044   3.762  0.0773 -0.1311  0.1460
10672TIP3   OH253430   2.635   0.751   5.631  0.2102 -0.2185  0.3544
10672TIP3    H153431   2.666   0.663   5.610 -2.1118 -0.8806 -0.6184
10672TIP3    H253432   2.637   0.754   5.726 -1.4992 -2.0896  0.5138
10673TIP3   OH253433   5.098   3.174   5.384  0.2386  0.2738  0.1593
10673TIP3    H153434   5.098   3.228   5.464  2.4051  2.6523 -1.2877
10673TIP3    H253435   5.007   3.144   5.376 -0.4278  1.3286  2.5906
10674TIP3   OH253436   6.518   4.056   4.388 -0.6527  0.2792 -0.2343
10674TIP3    H153437   6.584   3.992   4.414 -0.2517  0.9023  0.3320
10674TIP3    H253438   6.560   4.106   4.317  0.0231  1.5242  0.9884
10675TIP3   OH253439   4.985   4.783   5.273  0.3678 -0.0198 -0.1580
10675TIP3    H153440   4.953   4.851   5.332  1.3446 -0.7532  1.2803
10675TIP3    H253441   4.909   4.729   5.254 -0.1960  0.8710 -0.4924
10676TIP3   OH253442   5.418   6.165   1.365  0.2119  0.0325 -0.5181
10676TIP3    H153443   5.498   6.140   1.412 -0.2488 -0.1513  0.1988
10676TIP3    H253444   5.401   6.255   1.392 -1.0894 -0.6748  1.2177
10677TIP3   OH253445   5.970   4.849   5.969  0.8972 -0.5689  0.2645
10677TIP3    H153446   5.946   4.852   6.062 -0.0656  3.3484  0.0502
10677TIP3    H253447   6.063   4.870   5.968  0.6146  0.7728  0.3347
10678TIP3   OH253448   1.103   5.912   5.050 -0.2990  0.4834  0.1952
10678TIP3    H153449   1.076   6.003   5.063 -1.8226  0.1728 -0.5490
10678TIP3    H253450   1.053   5.863   5.116  1.4117  0.2826  1.4044
10679TIP3   OH253451   1.308   1.956   0.309  0.0407  0.0461 -0.7402
10679TIP3    H153452   1.270   2.014   0.375 -2.5552 -0.6624 -1.5175
10679TIP3    H253453   1.368   1.900   0.358  0.2154  1.2822  0.5267
10680TIP3   OH253454   6.265   5.261   6.024 -0.4226  0.1625 -0.9739
10680TIP3    H153455   6.307   5.289   6.105 -1.5047  1.6962 -0.8960
10680TIP3    H253456   6.250   5.342   5.975 -3.5544 -0.1723 -0.8262
10681TIP3   OH253457   1.398   6.028  12.670  0.3332 -0.1787 -0.5542
10681TIP3    H153458   1.448   5.982  12.603 -0.9343 -1.0181 -0.9496
10681TIP3    H253459   1.307   6.015  12.645 -0.1205  0.5159  0.6761
10682TIP3   OH253460   1.762   2.163  16.162 -0.5423  0.5344  0.2892
10682TIP3    H153461   1.726   2.203  16.241  0.3893  0.5595  0.7193
10682TIP3    H253462   1.847   2.205  16.150 -0.5299  0.2967 -0.5494
10683TIP3   OH253463   2.433   3.970  12.428  0.2346 -0.0932  0.3761
10683TIP3    H153464   2.459   3.982  12.520 -0.8750  0.6886  0.6174
10683TIP3    H253465   2.352   3.919  12.433 -0.7530  1.3710 -0.0418
10684TIP3   OH253466   0.018   5.659  13.047 -0.3126 -0.1503 -0.2075
10684TIP3    H153467   0.051   5.714  13.118  0.5627  0.1244 -0.8167
10684TIP3    H253468   0.096   5.621  13.008 -0.7769 -0.2133 -1.0933
10685TIP3   OH253469   6.737   1.251  15.069  0.0311 -0.0074 -0.0480
10685TIP3    H153470   6.718   1.345  15.067  1.5315  0.3460 -3.0078
10685TIP3    H253471   6.801   1.240  15.139  0.1574  1.2660  0.0497
10686TIP3   OH253472   0.091   4.077   3.683 -0.1257  0.1175  0.0997
10686TIP3    H153473   0.089   4.051   3.775  2.1399  1.9944  0.7757
10686TIP3    H253474   0.028   4.148   3.676  1.3060  1.5050  0.7971
10687TIP3   OH253475   5.201   3.003  15.023 -0.2805  0.1147  0.5232
10687TIP3    H153476   5.197   3.053  14.941 -1.7122 -0.6864  0.0731
10687TIP3    H253477   5.200   3.070  15.092 -0.9061  0.7544 -0.0897
10688TIP3   OH253478   0.197   4.390   1.878 -0.5856  0.0184  0.0190
10688TIP3    H153479   0.236   4.319   1.928 -1.1542 -0.6971 -0.5320
10688TIP3    H253480   0.107   4.360   1.861 -0.9595  1.0431  0.1277
10689TIP3   OH253481   2.653   5.934   3.994  0.1864 -0.5634 -0.5563
10689TIP3    H153482   2.615   5.885   3.921  1.9893  0.0237 -1.9605
10689TIP3    H253483   2.734   5.888   4.016  0.4598  0.1607  0.0178
10690TIP3   OH253484   0.415   0.958   1.817  0.0278 -0.5026  0.0575
10690TIP3    H153485   0.423   0.877   1.766 -1.8057 -0.9565  0.4261
10690TIP3    H253486   0.476   0.946   1.890  1.6713 -0.4240 -1.2413
10691TIP3   OH253487   3.253   4.224  16.340 -0.3081 -0.2942  0.1626
10691TIP3    H153488   3.218   4.190  16.258 -1.9033 -1.3304  1.2155
10691TIP3    H253489   3.176   4.257  16.386  0.6377  0.7887  1.0291
10692TIP3   OH253490   0.956   3.599   1.373 -0.2161  0.6784 -0.6613
10692TIP3    H153491   1.007   3.610   1.453  0.2288 -0.2820 -0.7979
10692TIP3    H253492   0.989   3.666   1.313  0.6492  0.2902 -0.6293
10693TIP3   OH253493   0.773   0.191   2.745  0.0076  0.0405  0.3642
10693TIP3    H153494   0.795   0.243   2.668 -0.7053  0.4897  0.4488
10693TIP3    H253495   0.856   0.174   2.788  0.1396  2.6035  1.2914
10694TIP3   OH253496   6.676   0.448   3.728 -0.4799 -0.3088  0.1633
10694TIP3    H153497   6.748   0.511   3.729 -1.3470  0.7348 -0.8256
10694TIP3    H253498   6.658   0.432   3.636 -2.7866  1.0171  0.2864
10695TIP3   OH253499   0.224   1.618  14.569  0.8009  0.0007 -0.4540
10695TIP3    H153500   0.211   1.655  14.656  0.4365 -0.8019 -0.1536
10695TIP3    H253501   0.301   1.662  14.535  0.5070  0.8592 -0.0244
10696TIP3   OH253502   0.998   6.478   0.255 -0.2384 -0.1366 -0.0088
10696TIP3    H153503   1.089   6.459   0.230  0.0512  1.0230  0.1001
10696TIP3    H253504   1.006   6.521   0.340 -0.8440  0.5724 -0.3100
10697TIP3   OH253505   5.812   4.405  12.822  0.4709  0.2914  0.4409
10697TIP3    H153506   5.783   4.446  12.741  0.1128 -0.6381  0.0935
10697TIP3    H253507   5.733   4.395  12.875  0.7982  1.5406  1.2304
10698TIP3   OH253508   5.759   5.247   1.681  0.5059 -1.1004 -0.0827
10698TIP3    H153509   5.839   5.235   1.733  0.9367 -2.7556 -1.0610
10698TIP3    H253510   5.741   5.160   1.644 -0.3313 -0.2032 -1.9062
10699TIP3   OH253511   5.052   2.912  12.564 -0.2125  0.2245  0.2751
10699TIP3    H153512   5.140   2.948  12.581  0.1209  0.8518 -2.4106
10699TIP3    H253513   4.996   2.989  12.557 -0.7735 -0.1246  0.8666
10700TIP3   OH253514   4.528   0.889   6.005  0.0617 -0.6680 -0.4891
10700TIP3    H153515   4.495   0.971   6.043 -3.6289 -2.0245 -0.3783
10700TIP3    H253516   4.575   0.847   6.077 -1.3391 -0.3276  0.6784
10701TIP3   OH253517   5.906   0.758   3.053 -0.3474 -0.5548  0.0243
10701TIP3    H153518   5.854   0.835   3.031  0.6244 -0.0972 -0.7681
10701TIP3    H253519   5.852   0.710   3.116 -1.4992  0.1396 -0.3928
10702TIP3   OH253520   1.643   3.356  12.485 -0.5670 -0.9851  0.2206
10702TIP3    H153521   1.622   3.363  12.391 -0.0389  0.3080  0.1831
10702TIP3    H253522   1.591   3.281  12.515 -1.4428 -0.8656 -0.9082
10703TIP3   OH253523   1.109   6.537   3.677  0.1457 -0.1416  0.1401
10703TIP3    H153524   1.087   6.446   3.655 -1.9382 -0.0108  1.3397
10703TIP3    H253525   1.047   6.559   3.747  1.2905  1.8880  0.5722
10704TIP3   OH253526   2.123   4.944   3.383 -0.0925  0.1294 -0.0939
10704TIP3    H153527   2.042   4.930   3.433 -0.7787  3.8563  0.2034
10704TIP3    H253528   2.093   4.956   3.293  0.0459  1.6274  0.0330
10705TIP3   OH253529   4.181   5.792  15.317 -0.4575  0.0451 -0.0408
10705TIP3    H153530   4.246   5.833  15.373 -0.9424  1.5889 -0.5603
10705TIP3    H253531   4.106   5.778  15.374  0.0603 -1.0942  0.3861
10706TIP3   OH253532   0.316   5.733  12.569 -0.4626  0.2848  0.1494
10706TIP3    H153533   0.398   5.780  12.588  0.0346 -0.3935 -0.2699
10706TIP3    H253534   0.317   5.722  12.474 -0.5862 -0.5583  0.2421
10707TIP3   OH253535   3.323   4.275  15.976  0.2268  0.3845 -0.1417
10707TIP3    H153536   3.271   4.273  15.896 -0.2738  2.6854  0.0750
10707TIP3    H253537   3.269   4.321  16.040  1.6325  0.8809  0.7558
10708TIP3   OH253538   6.639   3.634   4.879 -0.0639 -0.2595 -0.1417
10708TIP3    H153539   6.597   3.704   4.830 -1.7785 -1.0773  0.0712
10708TIP3    H253540   6.569   3.598   4.934  1.5108 -0.0462  2.1784
10709TIP3   OH253541   0.158   6.660   5.996  0.2860 -0.0493  0.9607
10709TIP3    H153542   0.245   6.664   6.036  1.1308 -2.4172 -0.4180
10709TIP3    H253543   0.104   6.614   6.060  0.2909  0.5231  1.3873
10710TIP3   OH253544   2.653   1.909   2.757 -0.5726 -0.0686 -0.3837
10710TIP3    H153545   2.601   1.856   2.697  1.7213  0.3032 -2.8865
10710TIP3    H253546   2.735   1.926   2.710  0.5719  1.9803  2.0788
10711TIP3   OH253547   3.703   3.600   0.904  0.4543 -0.5020 -0.1139
10711TIP3    H153548   3.608   3.599   0.898  0.3397  0.3116  1.1862
10711TIP3    H253549   3.721   3.613   0.997  1.8163  1.0128 -0.5454
10712TIP3   OH253550   3.502   6.019  15.793  0.2745 -0.2150 -0.3097
10712TIP3    H153551   3.479   5.926  15.802 -1.8875  0.0597 -1.9834
10712TIP3    H253552   3.483   6.039  15.701  2.1230  1.5553 -0.3776
10713TIP3   OH253553   2.530   2.536  10.743  0.0995 -0.3663 -0.2115
10713TIP3    H153554   2.588   2.465  10.717  0.9474 -0.0213  0.7030
10713TIP3    H253555   2.442   2.499  10.734  0.5567 -1.9235  1.3230
10714TIP3   OH253556   2.191   3.513  12.348  0.4273 -0.0598 -0.6518
10714TIP3    H153557   2.208   3.591  12.295 -0.5986  0.2768 -0.4991
10714TIP3    H253558   2.099   3.493  12.334  0.5325 -0.9024 -0.2256
10715TIP3   OH253559   0.687   2.789   5.361  0.6627 -0.4058  0.1152
10715TIP3    H153560   0.705   2.777   5.455  0.7502 -0.3366  0.1079
10715TIP3    H253561   0.679   2.701   5.326  2.0883 -0.4733 -0.0939
10716TIP3   OH253562   1.120   1.355   3.709  0.6788  0.2392  0.0940
10716TIP3    H153563   1.196   1.385   3.758 -0.4000 -0.4292  2.2876
10716TIP3    H253564   1.099   1.270   3.747 -1.6749  0.7947  0.1454
10717TIP3   OH253565   6.073   6.186  12.737  0.1764  0.0049 -0.1561
10717TIP3    H153566   6.138   6.183  12.807  0.6036 -0.6644 -0.5672
10717TIP3    H253567   6.049   6.094  12.722  0.1280  0.1337 -0.9157
10718TIP3   OH253568   1.841   1.482   3.924  0.6951  0.8484 -0.4958
10718TIP3    H153569   1.767   1.518   3.972  0.5918 -1.0799  0.9228
10718TIP3    H253570   1.813   1.481   3.833 -2.6033 -3.0471  0.2885
10719TIP3   OH253571   2.562   1.310  11.570 -0.2873 -0.1608  0.1754
10719TIP3    H153572   2.608   1.316  11.486 -1.8832  0.5020 -0.7043
10719TIP3    H253573   2.618   1.356  11.632  0.2378  0.5993 -0.8422
10720TIP3   OH253574   1.624   0.407   2.097 -0.5626  0.3535  0.0687
10720TIP3    H153575   1.540   0.362   2.088 -0.5096  0.6347 -2.6380
10720TIP3    H253576   1.686   0.336   2.113 -0.9606 -0.1987 -0.7222
10721TIP3   OH253577   0.954   4.324  15.048 -0.3695 -0.3318 -0.1116
10721TIP3    H153578   1.038   4.280  15.041 -0.5466 -0.5911 -0.5978
10721TIP3    H253579   0.974   4.405  15.095  0.7457  1.1959 -2.9576
10722TIP3   OH253580   4.984   5.767  17.088 -0.1021 -0.6019  0.3404
10722TIP3    H153581   4.909   5.827  17.095 -0.0578 -0.6025  0.9354
10722TIP3    H253582   4.974   5.725  17.003  0.4240  0.9865 -0.5485
10723TIP3   OH253583   5.205   0.703  15.645 -0.1945 -0.1093  0.3698
10723TIP3    H153584   5.226   0.637  15.712 -0.7624  0.1957  0.8541
10723TIP3    H253585   5.146   0.658  15.585 -1.9369  0.4175  1.6122
10724TIP3   OH253586   2.234   5.278  12.675 -0.0711  0.1368  0.3362
10724TIP3    H153587   2.153   5.307  12.631  0.0066  1.3014  0.9373
10724TIP3    H253588   2.242   5.335  12.751  0.1316 -1.4488  1.5438
10725TIP3   OH253589   5.663   5.956   0.479  0.2477  0.0671 -0.5515
10725TIP3    H153590   5.641   5.882   0.423  1.7018  0.5988 -1.9016
10725TIP3    H253591   5.665   5.920   0.567  0.6046 -1.4279 -1.1521
10726TIP3   OH253592   3.554   5.566   0.723 -0.4637  0.2866  0.1784
10726TIP3    H153593   3.592   5.641   0.769 -0.5446 -0.7177  1.9910
10726TIP3    H253594   3.466   5.558   0.759 -0.6493 -0.3397 -0.4085
10727TIP3   OH253595   1.291   4.401   5.920 -0.0789  0.1307  0.2497
10727TIP3    H153596   1.293   4.441   6.007  0.0327  0.9468 -0.1153
10727TIP3    H253597   1.338   4.318   5.930 -0.4447  0.0154  1.0620
10728TIP3   OH253598   4.715   1.665   3.187 -0.4884 -0.1421  0.1370
10728TIP3    H153599   4.667   1.658   3.105  0.6627 -0.2469 -0.5481
10728TIP3    H253600   4.782   1.597   3.182  1.3193  1.5641 -0.0495
10729TIP3   OH253601   5.883   0.012   4.015  0.1030  0.0688 -0.0145
10729TIP3    H153602   5.966   0.058   4.003  1.0756 -1.5474  0.0952
10729TIP3    H253603   5.877  -0.002   4.109  0.1034 -0.4749 -0.0902
10730TIP3   OH253604   2.561   6.171   1.500  0.0150  0.3678  0.7417
10730TIP3    H153605   2.628   6.201   1.439 -0.0466 -1.5901 -0.3470
10730TIP3    H253606   2.494   6.240   1.497  0.5270  0.8372 -0.5609
10731TIP3   OH253607   6.250   1.605   3.068 -0.7585 -0.1721 -0.1019
10731TIP3    H153608   6.206   1.679   3.111  0.9028 -0.1356  1.6942
10731TIP3    H253609   6.206   1.528   3.103  0.1511 -0.1182  1.2295
10732TIP3   OH253610   5.878   2.190  14.493 -0.4466  0.0418 -0.4952
10732TIP3    H153611   5.840   2.104  14.479 -1.8135  0.3048  1.3402
10732TIP3    H253612   5.972   2.174  14.504 -0.6718 -1.1933 -0.2851
10733TIP3   OH253613   4.164   4.264  16.993  0.4221  0.4425  0.7572
10733TIP3    H153614   4.134   4.337  16.938  0.0636  0.5604  1.1122
10733TIP3    H253615   4.255   4.287  17.014  0.6557  0.2574 -0.0207
10734TIP3   OH253616   1.246   5.522  11.283 -0.8952  0.0750 -0.0451
10734TIP3    H153617   1.303   5.537  11.358  0.5434  2.2175 -1.4170
10734TIP3    H253618   1.274   5.438  11.247 -0.8003 -0.4015  1.1261
10735TIP3   OH253619   2.902   5.316   2.400 -0.7201 -0.0922 -0.1867
10735TIP3    H153620   2.871   5.300   2.489 -1.1813 -0.2458 -0.3731
10735TIP3    H253621   2.995   5.290   2.403 -0.1787  1.8000  0.7549
10736TIP3   OH253622   6.053   6.695   2.671 -0.3713 -0.1930 -0.2941
10736TIP3    H153623   6.073   6.772   2.726 -3.5777 -0.5634  1.6444
10736TIP3    H253624   6.019   6.731   2.590  0.4222  0.3833 -0.3868
10737TIP3   OH253625   0.948   0.951  13.815 -0.1109 -0.2662  0.0994
10737TIP3    H153626   0.895   0.963  13.893  0.4863 -0.5275  0.5573
10737TIP3    H253627   0.920   1.021  13.756  0.1058  0.5403  0.9272
10738TIP3   OH253628   5.461   0.565   4.839 -0.1649 -0.3848  0.3960
10738TIP3    H153629   5.439   0.629   4.906 -2.4067  0.5484 -1.0833
10738TIP3    H253630   5.398   0.582   4.768  2.3152 -1.0111 -2.1342
10739TIP3   OH253631   2.625   4.859   2.692 -0.8221 -0.4154  0.0448
10739TIP3    H153632   2.655   4.839   2.781  0.4867 -1.4348 -0.5829
10739TIP3    H253633   2.544   4.809   2.681  1.1680 -3.8023 -0.6934
10740TIP3   OH253634   4.834   1.620  12.201 -0.2450  0.0981  0.0045
10740TIP3    H153635   4.928   1.635  12.189 -0.1727  0.8483  1.3506
10740TIP3    H253636   4.829   1.535  12.246 -0.2427 -0.1519 -0.4615
10741TIP3   OH253637   0.765   1.853   0.987  0.0753 -0.1166 -0.1839
10741TIP3    H153638   0.751   1.884   0.897 -3.0334  0.7074  0.4659
10741TIP3    H253639   0.788   1.761   0.977 -1.8162 -0.4955 -1.8710
10742TIP3   OH253640   3.957   4.023  11.922 -0.3546 -0.2413 -0.1414
10742TIP3    H153641   3.947   4.089  11.991 -0.3786 -0.9145  0.5147
10742TIP3    H253642   4.048   4.031  11.893 -1.0131  1.8572 -1.9390
10743TIP3   OH253643   2.502   2.166  11.414  0.2013  0.1478  0.1956
10743TIP3    H153644   2.541   2.181  11.328 -2.2769 -0.4020 -1.1121
10743TIP3    H253645   2.481   2.073  11.416 -1.1855  0.4448  0.7444
10744TIP3   OH253646   6.497   1.719  11.246 -0.1117 -0.0443 -0.0743
10744TIP3    H153647   6.481   1.786  11.313  0.0503  0.9893 -1.0516
10744TIP3    H253648   6.557   1.761  11.184 -1.5091 -0.3920 -1.7381
10745TIP3   OH253649   1.679   6.063  13.847  0.4910 -0.0405 -0.2533
10745TIP3    H153650   1.658   6.084  13.756  1.6101 -0.5402 -0.6519
10745TIP3    H253651   1.641   6.134  13.897  0.4754  0.6306 -1.1844
10746TIP3   OH253652   4.506   5.949  14.809 -0.0344  0.1645  0.5384
10746TIP3    H153653   4.506   5.855  14.824 -0.0535 -0.3244 -2.0615
10746TIP3    H253654   4.420   5.968  14.771  0.6411  0.8534 -0.7397
10747TIP3   OH253655   0.588   4.843  13.079 -0.1643 -0.2646  1.1851
10747TIP3    H153656   0.502   4.803  13.071  0.3867 -1.1312 -2.9018
10747TIP3    H253657   0.644   4.774  13.114 -0.1252 -1.7393 -1.5296
10748TIP3   OH253658   6.549   2.200  14.507  0.8440  0.2493 -0.2275
10748TIP3    H153659   6.574   2.292  14.511  2.5671 -0.1490 -0.8869
10748TIP3    H253660   6.475   2.198  14.445 -1.1309  1.4853  1.9129
10749TIP3   OH253661   1.483   3.139  12.931 -0.3489  0.1823 -0.2433
10749TIP3    H153662   1.519   3.092  13.007  0.0669  1.8227  0.6155
10749TIP3    H253663   1.410   3.190  12.967 -0.5435  0.4932 -1.0729
10750TIP3   OH253664   5.509   5.628   0.474  0.1543  0.0670  0.4750
10750TIP3    H153665   5.545   5.547   0.509 -1.2850 -0.6512  0.3936
10750TIP3    H253666   5.462   5.668   0.548 -1.0772 -0.3633 -0.0467
10751TIP3   OH253667   3.504   0.250  11.623 -0.0196  0.1977 -0.0116
10751TIP3    H153668   3.481   0.261  11.531 -3.8377 -0.5074  0.6569
10751TIP3    H253669   3.495   0.156  11.638  0.1247  0.3583  1.1583
10752TIP3   OH253670   5.747   2.688  11.640  0.0493 -0.3560 -0.5672
10752TIP3    H153671   5.664   2.661  11.679 -1.0098  1.0621 -1.6841
10752TIP3    H253672   5.732   2.780  11.615  2.1548  0.0942 -0.2979
10753TIP3   OH253673   0.303   2.149   1.461  0.3771  0.5343 -0.5496
10753TIP3    H153674   0.300   2.055   1.443  1.4015  0.0557  1.5177
10753TIP3    H253675   0.383   2.178   1.417 -0.1437  0.5485 -1.5215
10754TIP3   OH253676   1.834   5.110   6.215  0.0340  0.4254  0.4315
10754TIP3    H153677   1.746   5.081   6.239  0.2255  0.4975  1.2229
10754TIP3    H253678   1.859   5.173   6.283  0.0903  1.5953 -0.6327
10755TIP3   OH253679   6.295   5.188  11.073 -0.5550 -0.1824  0.1247
10755TIP3    H153680   6.370   5.145  11.032 -0.0913  0.9403 -0.2584
10755TIP3    H253681   6.314   5.282  11.064 -1.9230  0.1149  0.1840
10756TIP3   OH253682   5.867   4.014  13.333 -0.0784 -0.8042 -0.0229
10756TIP3    H153683   5.908   3.955  13.396  0.8078 -1.0662 -0.8168
10756TIP3    H253684   5.803   3.960  13.287 -1.4585 -0.3633  1.3057
10757TIP3   OH253685   5.931   1.991   4.393 -0.4021  0.2869 -0.6679
10757TIP3    H153686   5.987   2.024   4.323 -0.9672  1.9847 -0.3500
10757TIP3    H253687   5.985   1.998   4.472 -0.2302 -0.3650 -0.7239
10758TIP3   OH253688   1.952   0.903  10.437 -0.0898 -0.2481 -0.1158
10758TIP3    H153689   2.033   0.943  10.468  0.5374 -0.8959 -0.8490
10758TIP3    H253690   1.936   0.831  10.498 -0.0913 -0.1272  0.0232
10759TIP3   OH253691   5.908   0.627  13.064 -0.3681  0.6839  0.3015
10759TIP3    H153692   5.949   0.577  13.135  0.8559 -1.3389 -1.7223
10759TIP3    H253693   5.968   0.700  13.048 -0.7017  1.2155  1.3418
10760TIP3   OH253694   5.974   5.370  14.150 -0.1364 -0.0927  0.0572
10760TIP3    H153695   6.007   5.281  14.137  0.1008 -0.1570  1.0368
10760TIP3    H253696   5.884   5.357  14.180 -0.7291  0.0594 -1.5150
10761TIP3   OH253697   4.157   2.291   3.532 -0.0383  0.3663  0.1679
10761TIP3    H153698   4.123   2.300   3.621 -1.7037  0.0702 -0.3972
10761TIP3    H253699   4.207   2.209   3.534  0.5422  0.7222  0.9811
10762TIP3   OH253700   4.925   1.935  14.189 -0.0370  0.6664 -0.0409
10762TIP3    H153701   4.965   1.988  14.258 -0.4654 -0.9689  1.5388
10762TIP3    H253702   4.911   1.850  14.230 -1.4151 -0.0036 -1.8113
10763TIP3   OH253703   2.916   1.625   3.431  0.3976  0.4289 -0.1442
10763TIP3    H153704   2.917   1.551   3.493 -0.8805  0.5555  0.0390
10763TIP3    H253705   2.935   1.585   3.346 -0.1787 -0.1082 -0.0301
10764TIP3   OH253706   1.249   0.078   1.785  0.0564  0.2609  0.0560
10764TIP3    H153707   1.158   0.049   1.782  0.2983 -0.4313 -1.1531
10764TIP3    H253708   1.299   0.002   1.756  1.0064  0.7247  0.4400
10765TIP3   OH253709   2.407   1.022  13.467  0.2145 -0.1616 -0.0489
10765TIP3    H153710   2.409   1.041  13.373 -1.4840  1.0361  0.1156
10765TIP3    H253711   2.387   0.928  13.471  0.5320 -0.2793 -0.8655
10766TIP3   OH253712   6.404   0.555   3.649 -0.3269  0.0085 -0.2450
10766TIP3    H153713   6.452   0.634   3.672  0.6381 -0.2599 -1.2609
10766TIP3    H253714   6.363   0.576   3.564  0.4338 -0.7647 -0.8200
10767TIP3   OH253715   0.399   4.511  16.610 -0.1169 -0.3484 -0.3762
10767TIP3    H153716   0.492   4.524  16.593  0.0038 -1.5751 -0.7228
10767TIP3    H253717   0.357   4.530  16.526 -0.0924 -0.6681 -0.4616
10768TIP3   OH253718   6.258   4.270  14.449 -0.3672  0.4040 -0.0845
10768TIP3    H153719   6.262   4.220  14.531  1.3193  0.4769 -0.0894
10768TIP3    H253720   6.165   4.290  14.438 -0.8810 -1.2423  0.8103
10769TIP3   OH253721   3.501   4.531  11.803  0.0530 -0.4048  0.5943
10769TIP3    H153722   3.491   4.458  11.864 -1.1149  0.9067  2.0430
10769TIP3    H253723   3.515   4.489  11.718  0.5522 -2.2949  1.5477
10770TIP3   OH253724   6.572   4.506   4.910 -0.3313 -0.3272  0.5292
10770TIP3    H153725   6.640   4.455   4.866  1.6871  1.7664  1.0493
10770TIP3    H253726   6.507   4.441   4.937  0.3631 -2.1494 -1.8746
10771TIP3   OH253727   3.901   3.095   1.814  0.5639 -0.0102  0.2750
10771TIP3    H153728   3.982   3.106   1.765  0.2886  0.5241 -0.0758
10771TIP3    H253729   3.849   3.033   1.762 -0.8815  2.6056 -1.6748
10772TIP3   OH253730   2.254   2.074   1.796 -0.1953 -0.0555 -0.4334
10772TIP3    H153731   2.327   2.136   1.804  1.0413 -1.5817  0.4830
10772TIP3    H253732   2.294   1.988   1.803 -2.2091 -0.9463  1.2229
10773TIP3   OH253733   1.211   2.889  15.933  0.0037  0.1001  0.0003
10773TIP3    H153734   1.265   2.841  15.996  0.8611 -0.5606 -1.2143
10773TIP3    H253735   1.122   2.857  15.947  0.3310 -0.7069  0.2516
10774TIP3   OH253736   6.475   1.643   2.235 -0.6665  0.0072 -0.0321
10774TIP3    H153737   6.489   1.550   2.219  0.3028 -0.4047  2.7591
10774TIP3    H253738   6.429   1.647   2.318 -0.7243  2.0230 -0.1103
10775TIP3   OH253739   2.099   2.522  15.849  0.0111  0.1129 -0.1747
10775TIP3    H153740   2.188   2.557  15.851 -0.2293  0.9226 -1.8018
10775TIP3    H253741   2.110   2.428  15.862  0.8998  0.4416  1.7356
10776TIP3   OH253742   4.746   6.059  12.886 -0.4072 -0.2556  0.2076
10776TIP3    H153743   4.826   6.016  12.918 -0.2572  0.0889  0.2960
10776TIP3    H253744   4.748   6.045  12.791 -0.6661 -0.9625  0.2981
10777TIP3   OH253745   2.061   6.434   5.391  0.1607 -0.6317  0.0641
10777TIP3    H153746   1.983   6.381   5.380  1.5249 -2.4445 -1.6932
10777TIP3    H253747   2.029   6.525   5.387 -1.8729 -1.3093 -0.1272
10778TIP3   OH253748   2.480   6.422  10.422 -0.1160  0.0569  0.1587
10778TIP3    H153749   2.552   6.359  10.430 -1.1705 -1.0290  1.5188
10778TIP3    H253750   2.404   6.368  10.402 -0.6455  1.1696 -0.9960
10779TIP3   OH253751   6.485   3.214   0.992  0.4200 -0.4104 -0.2162
10779TIP3    H153752   6.539   3.243   0.920 -0.8754  1.5995 -0.4557
10779TIP3    H253753   6.437   3.138   0.958 -1.4028  1.4693 -2.1299
10780TIP3   OH253754   2.124   0.017  12.769  0.7942  0.0327 -0.0622
10780TIP3    H153755   2.147   0.039  12.859 -0.8757  0.1302  0.3733
10780TIP3    H253756   2.198   0.049  12.717 -0.2225  4.4901  0.7732
10781TIP3   OH253757   4.781   3.308  11.533  0.4148  0.0256 -0.2431
10781TIP3    H153758   4.715   3.277  11.595  1.4955  0.4727  1.1841
10781TIP3    H253759   4.804   3.230  11.482  0.3709 -0.6462  0.7310
10782TIP3   OH253760   1.321   1.387  15.886  0.1204  0.0987  0.2098
10782TIP3    H153761   1.251   1.411  15.824  0.7872  0.3469 -0.4587
10782TIP3    H253762   1.380   1.462  15.886 -0.1512  0.3436  1.5935
10783TIP3   OH253763   5.783   4.696   5.666  0.3061  0.0539 -0.1096
10783TIP3    H153764   5.860   4.721   5.616 -0.5402  3.2392 -0.0336
10783TIP3    H253765   5.714   4.753   5.634 -1.6426 -1.5917  0.9491
10784TIP3   OH253766   1.245   1.179   4.425 -0.5384 -0.1674 -0.5246
10784TIP3    H153767   1.252   1.257   4.481 -2.2599  0.2945 -0.8937
10784TIP3    H253768   1.264   1.106   4.483 -0.0629  0.4458  0.1127
10785TIP3   OH253769   1.910   3.956   9.906 -0.0125  0.6967 -0.1809
10785TIP3    H153770   1.908   3.922   9.995  0.9104  1.5221  0.1713
10785TIP3    H253771   1.866   4.041   9.912 -1.3559  0.0796 -0.8422
10786TIP3   OH253772   3.026   5.645  12.153  0.1814  0.5179 -0.4954
10786TIP3    H153773   2.982   5.665  12.236 -0.4107 -0.2148 -0.6245
10786TIP3    H253774   3.082   5.570  12.173 -1.9195 -1.4013 -1.3149
10787TIP3   OH253775   4.483   0.580  14.294 -0.0562 -0.3392 -0.1569
10787TIP3    H153776   4.575   0.605  14.302  0.1283 -0.9618 -0.2990
10787TIP3    H253777   4.439   0.659  14.264  0.7799 -0.6305 -2.2814
10788TIP3   OH253778   0.683   4.803   0.062 -0.1522  0.2442  0.3127
10788TIP3    H153779   0.608   4.754   0.029  1.4722 -0.8431 -2.0214
10788TIP3    H253780   0.679   4.793   0.158 -2.5287 -0.3540  0.2023
10789TIP3   OH253781   4.630   3.945   1.388  0.2648 -0.0370 -0.5489
10789TIP3    H153782   4.564   3.913   1.450 -1.6281  3.3566 -0.5678
10789TIP3    H253783   4.585   3.948   1.304  1.3562 -0.2597 -1.1664
10790TIP3   OH253784   6.667   4.818  12.137 -0.5488 -0.4525  0.2210
10790TIP3    H153785   6.687   4.910  12.153  0.7990 -0.3785 -1.7043
10790TIP3    H253786   6.583   4.819  12.091 -0.0166 -0.0985 -0.7600
10791TIP3   OH253787   5.689   2.941   0.027 -0.1641  0.4744  0.0228
10791TIP3    H153788   5.779   2.941   0.061 -0.7335  1.9936  1.7309
10791TIP3    H253789   5.646   2.869   0.072 -1.0168  2.7102  3.0985
10792TIP3   OH253790   0.129   5.416   2.119  0.5997  0.2275 -0.6366
10792TIP3    H153791   0.093   5.403   2.207 -0.9956 -1.6013 -1.4671
10792TIP3    H253792   0.217   5.378   2.123  0.9015  0.9926  0.3843
10793TIP3   OH253793   1.143   5.922  12.595  0.0732  0.0424 -0.6665
10793TIP3    H153794   1.113   5.964  12.676 -0.9911  0.3440 -1.2009
10793TIP3    H253795   1.145   5.829  12.617 -1.3558  0.0019 -0.6206
10794TIP3   OH253796   5.308   5.413  10.661  0.6440  0.2276 -0.0827
10794TIP3    H153797   5.370   5.445  10.726  1.2226 -0.6557 -0.1739
10794TIP3    H253798   5.261   5.491  10.632 -0.5912  0.4747  2.3668
10795TIP3   OH253799   5.180   5.866  11.749  0.4256  0.7444  0.2907
10795TIP3    H153800   5.101   5.813  11.743  0.7097  0.3948 -0.4312
10795TIP3    H253801   5.250   5.810  11.714  0.5882  1.8874 -1.3331
10796TIP3   OH253802   6.238   6.520  12.864 -0.1137 -0.3859  0.1037
10796TIP3    H153803   6.281   6.602  12.842  0.4046 -0.8081 -0.4862
10796TIP3    H253804   6.241   6.468  12.784 -0.5250 -0.9447  0.4374
10797TIP3   OH253805   3.204   1.759   1.836 -0.1137 -0.2399 -0.0712
10797TIP3    H153806   3.130   1.703   1.811 -1.2588  0.8599  0.7049
10797TIP3    H253807   3.267   1.748   1.765  0.8066 -4.3164  1.1190
10798TIP3   OH253808   1.660   2.825  16.300 -0.3777 -0.4561  0.4205
10798TIP3    H153809   1.669   2.743  16.252  0.9173 -0.7096  1.0616
10798TIP3    H253810   1.624   2.887  16.236 -1.9947 -1.6624  0.1035
10799TIP3   OH253811   5.881   6.127  15.914  0.3888 -0.6152 -0.0739
10799TIP3    H153812   5.936   6.205  15.921 -1.2915  0.9539 -2.5758
10799TIP3    H253813   5.917   6.080  15.839 -0.0949 -0.9611 -0.0878
10800TIP3   OH253814   5.644   3.477  15.340 -0.0243  0.9119 -0.2714
10800TIP3    H153815   5.671   3.386  15.353  1.7214  1.2972 -0.8893
10800TIP3    H253816   5.696   3.527  15.403 -0.7309  1.5136 -0.1572
10801TIP3   OH253817   5.672   3.265   0.934  0.2633 -0.3523  0.3637
10801TIP3    H153818   5.659   3.344   0.881  0.4720 -0.1791  0.5691
10801TIP3    H253819   5.694   3.197   0.871  1.2695  0.0213  0.2979
10802TIP3   OH253820   4.723   6.285  15.679  0.3840 -0.2334 -0.0169
10802TIP3    H153821   4.783   6.288  15.753  0.7717 -5.0526  0.2390
10802TIP3    H253822   4.758   6.349  15.617  2.3510  1.1941  2.3600
10803TIP3   OH253823   6.512   2.117  13.196 -0.1290  0.2006 -0.0382
10803TIP3    H153824   6.480   2.048  13.254 -0.6891 -0.0369 -0.6145
10803TIP3    H253825   6.471   2.197  13.230  0.7582  0.3076  0.8102
10804TIP3   OH253826   2.871   1.210   5.880  0.1123 -0.3085 -0.2800
10804TIP3    H153827   2.916   1.126   5.892 -2.1283 -1.3239  1.9450
10804TIP3    H253828   2.906   1.266   5.949  0.0436 -0.1369 -0.3828
10805TIP3   OH253829   6.577   4.731   5.958  0.0501 -0.5922 -0.2996
10805TIP3    H153830   6.651   4.731   6.019  0.1491 -0.6602 -0.4205
10805TIP3    H253831   6.617   4.743   5.872 -0.0693 -0.7660 -0.3783
10806TIP3   OH253832   1.878   0.554  12.374 -0.3323  0.6750  0.4517
10806TIP3    H153833   1.922   0.563  12.458  0.7017 -0.4442  0.0490
10806TIP3    H253834   1.916   0.623  12.319  0.5318  0.0768  0.2793
10807TIP3   OH253835   0.595   0.747  16.941 -0.5802 -0.6269 -0.2299
10807TIP3    H153836   0.543   0.690  16.998 -3.2313 -0.6781 -2.4680
10807TIP3    H253837   0.659   0.688  16.900 -1.6205 -1.5252 -0.6218
10808TIP3   OH253838   3.705   4.960  15.101 -0.0291  0.3086  0.3760
10808TIP3    H153839   3.690   4.874  15.142 -0.5848  0.0104 -0.4197
10808TIP3    H253840   3.785   4.949  15.051 -0.8662 -0.2292 -0.9162
10809TIP3   OH253841   1.000   0.275   0.691  0.3120  0.2991  0.0397
10809TIP3    H153842   1.080   0.325   0.702  0.4424  0.0892  0.0552
10809TIP3    H253843   0.974   0.252   0.780  0.5122 -0.0642  0.0064
10810TIP3   OH253844   3.250   6.334  13.198  0.0684 -0.3958 -0.0379
10810TIP3    H153845   3.240   6.425  13.170  0.6065  0.3250  1.9757
10810TIP3    H253846   3.288   6.290  13.122 -1.7234  0.6386 -1.6498
10811TIP3   OH253847   3.675   2.375  15.732 -0.4480  0.1590  0.0999
10811TIP3    H153848   3.676   2.299  15.673 -1.8936 -0.0479  0.3085
10811TIP3    H253849   3.768   2.395  15.746 -0.0157  0.7011 -2.8381
10812TIP3   OH253850   1.992   0.445   1.718 -0.2324  0.3084 -0.0461
10812TIP3    H153851   2.052   0.450   1.644 -0.8413 -0.5164 -0.6043
10812TIP3    H253852   1.969   0.353   1.726  0.1989  0.2912  1.4942
10813TIP3   OH253853   0.148   6.399  16.577  0.5985 -0.1464  0.2423
10813TIP3    H153854   0.159   6.446  16.494 -0.7335  2.0567  1.2088
10813TIP3    H253855   0.149   6.307  16.552 -0.3677  0.4304 -2.3449
10814TIP3   OH253856   0.299   4.380  16.060  0.3357  0.1396 -0.0444
10814TIP3    H153857   0.217   4.358  16.105 -1.9693  2.9606 -2.5265
10814TIP3    H253858   0.326   4.463  16.098  0.9647  0.1960 -0.5967
10815TIP3   OH253859   4.269   1.072   4.110  0.3097  0.3382  0.0733
10815TIP3    H153860   4.334   1.143   4.107  0.6597  0.1313  1.7484
10815TIP3    H253861   4.319   0.994   4.088  0.8261  0.0919  1.9178
10816TIP3   OH253862   4.887   2.704   2.275  0.5678 -0.3600  0.9431
10816TIP3    H153863   4.969   2.727   2.231 -0.9274  1.7424 -0.9554
10816TIP3    H253864   4.827   2.681   2.204 -1.5231  1.6660  1.9259
10817TIP3   OH253865   0.045   2.354   3.916  0.5153 -0.7555 -0.4674
10817TIP3    H153866  -0.047   2.330   3.921  0.1361  0.4488 -1.2852
10817TIP3    H253867   0.078   2.312   3.837  0.7762 -1.4618  0.0012
10818TIP3   OH253868   2.928   5.305  15.853 -0.1684  0.0234  0.0662
10818TIP3    H153869   2.872   5.326  15.929 -2.5441 -0.3665 -1.4743
10818TIP3    H253870   2.961   5.390  15.825 -1.4050  0.5026 -0.0038
10819TIP3   OH253871   4.022   4.194   1.480  0.5367 -0.6676  0.2194
10819TIP3    H153872   4.082   4.236   1.542  1.3303 -0.9553 -0.3481
10819TIP3    H253873   3.935   4.207   1.519  0.9262  0.0664  0.8672
10820TIP3   OH253874   3.030   0.918   2.630 -0.4527 -0.2377  0.4747
10820TIP3    H153875   2.953   0.965   2.597  0.0531  1.4170  1.5152
10820TIP3    H253876   3.046   0.955   2.717  2.2859  0.4564 -0.2105
10821TIP3   OH253877   6.771   4.569  16.571 -0.0379 -0.0968  0.0268
10821TIP3    H153878   6.860   4.593  16.548 -0.3069 -0.5133 -1.5270
10821TIP3    H253879   6.770   4.473  16.567 -1.0376 -0.0431 -2.0044
10822TIP3   OH253880   6.655   6.042   0.774 -0.5623 -0.9649  0.6989
10822TIP3    H153881   6.710   6.032   0.851  0.5866 -0.7375 -0.0608
10822TIP3    H253882   6.585   6.100   0.802 -0.1400 -0.8642  1.5670
10823TIP3   OH253883   4.883   1.702   1.851 -0.2008 -0.1547  0.2688
10823TIP3    H153884   4.807   1.677   1.799 -0.4244  0.0404  0.4951
10823TIP3    H253885   4.959   1.679   1.797 -0.4287  0.4201 -0.3138
10824TIP3   OH253886   3.696   4.815  11.366 -0.0631 -0.0731  0.2656
10824TIP3    H153887   3.735   4.833  11.451 -0.9388 -1.9747  1.1270
10824TIP3    H253888   3.702   4.898  11.319  0.4151  1.0311  2.1702
10825TIP3   OH253889   3.554   1.548   2.331 -0.4521 -0.2417  0.5507
10825TIP3    H153890   3.459   1.563   2.338 -0.6205  1.1669 -2.9041
10825TIP3    H253891   3.567   1.521   2.240  2.6995  1.7367  0.2823
10826TIP3   OH253892   3.798   0.172  13.942 -0.1832  0.0284  0.3152
10826TIP3    H153893   3.843   0.088  13.930  0.9242  0.8519 -1.7672
10826TIP3    H253894   3.781   0.177  14.036 -1.0599 -2.8980  0.4071
10827TIP3   OH253895   5.474   3.421  14.478 -0.0222  0.5528 -0.4273
10827TIP3    H153896   5.542   3.383  14.422 -0.1761  0.2023 -0.3771
10827TIP3    H253897   5.503   3.512  14.493  0.2514  0.5101 -0.6974
10828TIP3   OH253898   5.553   2.668   3.693  0.3795  0.3676  0.5262
10828TIP3    H153899   5.543   2.690   3.600 -2.2391 -0.5293  0.4971
10828TIP3    H253900   5.616   2.597   3.694  0.0534  0.0383 -0.6564
10829TIP3   OH253901   2.851   2.802  14.592 -0.1368 -0.1672  0.1613
10829TIP3    H153902   2.870   2.845  14.508  1.2767 -1.5772 -0.2918
10829TIP3    H253903   2.767   2.758  14.578  1.0519 -2.1671 -1.3289
10830TIP3   OH253904   3.845   2.110  11.306 -0.4917 -0.2041 -0.4736
10830TIP3    H153905   3.891   2.027  11.321  1.3371  1.0036  1.1838
10830TIP3    H253906   3.833   2.115  11.212  2.2035 -0.9820 -0.9472
10831TIP3   OH253907   3.659   4.168  11.889 -0.2490 -0.2785 -0.1285
10831TIP3    H153908   3.679   4.075  11.887  0.9638 -0.0397 -0.0194
10831TIP3    H253909   3.706   4.205  11.815  1.5051  0.6288  1.3492
10832TIP3   OH253910   6.570   3.522  16.128  0.4047  0.2345  0.2466
10832TIP3    H153911   6.596   3.449  16.184  0.4880 -0.2044 -0.3547
10832TIP3    H253912   6.642   3.530  16.064 -0.0670  0.1889 -0.3024
10833TIP3   OH253913   1.635   4.335   2.798 -0.0667  0.3313  0.6718
10833TIP3    H153914   1.576   4.271   2.838 -2.2960  1.1282 -1.1456
10833TIP3    H253915   1.623   4.415   2.849 -1.4734  0.8033 -0.3309
10834TIP3   OH253916   6.377   3.613  14.163 -0.6186  0.1061  0.0338
10834TIP3    H153917   6.283   3.598  14.149 -0.5587 -1.0438  0.7708
10834TIP3    H253918   6.419   3.575  14.086 -0.6119 -1.7791  0.9112
10835TIP3   OH253919   2.635   2.398   3.348  0.2001  0.7675 -0.0317
10835TIP3    H153920   2.558   2.441   3.311 -1.2058 -2.5240 -1.2400
10835TIP3    H253921   2.611   2.377   3.438 -1.1453 -1.8702 -0.9300
10836TIP3   OH253922   4.612   0.140  14.852 -0.6497  0.3040  0.6540
10836TIP3    H153923   4.551   0.180  14.790  0.7933  1.2865 -0.1908
10836TIP3    H253924   4.577   0.053  14.868 -2.6739  1.1018  0.7851
10837TIP3   OH253925   3.155   2.388  13.470 -0.3984 -0.1783 -0.6698
10837TIP3    H153926   3.215   2.351  13.406 -0.2844 -0.8455 -0.1831
10837TIP3    H253927   3.211   2.433  13.533 -0.2876 -1.8051  0.4458
10838TIP3   OH253928   0.593   5.101   3.910 -0.0618 -0.1963 -0.0518
10838TIP3    H153929   0.643   5.182   3.922 -1.1569  0.6888 -1.2077
10838TIP3    H253930   0.533   5.099   3.985  0.5798 -0.4459  0.4760
10839TIP3   OH253931   1.555   3.105  16.989 -0.3894  0.2656 -0.5450
10839TIP3    H153932   1.492   3.172  16.961  0.2420  0.4442 -1.6195
10839TIP3    H253933   1.615   3.097  16.915  0.1212 -0.7969 -0.0404
10840TIP3   OH253934   5.710   4.472   0.050  0.8357 -0.5661  0.1747
10840TIP3    H153935   5.683   4.482   0.142 -1.1878 -0.4264 -0.3735
10840TIP3    H253936   5.627   4.459   0.003  1.6688  1.0313 -1.8538
10841TIP3   OH253937   1.836   4.495   2.736 -0.0589 -0.7691  0.8116
10841TIP3    H153938   1.834   4.589   2.718 -1.1697 -1.1936 -1.8671
10841TIP3    H253939   1.744   4.470   2.744  0.0540 -1.9166 -0.8242
10842TIP3   OH253940   0.067   3.373   3.582  0.2020  0.3669 -0.5041
10842TIP3    H153941   0.046   3.363   3.675  0.9832 -0.1972 -0.3831
10842TIP3    H253942   0.150   3.419   3.581 -1.1075  2.8881 -0.9891
10843TIP3   OH253943   3.294   5.012   0.082  0.1885 -0.4476 -0.1770
10843TIP3    H153944   3.381   5.026   0.043  1.4426  1.1785  2.8430
10843TIP3    H253945   3.303   4.928   0.128 -0.8817 -1.7408 -2.1931
10844TIP3   OH253946   2.773   5.287   4.402 -0.2537 -0.3700  0.2963
10844TIP3    H153947   2.754   5.380   4.414 -1.5461 -0.1962 -2.3606
10844TIP3    H253948   2.692   5.243   4.428  0.3410 -0.8067  1.5089
10845TIP3   OH253949   2.064   2.333   3.330 -0.3529 -0.1146  0.3508
10845TIP3    H153950   2.016   2.320   3.248  0.4023 -0.7366 -0.0122
10845TIP3    H253951   2.019   2.404   3.374 -1.9697 -1.0751  0.3097
10846TIP3   OH253952   5.114   0.935  15.764 -0.2249  0.0283  0.2103
10846TIP3    H153953   5.100   0.847  15.728 -1.2510  1.1248 -2.2669
10846TIP3    H253954   5.144   0.987  15.690 -0.7719  2.0687  1.3550
10847TIP3   OH253955   3.419   1.697   1.045 -0.2872 -0.3174  0.3032
10847TIP3    H153956   3.393   1.632   1.110 -2.0726  0.0178 -0.0228
10847TIP3    H253957   3.350   1.764   1.050  1.1851  1.2721  0.2248
10848TIP3   OH253958   3.267   4.757  11.060 -0.1182 -0.5793 -0.2746
10848TIP3    H153959   3.239   4.752  11.152  0.2838  0.0397 -0.1174
10848TIP3    H253960   3.209   4.695  11.015 -2.7013  1.5957 -0.1989
10849TIP3   OH253961   3.339   4.838   0.932  0.0783 -0.6618  0.4327
10849TIP3    H153962   3.433   4.852   0.921 -0.0197 -0.2198  0.1229
10849TIP3    H253963   3.302   4.926   0.936 -0.3551 -0.8319  0.2578
10850TIP3   OH253964   2.685   5.844  12.052 -0.2208 -0.2576  0.1340
10850TIP3    H153965   2.735   5.915  12.092 -0.4234  0.4077 -0.7717
10850TIP3    H253966   2.626   5.814  12.122  1.4674 -1.1280  1.2473
10851TIP3   OH253967   6.228   2.129   4.779  0.2769  0.8760 -0.1367
10851TIP3    H153968   6.321   2.128   4.759  0.3671 -1.0741  0.1520
10851TIP3    H253969   6.215   2.207   4.833  1.9228  0.6796  0.5791
10852TIP3   OH253970   6.212   6.580  13.801  0.4930 -0.2865  0.2973
10852TIP3    H153971   6.292   6.554  13.848  1.3155  4.1914  1.8001
10852TIP3    H253972   6.142   6.535  13.848  1.7670 -0.2576  2.3735
10853TIP3   OH253973   3.927   2.638   4.603  0.2321  0.1391 -0.0405
10853TIP3    H153974   3.895   2.566   4.550 -1.3674 -0.2305  1.3285
10853TIP3    H253975   4.014   2.611   4.631  0.8847  0.1180 -1.9780
10854TIP3   OH253976   3.127   2.064  15.787  0.1547  0.0332  0.1626
10854TIP3    H153977   3.078   2.112  15.721 -0.1279 -0.4000  0.0508
10854TIP3    H253978   3.066   1.997  15.818  0.0800  0.5933  1.2809
10855TIP3   OH253979   0.470   3.765  15.590 -0.1074 -0.7084  1.1256
10855TIP3    H153980   0.401   3.766  15.524  0.7516  1.2406  0.1632
10855TIP3    H253981   0.479   3.857  15.617  1.4699 -1.0451  1.8968
10856TIP3   OH253982   0.802   5.326   0.781  0.0704  0.2050 -0.4913
10856TIP3    H153983   0.800   5.412   0.740 -1.8309 -0.0889 -1.1622
10856TIP3    H253984   0.810   5.264   0.707  0.8732 -0.2158 -0.0632
10857TIP3   OH253985   4.626   1.482  13.712 -0.4756  0.1760  0.3341
10857TIP3    H153986   4.560   1.476  13.781  1.3657 -2.4842  2.0604
10857TIP3    H253987   4.587   1.434  13.638 -2.3655  2.8483 -0.5461
10858TIP3   OH253988   2.416   3.450  11.446  0.0419  0.6282 -0.6827
10858TIP3    H153989   2.379   3.537  11.460  0.2346  0.8470 -1.4883
10858TIP3    H253990   2.498   3.467  11.399 -1.5402 -0.1275 -4.0197
10859TIP3   OH253991   4.313   4.102   0.593  0.3495  0.2890  0.1176
10859TIP3    H153992   4.372   4.098   0.518  1.1593  1.9661  0.6061
10859TIP3    H253993   4.372   4.110   0.669 -0.3866 -2.8511  1.1440
10860TIP3   OH253994   0.116   3.839  11.248 -0.5663 -0.4487 -0.3920
10860TIP3    H153995   0.102   3.766  11.187 -2.5275  0.4234 -1.0538
10860TIP3    H253996   0.154   3.798  11.326  0.4850 -1.8257 -1.5723
10861TIP3   OH253997   3.259   6.557   5.018 -0.3674  0.1563 -0.4603
10861TIP3    H153998   3.261   6.462   5.020 -0.0914  0.1668  0.3192
10861TIP3    H253999   3.205   6.579   4.942 -3.1638 -0.6335  1.1687
10862TIP3   OH254000   1.975   3.703  10.812 -0.3230 -0.1478  0.4910
10862TIP3    H154001   1.925   3.747  10.881 -0.2723 -0.6756  0.8674
10862TIP3    H254002   2.039   3.650  10.859 -1.2599 -1.7008  0.0946
10863TIP3   OH254003   2.106   3.101   0.348 -0.2802  0.5953 -0.2059
10863TIP3    H154004   2.138   3.076   0.435 -0.7671  0.7086  0.0091
10863TIP3    H254005   2.019   3.137   0.364 -0.5411  0.2390 -0.7883
10864TIP3   OH254006   5.330   0.599   4.200 -0.2782 -0.4855  0.2444
10864TIP3    H154007   5.396   0.573   4.264  0.1828 -0.2937 -0.1439
10864TIP3    H254008   5.357   0.687   4.172 -0.9479 -0.2212  0.4039
10865TIP3   OH254009   4.706   3.668  11.341 -0.5666 -0.2134  0.2789
10865TIP3    H154010   4.683   3.706  11.426  1.2770  2.2794 -0.2238
10865TIP3    H254011   4.786   3.617  11.358 -0.2190  0.2547  0.0553
10866TIP3   OH254012   4.972   3.910  14.913  0.1541  0.9277 -0.5766
10866TIP3    H154013   4.890   3.891  14.869  0.4983  0.1723 -0.9067
10866TIP3    H254014   4.952   3.900  15.006 -0.4199  1.9310 -0.5799
10867TIP3   OH254015   1.797   4.794  11.216  0.0266 -0.3102  0.0336
10867TIP3    H154016   1.826   4.717  11.166  1.5510  0.0863  0.2729
10867TIP3    H254017   1.713   4.767  11.255  0.7027 -1.9866  0.4037
10868TIP3   OH254018   2.351   3.866   5.100  0.3162  0.2431  0.3381
10868TIP3    H154019   2.444   3.850   5.115  0.2520  0.6211  1.2169
10868TIP3    H254020   2.315   3.876   5.188 -0.1446  2.4143 -0.0653
10869TIP3   OH254021   0.942   6.382  11.748  1.4426 -0.4398  0.3556
10869TIP3    H154022   0.891   6.301  11.744  1.6594 -0.5804  0.4325
10869TIP3    H254023   0.910   6.427  11.826 -0.7727  0.9553 -1.2307
10870TIP3   OH254024   4.721   4.276   1.707  0.3142  0.4251 -0.2001
10870TIP3    H154025   4.777   4.350   1.733 -0.1856  2.1709 -3.5076
10870TIP3    H254026   4.767   4.199   1.737  1.6053  2.0007  2.1613
10871TIP3   OH254027   6.315   5.318   5.432  0.0402  0.2182 -0.1715
10871TIP3    H154028   6.253   5.380   5.469 -0.1823 -0.4199  0.5344
10871TIP3    H254029   6.342   5.358   5.349  0.6588  1.7374  0.7210
10872TIP3   OH254030   0.350   4.864   4.236  0.2195 -0.0978  0.0804
10872TIP3    H154031   0.324   4.834   4.323  1.6416 -1.2858  0.1217
10872TIP3    H254032   0.336   4.788   4.179 -0.5613  0.6224 -0.7282
10873TIP3   OH254033   1.326   0.577   2.269 -0.4730  0.0987  0.7360
10873TIP3    H154034   1.244   0.533   2.247 -0.6657  0.3106  1.0192
10873TIP3    H254035   1.366   0.522   2.336 -0.1041 -0.3080  0.1893
10874TIP3   OH254036   1.732   4.050  16.835 -0.0855 -0.1215 -0.1530
10874TIP3    H154037   1.646   4.012  16.853 -0.0120 -0.2570 -0.0842
10874TIP3    H254038   1.735   4.128  16.890 -0.4827  0.3329 -0.7611
10875TIP3   OH254039   2.860   3.893  11.975 -0.3502  0.1415  0.5460
10875TIP3    H154040   2.875   3.987  11.988  1.6111 -0.0155 -0.1958
10875TIP3    H254041   2.819   3.864  12.056 -0.7418  1.5834  0.9021
10876TIP3   OH254042   5.808   5.747   6.056 -0.5737  0.0054 -0.0287
10876TIP3    H154043   5.822   5.653   6.042  2.8113  0.5897 -1.6231
10876TIP3    H254044   5.868   5.769   6.127 -0.2750  1.1830 -0.6288
10877TIP3   OH254045   5.143   0.677   0.429 -0.3479  1.0569 -0.0966
10877TIP3    H154046   5.055   0.674   0.467 -0.2836  0.8406  0.0356
10877TIP3    H254047   5.129   0.658   0.336 -0.4866  1.4290 -0.1531
10878TIP3   OH254048   3.480   3.993   5.429 -0.4543 -0.3160 -0.1518
10878TIP3    H154049   3.465   3.913   5.380 -0.6024  0.1905 -0.9427
10878TIP3    H254050   3.429   3.982   5.510 -1.7277 -0.3712 -0.9365
10879TIP3   OH254051   2.712   3.011   1.116  0.3215  0.3397  0.2105
10879TIP3    H154052   2.731   3.102   1.141 -1.1326  0.7299 -0.0085
10879TIP3    H254053   2.770   2.995   1.042  0.7730  1.0079  0.4014
10880TIP3   OH254054   0.565   1.488   1.744 -0.0137 -0.2460 -0.4214
10880TIP3    H154055   0.572   1.393   1.737 -0.1491 -0.3389  0.4984
10880TIP3    H254056   0.484   1.510   1.698 -1.2581 -0.8775  1.3430
10881TIP3   OH254057   0.909   0.223   0.040  0.5266 -0.1814 -0.3809
10881TIP3    H154058   0.999   0.189   0.047  0.0157 -1.4709  0.3682
10881TIP3    H254059   0.896   0.272   0.122  0.4721 -0.1798 -0.3907
10882TIP3   OH254060   3.221   4.958  16.433  0.4153  0.2339 -0.0770
10882TIP3    H154061   3.194   4.889  16.373 -1.2626  0.8681 -0.1083
10882TIP3    H254062   3.294   5.002  16.388  0.1167 -0.1895 -1.0011
10883TIP3   OH254063   0.639   2.357  16.265  0.2328  0.0644 -0.5719
10883TIP3    H154064   0.613   2.360  16.173  0.5597  0.9364 -0.6460
10883TIP3    H254065   0.696   2.280  16.272 -0.6176 -0.5933 -0.8725
10884TIP3   OH254066   6.790   5.103  16.488  0.1318 -0.0475 -0.1341
10884TIP3    H154067   6.813   5.012  16.506 -0.7414 -0.2320  0.1008
10884TIP3    H254068   6.778   5.142  16.575  0.4900  0.2966 -0.2342
10885TIP3   OH254069   3.085   4.444   3.975 -0.1689  0.0680 -0.2255
10885TIP3    H154070   3.076   4.425   4.068 -0.8458 -1.1473 -0.5266
10885TIP3    H254071   3.178   4.466   3.965 -0.0425  0.0113  0.6892
10886TIP3   OH254072   1.566   0.678  12.839 -0.2116 -0.2251  0.1317
10886TIP3    H154073   1.636   0.724  12.884 -0.2146  0.6555 -0.7438
10886TIP3    H254074   1.591   0.586  12.844 -0.0658 -0.1356  1.6534
10887TIP3   OH254075   1.525   1.780  13.759 -0.2700 -0.5811  0.1432
10887TIP3    H154076   1.462   1.744  13.821 -1.2955 -0.6966 -0.9250
10887TIP3    H254077   1.542   1.709  13.697 -0.7046  0.0834 -0.7721
10888TIP3   OH254078   0.410   3.122   0.157  0.5802 -0.3845 -0.1980
10888TIP3    H154079   0.384   3.116   0.249  2.5555  0.0064  0.4198
10888TIP3    H254080   0.352   3.060   0.112  0.2377 -1.3116  1.4439
10889TIP3   OH254081   2.857   1.332   3.980  0.1153  0.4457  0.1440
10889TIP3    H154082   2.867   1.264   4.047  2.0932  1.0158  0.4823
10889TIP3    H254083   2.853   1.414   4.029  1.9547  0.9020 -0.4137
10890TIP3   OH254084   2.599   2.851  15.864 -1.1492 -0.2466 -0.0410
10890TIP3    H154085   2.654   2.908  15.809 -0.6779 -1.1733 -0.5721
10890TIP3    H254086   2.646   2.767  15.864 -2.1149 -0.7962  0.2467
10891TIP3   OH254087   4.610   6.588   0.623  0.3977  0.5308 -0.2608
10891TIP3    H154088   4.688   6.532   0.615  0.1185  0.3748 -2.6597
10891TIP3    H254089   4.641   6.665   0.670  1.9050  0.2824 -0.7811
10892TIP3   OH254090   4.523   0.838   0.697 -0.0505 -0.1730 -0.0058
10892TIP3    H154091   4.497   0.912   0.753 -0.0242 -0.9488  1.0659
10892TIP3    H254092   4.503   0.761   0.749 -1.6778 -1.0285 -1.7586
10893TIP3   OH254093   3.121   6.402   0.884 -0.2365  0.2634 -0.4999
10893TIP3    H154094   3.041   6.433   0.840 -0.0445  0.9517 -0.3597
10893TIP3    H254095   3.094   6.386   0.974 -0.1737  0.6512 -0.4137
10894TIP3   OH254096   1.953   2.779  11.419  0.4891  0.1318 -0.2124
10894TIP3    H154097   1.936   2.873  11.421  0.8648  0.2184 -0.9264
10894TIP3    H254098   1.871   2.739  11.450  0.7303  0.7254  1.2388
10895TIP3   OH254099   6.574   6.232   3.876  0.2978 -0.5902 -0.1292
10895TIP3    H154100   6.660   6.216   3.838  1.2909  1.5231  0.9922
10895TIP3    H254101   6.567   6.168   3.947  0.5613 -1.3254 -0.7542
10896TIP3   OH254102   4.896   3.357   0.540  0.2374  0.1896 -0.3051
10896TIP3    H154103   4.875   3.266   0.520 -0.1280 -0.1100  1.3385
10896TIP3    H254104   4.930   3.356   0.629  1.8735  1.4540 -0.8567
10897TIP3   OH254105   4.238   4.661  12.889  0.3905  0.1694 -0.3553
10897TIP3    H154106   4.256   4.748  12.924  0.2891  0.0008  0.1256
10897TIP3    H254107   4.160   4.631  12.937 -0.3048  0.3012 -1.3710
10898TIP3   OH254108   3.402   2.693  15.659 -0.1773 -0.5510 -0.6054
10898TIP3    H154109   3.490   2.706  15.623 -0.5565 -0.5198 -1.5395
10898TIP3    H254110   3.359   2.777  15.649 -0.4093 -0.6409 -0.3858
10899TIP3   OH254111   4.888   0.246  11.906  0.0099  0.0943  0.4908
10899TIP3    H154112   4.949   0.226  11.977  1.2409  1.5574 -0.1198
10899TIP3    H254113   4.843   0.326  11.935  0.0311  0.3130 -0.0770
10900TIP3   OH254114   5.003   1.401   1.358  0.0057  0.1223 -0.6268
10900TIP3    H154115   4.960   1.467   1.413  1.9398  0.5719  0.4802
10900TIP3    H254116   4.972   1.419   1.270  0.9422  3.0403 -0.4881
10901TIP3   OH254117   5.251   3.500  15.255  0.4781  0.4760 -0.7091
10901TIP3    H154118   5.234   3.585  15.295 -1.1788 -0.6159  1.1358
10901TIP3    H254119   5.286   3.446  15.327 -1.2788 -1.1895 -1.0163
10902TIP3   OH254120   2.809   5.320   1.725 -0.1126  0.3571  0.0321
10902TIP3    H154121   2.766   5.393   1.680 -2.6828 -0.3664  1.1198
10902TIP3    H254122   2.834   5.260   1.656  0.3771  1.4088 -0.7387
10903TIP3   OH254123   0.305   3.754   1.957 -0.4967 -0.1090  0.6095
10903TIP3    H154124   0.349   3.757   1.872 -0.1254 -0.5465  0.7791
10903TIP3    H254125   0.214   3.733   1.936 -0.1359 -1.5594  0.3917
10904TIP3   OH254126   5.577   4.904  14.013  0.3604 -0.1850 -0.2579
10904TIP3    H154127   5.622   4.988  14.023 -2.0773  1.1280  0.5730
10904TIP3    H254128   5.555   4.878  14.103  0.2253 -1.2000 -0.5792
10905TIP3   OH254129   4.071   3.981  13.322 -0.3932  0.3413 -0.2658
10905TIP3    H154130   4.107   3.971  13.410 -3.8426 -1.4937  1.1268
10905TIP3    H254131   4.023   4.064  13.324  0.6634  0.9906 -0.9298
10906TIP3   OH254132   3.817   3.207   4.815  0.1983  0.3495  0.1281
10906TIP3    H154133   3.746   3.208   4.878 -1.0747  0.4910 -1.2433
10906TIP3    H254134   3.809   3.290   4.768  0.5473 -0.1150 -0.7968
10907TIP3   OH254135   6.108   0.379  14.965  0.2547 -0.1737 -0.1629
10907TIP3    H154136   6.182   0.402  15.020  0.7148 -0.8278 -0.4932
10907TIP3    H254137   6.047   0.452  14.974 -0.9955 -1.4532  3.5016
10908TIP3   OH254138   0.718   3.481  13.281  0.0814  0.2164  0.0178
10908TIP3    H154139   0.761   3.494  13.196 -1.3493 -2.8868 -1.3106
10908TIP3    H254140   0.777   3.423  13.329 -0.2372  0.0390  0.1971
10909TIP3   OH254141   3.836   1.566   0.868  0.2044 -0.1001  0.1710
10909TIP3    H154142   3.854   1.515   0.789 -3.0264 -2.5326  0.7815
10909TIP3    H254143   3.857   1.507   0.940 -1.7211  0.0969  0.9640
10910TIP3   OH254144   1.241   2.711   2.760  0.7799  0.0350  0.2172
10910TIP3    H154145   1.222   2.729   2.668  1.3345 -2.4092 -0.4514
10910TIP3    H254146   1.162   2.668   2.793  1.0187 -0.1743  0.5260
10911TIP3   OH254147   3.079   2.561  15.943  0.2566 -0.3815 -0.1767
10911TIP3    H154148   3.162   2.514  15.934  0.2784 -0.7004  1.3932
10911TIP3    H254149   3.035   2.518  16.016 -1.4793 -0.4665 -1.2224
10912TIP3   OH254150   3.963   5.598   2.988  0.3904  0.2474 -0.8084
10912TIP3    H154151   4.055   5.573   2.996  0.3295  0.2497 -0.0257
10912TIP3    H254152   3.963   5.693   2.998  0.2990  0.2460 -0.7956
10913TIP3   OH254153   4.358   1.433   3.177 -0.0870  0.8582 -0.2448
10913TIP3    H154154   4.330   1.342   3.178  2.3737  0.0422  0.5832
10913TIP3    H254155   4.393   1.449   3.264  1.9366  1.7378 -1.1505
10914TIP3   OH254156   3.292   2.023   2.849  0.7813 -0.1457 -0.3233
10914TIP3    H154157   3.228   1.952   2.853 -1.0753  1.4003 -0.7161
10914TIP3    H254158   3.340   2.017   2.931 -0.0156 -1.2485  0.0813
10915TIP3   OH254159   3.373   5.768  12.890 -0.6832  0.1706  0.0840
10915TIP3    H154160   3.304   5.820  12.848 -0.3951  0.8202  0.4199
10915TIP3    H254161   3.455   5.810  12.864 -0.5189  1.2028  2.0831
10916TIP3   OH254162   4.833   6.126   4.916  0.1994  0.1246  0.3713
10916TIP3    H154163   4.761   6.182   4.946  0.3888  0.8742 -0.5590
10916TIP3    H254164   4.878   6.178   4.850  0.0264 -1.3412 -0.9478
10917TIP3   OH254165   1.122   4.586   5.524  0.4490  0.3257 -0.5566
10917TIP3    H154166   1.106   4.506   5.575  0.5480 -0.2871 -1.4689
10917TIP3    H254167   1.144   4.555   5.437  1.2729  1.3286 -0.7274
10918TIP3   OH254168   5.203   4.806  12.811 -0.0446 -0.5392 -0.1682
10918TIP3    H154169   5.185   4.896  12.783 -0.4700 -0.4381  0.4161
10918TIP3    H254170   5.164   4.800  12.898  3.2893 -0.1208  1.4950
10919TIP3   OH254171   3.444   1.656   0.751  0.3030  0.4122  0.2194
10919TIP3    H154172   3.349   1.654   0.737  0.0491  1.6986  1.5709
10919TIP3    H254173   3.455   1.672   0.844  1.8825 -0.6508  0.2671
10920TIP3   OH254174   0.624   1.544  12.310 -0.0433 -0.2110 -0.0597
10920TIP3    H154175   0.714   1.521  12.285  0.7530  0.9692  1.5589
10920TIP3    H254176   0.577   1.461  12.305  1.1316 -0.8636 -0.9256
10921TIP3   OH254177   3.940   3.044  15.297 -0.4033 -0.1139  0.1265
10921TIP3    H154178   4.012   3.106  15.287 -0.7012  0.6263  2.1396
10921TIP3    H254179   3.891   3.076  15.373 -0.4490 -2.9361  1.4038
10922TIP3   OH254180   3.967   1.541   4.880  0.0303 -0.7312 -0.3695
10922TIP3    H154181   3.966   1.636   4.893  0.3634 -0.7908  0.1523
10922TIP3    H254182   3.876   1.513   4.895  0.4371 -0.8633  2.6583
10923TIP3   OH254183   1.970   0.746   3.994 -0.3225  0.8890 -0.1382
10923TIP3    H154184   2.030   0.805   4.039  1.1357 -0.0990 -0.7223
10923TIP3    H254185   1.894   0.741   4.052  0.9694  0.6304  1.6434
10924TIP3   OH254186   3.410   5.220  14.004 -0.1150 -0.1266  0.2987
10924TIP3    H154187   3.322   5.243  14.033 -1.2439 -1.9333 -1.4187
10924TIP3    H254188   3.462   5.299  14.020 -1.5742  0.4143  3.0119
10925TIP3   OH254189   4.427   6.279  14.879  0.1584 -0.1369  0.4082
10925TIP3    H154190   4.453   6.344  14.814 -0.4139 -0.8357 -0.5393
10925TIP3    H254191   4.335   6.261  14.859 -0.7949  1.4112  2.9304
10926TIP3   OH254192   6.272   5.305  16.185  0.2860 -0.0678 -0.0039
10926TIP3    H154193   6.319   5.224  16.165  0.0071 -0.9739  2.5225
10926TIP3    H254194   6.186   5.293  16.145  0.7242 -0.3800 -0.8654
10927TIP3   OH254195   5.026   5.877  14.905  0.1688 -0.1767 -0.2328
10927TIP3    H154196   5.053   5.794  14.864 -0.6318 -1.2632  1.3184
10927TIP3    H254197   5.103   5.933  14.900  0.9170 -1.2215 -0.7938
10928TIP3   OH254198   6.469   5.611  11.644  0.1485  0.0079  0.5239
10928TIP3    H154199   6.512   5.623  11.559 -0.3523  0.7709  0.3607
10928TIP3    H254200   6.530   5.559  11.695 -0.0667 -1.5100 -0.7085
10929TIP3   OH254201   5.907   4.959  15.662 -0.0277 -0.3213  0.6779
10929TIP3    H154202   5.869   4.949  15.575 -1.6587 -1.5277  1.4808
10929TIP3    H254203   5.950   5.044  15.660 -0.0213 -0.3218 -1.2883
10930TIP3   OH254204   1.632   2.483  12.669 -0.4817  0.3331 -0.0623
10930TIP3    H154205   1.584   2.409  12.630 -0.5090 -0.1698  0.8911
10930TIP3    H254206   1.563   2.547  12.690 -0.6723 -0.1314  0.7482
10931TIP3   OH254207   5.945   2.519  12.257  0.1226 -0.8758  0.9518
10931TIP3    H154208   6.008   2.449  12.277 -0.6635 -1.2971  2.0827
10931TIP3    H254209   5.993   2.600  12.278  0.4837 -1.1631  1.2671
10932TIP3   OH254210   3.719   0.183   0.703  0.4036  0.4538  0.0067
10932TIP3    H154211   3.768   0.125   0.761  0.3859 -0.4685 -0.8677
10932TIP3    H254212   3.628   0.155   0.712  0.6423 -1.3034 -2.1552
10933TIP3   OH254213   0.371   3.914   5.397 -0.1379 -0.4201 -0.1713
10933TIP3    H154214   0.317   3.855   5.344  1.0431 -1.7293  0.0263
10933TIP3    H254215   0.308   3.968   5.445 -1.2447 -0.8432 -1.1047
10934TIP3   OH254216   4.854   6.277   4.364  0.3986 -0.3904 -0.3263
10934TIP3    H154217   4.873   6.262   4.272 -0.5080 -1.6240 -0.3508
10934TIP3    H254218   4.845   6.372   4.372 -1.7303 -0.3639 -2.0098
10935TIP3   OH254219   0.140   0.519   5.842 -0.3622 -0.2331 -0.1792
10935TIP3    H154220   0.171   0.469   5.766  1.1678 -1.8679  1.4273
10935TIP3    H254221   0.121   0.452   5.908 -2.4362  1.0959  0.6464
10936TIP3   OH254222   5.551   0.168  12.456 -0.2887 -0.3003 -0.8873
10936TIP3    H154223   5.593   0.253  12.469 -0.0142 -0.8090  2.0230
10936TIP3    H254224   5.612   0.105  12.491 -1.7306 -1.4424 -0.3293
10937TIP3   OH254225   4.008   2.257  12.961  0.0015  0.2849  0.6132
10937TIP3    H154226   4.023   2.163  12.968  1.8506  0.6235  1.9388
10937TIP3    H254227   3.973   2.283  13.046  0.7967  0.9871  0.7436
10938TIP3   OH254228   4.244   3.839  11.744  0.0761  0.4013 -0.4057
10938TIP3    H154229   4.163   3.793  11.723  0.7633 -1.3569  0.5397
10938TIP3    H254230   4.222   3.891  11.822 -0.4595  0.9797 -0.9265
10939TIP3   OH254231   5.150   1.487   5.005 -0.2228 -0.0009 -0.5652
10939TIP3    H154232   5.170   1.395   4.987 -1.4097 -0.2500 -0.7022
10939TIP3    H254233   5.214   1.536   4.954  2.4850 -0.7079  1.9000
10940TIP3   OH254234   3.329   2.793   5.635 -0.1833 -0.4020 -0.6811
10940TIP3    H154235   3.259   2.749   5.588  0.3466  0.0149 -1.8893
10940TIP3    H254236   3.318   2.885   5.614  1.9205 -0.5005 -2.6207
10941TIP3   OH254237   2.238   0.337  16.597  0.1885 -0.4748  0.1011
10941TIP3    H154238   2.246   0.358  16.690  0.7228 -0.4787  0.0615
10941TIP3    H254239   2.211   0.419  16.556  0.9684 -0.1900  0.1262
10942TIP3   OH254240   5.209   6.477   4.135 -0.1050 -0.1702  0.2091
10942TIP3    H154241   5.290   6.502   4.089 -0.2599  0.1081  0.0817
10942TIP3    H254242   5.153   6.442   4.066 -1.5582  3.1282 -0.4761
10943TIP3   OH254243   4.691   1.550   6.364  0.0288  0.7056 -0.0945
10943TIP3    H154244   4.672   1.612   6.294  0.7976  0.7224 -0.2858
10943TIP3    H254245   4.673   1.599   6.444  0.7370  1.2107 -0.2433
10944TIP3   OH254246   6.406   0.989  16.418  0.3186 -0.5533 -0.0930
10944TIP3    H154247   6.334   1.038  16.378 -0.7086  0.7726  3.0807
10944TIP3    H254248   6.464   1.056  16.455  0.4349 -1.6302  1.8223
10945TIP3   OH254249   6.566   4.154  14.024  0.2739 -0.4654 -0.2604
10945TIP3    H154250   6.624   4.199  14.086  2.5398 -3.7491  0.2767
10945TIP3    H254251   6.606   4.171  13.938  0.9426 -1.1368 -0.0930
10946TIP3   OH254252   0.897   6.731  14.766 -0.3286  0.1998 -0.0385
10946TIP3    H154253   0.847   6.650  14.763 -0.4766  0.3296 -1.3125
10946TIP3    H254254   0.989   6.703  14.765 -0.3777  0.0641 -1.2286
10947TIP3   OH254255   1.224   3.714  15.895  0.0741 -0.5043 -0.1817
10947TIP3    H154256   1.308   3.668  15.893  0.3960  0.0904 -1.0397
10947TIP3    H254257   1.200   3.724  15.803 -0.5459  0.0248  0.0297
10948TIP3   OH254258   4.555   1.510  12.856 -0.1439 -0.4243  0.5767
10948TIP3    H154259   4.571   1.526  12.763 -1.0602 -0.1688  0.4566
10948TIP3    H254260   4.635   1.541  12.900  0.2575 -0.4695 -0.1077
10949TIP3   OH254261   2.210   4.269   1.886 -0.3405 -0.0232 -0.2335
10949TIP3    H154262   2.249   4.312   1.811 -0.9580  0.3217 -0.3620
10949TIP3    H254263   2.143   4.211   1.850 -1.4860  1.0454  0.1016
10950TIP3   OH254264   4.105   0.330   5.290  0.5356 -0.2160 -0.2070
10950TIP3    H154265   4.163   0.404   5.269  0.1022  0.1214 -0.2260
10950TIP3    H254266   4.017   0.363   5.274  0.3374 -0.7439 -0.2227
10951TIP3   OH254267   4.053   3.047  14.917  0.5887 -0.3842 -0.8153
10951TIP3    H154268   4.043   3.064  14.823  1.5719  2.5040 -0.5100
10951TIP3    H254269   3.963   3.037  14.949 -0.1082  2.5765 -1.5356
10952TIP3   OH254270   4.719   1.033  13.443 -0.7393  0.8910  0.5317
10952TIP3    H154271   4.644   0.989  13.484 -1.6606  2.0967  0.2049
10952TIP3    H254272   4.711   1.011  13.350 -0.8093  1.1939  0.4661
10953TIP3   OH254273   0.124   2.779  16.546 -0.0946 -0.1432 -0.3657
10953TIP3    H154274   0.070   2.785  16.625  1.7897  1.8379  0.8922
10953TIP3    H254275   0.140   2.686  16.535 -2.5911 -0.6993 -0.0246
10954TIP3   OH254276   4.521   1.613   6.652 -0.3808 -0.0316  0.0857
10954TIP3    H154277   4.611   1.608   6.686 -0.1839  0.3411 -0.3603
10954TIP3    H254278   4.476   1.538   6.691  0.2560 -0.5068 -0.0657
10955TIP3   OH254279   2.581   3.289  13.253 -0.0114  0.7122 -0.2728
10955TIP3    H154280   2.571   3.288  13.349  0.4871  1.9856 -0.1912
10955TIP3    H254281   2.496   3.260  13.220  0.0305 -0.4276  0.5556
10956TIP3   OH254282   2.725   2.111   3.377  0.3234 -0.1231 -0.0520
10956TIP3    H154283   2.727   2.202   3.347 -0.1019 -0.4041 -0.9809
10956TIP3    H254284   2.812   2.077   3.356  0.2807 -0.0997 -0.2712
10957TIP3   OH254285   3.998   5.356   1.873 -0.3475 -0.0498  0.2527
10957TIP3    H154286   4.065   5.288   1.880 -1.2360 -0.8272  1.7261
10957TIP3    H254287   3.985   5.386   1.963 -1.5602  0.4987 -0.0809
10958TIP3   OH254288   5.671   5.385   4.303 -0.1336  0.0452  0.4415
10958TIP3    H154289   5.736   5.409   4.369  0.3122 -0.4756  0.2009
10958TIP3    H254290   5.694   5.439   4.227  0.7171 -0.9375 -0.0171
10959TIP3   OH254291   6.349   4.499  16.476 -0.2210  0.4247 -0.3643
10959TIP3    H154292   6.293   4.444  16.531  1.2416  0.2994  1.0935
10959TIP3    H254293   6.326   4.476  16.386 -0.8162 -1.3548  0.2122
10960TIP3   OH254294   5.254   3.594  14.365 -0.1565  0.0383 -0.5083
10960TIP3    H154295   5.272   3.502  14.386 -0.3947  0.2546  0.7727
10960TIP3    H254296   5.304   3.611  14.286 -1.3395 -1.6223 -1.6850
10961TIP3   OH254297   5.348   2.286  16.932 -0.4185 -0.0345 -0.3232
10961TIP3    H154298   5.311   2.375  16.936 -3.0238 -1.0370  0.0026
10961TIP3    H254299   5.280   2.234  16.890  1.8041 -1.5955 -2.2188
10962TIP3   OH254300   5.627   3.356  12.801  0.2868  0.6634 -0.2260
10962TIP3    H154301   5.681   3.432  12.779 -0.2732  0.9585 -0.6148
10962TIP3    H254302   5.679   3.307  12.864 -0.0807  2.3224  1.4648
10963TIP3   OH254303   2.011   2.594   0.177 -0.2137 -0.7244  0.2721
10963TIP3    H154304   2.054   2.590   0.263  1.3644 -0.5287 -0.4852
10963TIP3    H254305   2.059   2.661   0.129  0.0947 -2.0845 -1.3957
10964TIP3   OH254306   4.607   4.641   5.041 -0.7551  0.1096 -0.0651
10964TIP3    H154307   4.593   4.729   5.006  0.1647 -0.1567 -1.1526
10964TIP3    H254308   4.702   4.629   5.039 -0.8258 -0.6935  0.6426
10965TIP3   OH254309   3.447   4.386  16.808  0.3162  0.4740  0.4253
10965TIP3    H154310   3.396   4.463  16.784 -1.1126 -0.4401  0.4136
10965TIP3    H254311   3.461   4.394  16.902  0.4749  0.9010  0.3678
10966TIP3   OH254312   0.398   4.631  16.110 -0.3569  0.9625  0.1669
10966TIP3    H154313   0.330   4.698  16.100 -0.2748  0.7919 -2.0013
10966TIP3    H254314   0.454   4.642  16.034 -0.6760 -1.9233 -0.6080
10967TIP3   OH254315   6.199   0.037  13.207  0.5076  0.2418 -0.2008
10967TIP3    H154316   6.217   0.066  13.117 -0.2145 -0.3709 -0.5551
10967TIP3    H254317   6.283   0.048  13.253  0.8612  0.6405 -0.9251
10968TIP3   OH254318   0.782   2.989   2.806 -0.0573  0.3349 -0.5713
10968TIP3    H154319   0.797   2.970   2.898 -0.6629 -1.9509 -0.8919
10968TIP3    H254320   0.783   3.084   2.801 -1.9596  0.6213  2.1292
10969TIP3   OH254321   6.090   5.327   1.405 -0.2338 -0.0146 -0.0266
10969TIP3    H154322   6.186   5.330   1.399 -0.2496 -0.3613 -0.4864
10969TIP3    H254323   6.069   5.234   1.401 -0.4907 -0.0980  1.9478
10970TIP3   OH254324   0.606   2.315   3.945  0.2230 -0.3387  0.2447
10970TIP3    H154325   0.659   2.348   4.017 -1.0914  0.6524  0.7887
10970TIP3    H254326   0.640   2.226   3.930  1.1102 -0.2420  1.4726
10971TIP3   OH254327   5.775   4.243   4.178 -0.4081 -0.0326  0.0935
10971TIP3    H154328   5.855   4.191   4.169  0.1242  1.0922 -2.6582
10971TIP3    H254329   5.713   4.184   4.221  1.1939 -1.7523  0.1801
10972TIP3   OH254330   6.026   5.615  13.465  0.1031  0.3245  0.1410
10972TIP3    H154331   6.085   5.586  13.534  0.5786  0.4269 -0.2129
10972TIP3    H254332   6.062   5.699  13.436 -0.2271  0.3985 -0.0653
10973TIP3   OH254333   1.494   3.720  11.474  0.0756 -0.7824 -0.3012
10973TIP3    H154334   1.587   3.741  11.462  0.3242 -0.9629  1.1123
10973TIP3    H254335   1.453   3.805  11.493 -0.1055 -0.6680 -1.1599
10974TIP3   OH254336   3.362   4.990  14.889  0.2372  0.5257 -0.2171
10974TIP3    H154337   3.304   5.025  14.957  0.3410  1.4606 -0.6072
10974TIP3    H254338   3.379   4.900  14.917 -1.5098  0.1772 -0.1675
10975TIP3   OH254339   5.460   5.834   0.285 -0.0872  0.9824 -0.1553
10975TIP3    H154340   5.414   5.769   0.338 -0.5821  1.2798 -0.2164
10975TIP3    H254341   5.547   5.796   0.272  0.2083  1.0975  1.2560
10976TIP3   OH254342   2.161   6.093   2.829 -0.5655  0.3273  0.2825
10976TIP3    H154343   2.190   6.154   2.896  0.6394  0.1643 -0.0785
10976TIP3    H254344   2.150   6.147   2.751 -1.2820  0.3908  0.4188
10977TIP3   OH254345   2.288   3.059  11.865 -0.1112 -0.3568 -0.0042
10977TIP3    H154346   2.320   3.138  11.820 -2.2774 -0.4359 -1.9248
10977TIP3    H254347   2.302   3.077  11.958 -2.3106  3.2850 -0.1668
10978TIP3   OH254348   3.114   3.199  16.919  0.3369 -0.0640  0.1763
10978TIP3    H154349   3.187   3.260  16.932  2.6967 -2.2117 -1.9044
10978TIP3    H254350   3.079   3.183  17.007  2.7406  0.6459  1.3356
10979TIP3   OH254351   2.884   1.114   2.102  0.0625  0.1346 -0.1006
10979TIP3    H154352   2.968   1.157   2.085  0.3197 -0.9058 -1.7473
10979TIP3    H254353   2.906   1.021   2.112 -0.6246  0.1594  2.0991
10980TIP3   OH254354   5.960   0.859  12.381  0.1233  0.1126 -0.7334
10980TIP3    H154355   5.933   0.931  12.438  0.9407  0.5089 -0.8442
10980TIP3    H254356   6.044   0.831  12.416 -1.5065 -2.8508  1.2521
10981TIP3   OH254357   4.637   6.264  13.057  0.1560 -0.3855  0.1667
10981TIP3    H154358   4.717   6.263  13.004  0.9055  1.5989  1.1507
10981TIP3    H254359   4.566   6.254  12.994  1.1173 -1.5384 -0.8037
10982TIP3   OH254360   0.340   0.092  12.037  0.4278  0.0623 -0.4181
10982TIP3    H154361   0.429   0.127  12.038  0.6026 -0.3408 -1.3559
10982TIP3    H254362   0.297   0.137  11.964 -0.8657  1.9747  1.4021
10983TIP3   OH254363   1.762   2.999   2.715  0.5635 -0.3561  0.3711
10983TIP3    H154364   1.673   3.033   2.715  0.3553 -0.8370  1.6124
10983TIP3    H254365   1.752   2.905   2.729  1.2497 -0.5195 -0.1623
10984TIP3   OH254366   6.689   0.221   2.944 -0.9593 -0.6034  0.2226
10984TIP3    H154367   6.638   0.245   2.866  2.5771  2.8142 -1.3997
10984TIP3    H254368   6.659   0.281   3.012 -1.1969 -0.7346  0.2350
10985TIP3   OH254369   6.241   4.788   0.362  0.4339  0.0071 -0.1271
10985TIP3    H154370   6.328   4.756   0.341 -0.1564 -1.0309 -1.1445
10985TIP3    H254371   6.203   4.812   0.277 -0.1691  0.7100  0.3247
10986TIP3   OH254372   2.522   6.245  12.596  0.0096 -0.2809  0.2846
10986TIP3    H154373   2.577   6.186  12.544 -1.3528 -0.6818 -0.7814
10986TIP3    H254374   2.462   6.187  12.642 -0.5864  0.1998  0.1339
10987TIP3   OH254375   3.509   3.435  16.534  0.0581  0.2907 -0.0989
10987TIP3    H154376   3.482   3.381  16.460 -1.0780  0.5591  0.1010
10987TIP3    H254377   3.427   3.458  16.578  0.5146  2.1111 -0.1286
10988TIP3   OH254378   5.930   6.666   0.861 -0.4535 -0.3982  0.0765
10988TIP3    H154379   5.882   6.598   0.907  0.7894 -0.9759  0.5511
10988TIP3    H254380   5.950   6.628   0.775 -2.3366  0.4952 -0.8140
10989TIP3   OH254381   0.105   5.868  11.528 -0.2517  0.1858 -0.1942
10989TIP3    H154382   0.162   5.918  11.586 -0.0073  0.7159 -0.8742
10989TIP3    H254383   0.165   5.825  11.467 -0.5910  2.0082 -1.9253
10990TIP3   OH254384   6.055   3.377  14.472  0.3472  0.6574  0.4723
10990TIP3    H154385   6.113   3.389  14.547  0.5106  2.0500  0.1520
10990TIP3    H254386   5.971   3.414  14.500 -0.4592 -1.3702  0.9439
10991TIP3   OH254387   2.155   5.046   0.767  0.0466  0.1053 -0.2379
10991TIP3    H154388   2.118   5.031   0.854  0.1580 -0.4144 -0.2779
10991TIP3    H254389   2.080   5.064   0.711 -0.3514 -2.5843 -0.6765
10992TIP3   OH254390   3.076   6.118   2.595  0.3482  0.1773  0.7687
10992TIP3    H154391   3.095   6.189   2.656 -0.7497  0.5770  0.6777
10992TIP3    H254392   2.980   6.115   2.591  0.3228 -2.1464  1.7286
10993TIP3   OH254393   6.738   2.808  11.011 -0.0602 -0.0092  0.3205
10993TIP3    H154394   6.746   2.804  11.107  1.4195  1.7581  0.3358
10993TIP3    H254395   6.691   2.728  10.987 -1.9054  0.2484  2.6554
10994TIP3   OH254396   4.094   4.281   1.752 -0.1451  0.0094  0.1771
10994TIP3    H154397   4.177   4.262   1.796  0.9254 -0.0135 -1.7052
10994TIP3    H254398   4.036   4.209   1.778  0.8734 -0.7354  0.4601
10995TIP3   OH254399   4.330   0.696   2.037  0.2417  1.2070 -0.1163
10995TIP3    H154400   4.321   0.739   2.122  2.2674  3.4532 -0.9289
10995TIP3    H254401   4.357   0.607   2.058 -0.2417  1.4271  1.5887
10996TIP3   OH254402   2.887   5.457  14.857 -0.6605 -0.0837 -0.2741
10996TIP3    H154403   2.870   5.383  14.799 -0.3697 -1.7451  1.6520
10996TIP3    H254404   2.951   5.511  14.809  0.6888 -2.1542 -0.9463
10997TIP3   OH254405   0.160   2.655  12.424  0.3706 -0.3890  0.2903
10997TIP3    H154406   0.119   2.587  12.477  4.2629 -2.0664  1.5941
10997TIP3    H254407   0.149   2.625  12.334  2.0060 -2.9648  0.8197
10998TIP3   OH254408   4.943   0.316  12.205  0.0631  0.4381  0.7096
10998TIP3    H154409   4.995   0.392  12.232 -1.9415  2.4387 -0.6462
10998TIP3    H254410   4.870   0.354  12.156 -0.9879 -2.4223 -0.1176
10999TIP3   OH254411   3.480   0.613   0.313 -0.5077 -0.5732 -0.2560
10999TIP3    H154412   3.489   0.646   0.224 -1.9716  0.3248 -0.1021
10999TIP3    H254413   3.566   0.575   0.334  0.2364  0.3196 -1.5814
11000TIP3   OH254414   5.492   2.679   5.840 -0.1050  0.2517  0.1228
11000TIP3    H154415   5.520   2.633   5.760  0.8439 -0.1470  0.6735
11000TIP3    H254416   5.397   2.684   5.831 -0.1765 -1.1896 -0.3105
11001TIP3   OH254417   3.351   1.335  12.839  0.0457  0.4398  0.1376
11001TIP3    H154418   3.397   1.252  12.836 -1.5726 -0.4869  0.0045
11001TIP3    H254419   3.360   1.365  12.930 -1.6200 -1.2519  0.9241
11002TIP3   OH254420   6.618   1.649  15.550  1.2137 -0.2033 -0.1453
11002TIP3    H154421   6.570   1.710  15.493 -2.9521  0.0344  3.0944
11002TIP3    H254422   6.685   1.703  15.591 -1.3476  2.0544  1.4445
11003TIP3   OH254423   1.104   0.747   5.202 -0.1649 -0.4355  0.1661
11003TIP3    H154424   1.091   0.677   5.266 -0.7595 -1.0215 -0.5898
11003TIP3    H254425   1.182   0.720   5.153 -0.2532 -0.4415  0.0315
11004TIP3   OH254426   6.111   2.969  14.102  0.6410  0.1593  0.7003
11004TIP3    H154427   6.069   3.042  14.056 -1.6993 -0.7294  1.2694
11004TIP3    H254428   6.134   3.005  14.188  3.0731  1.2254 -0.3095
11005TIP3   OH254429   4.664   6.727  14.621 -0.6403 -0.6011 -0.1737
11005TIP3    H154430   4.619   6.712  14.538 -2.0814 -1.3922  0.6964
11005TIP3    H254431   4.625   6.808  14.654 -0.8503 -0.8600  0.2174
11006TIP3   OH254432   0.101   5.030   2.576  0.4767 -0.3140  0.5094
11006TIP3    H154433   0.008   5.029   2.554  0.8003  0.3806 -0.9466
11006TIP3    H254434   0.145   4.999   2.497  1.7337  3.0788 -0.2796
11007TIP3   OH254435   1.594   1.165  15.368  0.3419  0.1119  0.3134
11007TIP3    H154436   1.525   1.099  15.376  1.3192 -0.9065  0.6478
11007TIP3    H254437   1.617   1.164  15.275 -0.4073  0.8065  0.1074
11008TIP3   OH254438   1.719   2.606   0.123  0.4196  0.1292 -0.2272
11008TIP3    H154439   1.812   2.606   0.146  0.3715  1.7010  0.0296
11008TIP3    H254440   1.710   2.679   0.061 -0.8980  0.9220  0.8677
11009TIP3   OH254441   4.516   3.334  14.156  0.1154 -0.0476  0.1845
11009TIP3    H154442   4.442   3.280  14.184 -1.3445  1.8900  0.2469
11009TIP3    H254443   4.516   3.328  14.061 -1.6751  1.7715 -0.0014
11010TIP3   OH254444   5.819   2.883  12.376 -0.4799  0.5758  0.5638
11010TIP3    H154445   5.813   2.977  12.397 -0.3697  0.8978 -0.7184
11010TIP3    H254446   5.819   2.839  12.461  0.6575  1.8006  1.2399
11011TIP3   OH254447   4.768   1.887  14.885  0.3183 -0.1567 -0.2601
11011TIP3    H154448   4.682   1.846  14.889  0.0859  0.3859  0.4804
11011TIP3    H254449   4.821   1.836  14.946 -0.0500  0.7942  0.8891
11012TIP3   OH254450   6.086   4.699   4.137 -0.1070  0.0010 -0.4387
11012TIP3    H154451   6.010   4.728   4.187  0.5405  0.3677  0.3544
11012TIP3    H254452   6.078   4.604   4.135 -2.1604  0.0912 -2.9175
11013TIP3   OH254453   0.977   5.592  13.756  0.6065 -0.4901 -0.3784
11013TIP3    H154454   1.058   5.641  13.739  0.1962  0.4507  0.3042
11013TIP3    H254455   0.941   5.632  13.836 -0.2299 -1.2891 -0.3417
11014TIP3   OH254456   0.205   1.279   5.042  0.7789 -0.2152  0.2800
11014TIP3    H154457   0.226   1.359   4.994 -0.5938  0.1133  0.1738
11014TIP3    H254458   0.157   1.226   4.978  0.9064 -0.7377  0.6212
11015TIP3   OH254459   3.409   2.064   5.635 -0.4809 -0.2848 -0.9656
11015TIP3    H154460   3.458   2.145   5.651  0.4898 -0.8025 -1.2327
11015TIP3    H254461   3.327   2.093   5.595 -1.1084  0.7154  0.9144
11016TIP3   OH254462   6.697   5.993   6.124  0.0135  0.0155  0.2461
11016TIP3    H154463   6.659   5.909   6.099  1.7351 -0.1374 -2.2184
11016TIP3    H254464   6.783   5.995   6.081  1.7967  1.3759  3.5114
11017TIP3   OH254465   4.302   4.615  14.843  0.4271  0.4843  0.0675
11017TIP3    H154466   4.264   4.537  14.803  1.5198 -0.0335 -0.0072
11017TIP3    H254467   4.323   4.587  14.933  0.9019  0.6605  0.0119
11018TIP3   OH254468   2.729   6.192   3.919  0.2013 -0.0568  0.7330
11018TIP3    H154469   2.706   6.223   3.831  1.2063  2.1669  1.1785
11018TIP3    H254470   2.669   6.119   3.935 -0.5262 -0.0240 -1.4853
11019TIP3   OH254471   2.292   6.288  16.717 -0.1409  0.3457 -0.1142
11019TIP3    H154472   2.342   6.254  16.791 -0.6553 -1.4831 -0.5635
11019TIP3    H254473   2.220   6.226  16.706  0.1232  0.3674 -2.3639
11020TIP3   OH254474   6.363   2.853   6.778  0.1454 -0.1085  0.2880
11020TIP3    H154475   6.357   2.919   6.847  0.7495 -1.0374  1.2714
11020TIP3    H254476   6.286   2.868   6.723 -0.7203  0.2446  1.5485
11021TIP3   OH254477   1.979   0.187  11.480  0.2524  0.9982 -0.2099
11021TIP3    H154478   2.027   0.121  11.530 -0.9111 -0.6782 -1.2255
11021TIP3    H254479   1.940   0.244  11.547 -1.5200 -1.3500  0.8732
11022TIP3   OH254480   2.817   3.601   2.711  1.0696 -0.5038  0.0065
11022TIP3    H154481   2.860   3.671   2.759  0.1567  1.6569 -2.0827
11022TIP3    H254482   2.872   3.524   2.724  2.9635  0.9744  1.1697
11023TIP3   OH254483   1.065   2.288   3.315 -0.0485 -0.0395 -0.2310
11023TIP3    H154484   1.115   2.299   3.234  0.7606 -0.4425  0.1946
11023TIP3    H254485   0.980   2.328   3.297 -1.0174 -2.6695 -2.3124
11024TIP3   OH254486   4.749   5.416  14.232  0.1063 -0.7491 -0.4579
11024TIP3    H154487   4.727   5.391  14.322  0.6199 -0.5696 -0.2763
11024TIP3    H254488   4.732   5.338  14.180 -0.8978 -0.6283 -0.3231
11025TIP3   OH254489   6.380   5.780  12.172 -0.8079 -0.3337 -0.0865
11025TIP3    H154490   6.363   5.790  12.265  1.3210  0.4811  0.2902
11025TIP3    H254491   6.380   5.870  12.138 -2.3019 -0.6645 -1.0533
11026TIP3   OH254492   5.030   4.529  12.546  0.4747  0.0160  0.1135
11026TIP3    H154493   5.089   4.531  12.621 -1.3251  0.1498  1.5870
11026TIP3    H254494   4.989   4.616  12.546 -0.3521 -0.3674 -0.3714
11027TIP3   OH254495   0.218   2.524   4.005 -0.2271  0.1639  0.0425
11027TIP3    H154496   0.155   2.574   4.058  0.5125  0.2742  0.8376
11027TIP3    H254497   0.165   2.456   3.964 -0.7238 -0.3333  1.4381
11028TIP3   OH254498   0.023   0.334   2.686  0.0331 -0.3368  0.2983
11028TIP3    H154499   0.005   0.331   2.592  1.0438  0.1900  0.0711
11028TIP3    H254500   0.008   0.245   2.717  0.5015 -0.7155 -0.5311
11029TIP3   OH254501   6.655   6.471   5.813  0.1681  0.1640  1.3984
11029TIP3    H154502   6.639   6.388   5.858 -1.2062  0.0946  0.8181
11029TIP3    H254503   6.602   6.466   5.733  2.2636  0.4371 -0.0848
11030TIP3   OH254504   2.390   3.261  16.899  0.0135 -0.5334  0.0744
11030TIP3    H154505   2.319   3.224  16.951  1.5122 -1.5604  1.4773
11030TIP3    H254506   2.427   3.329  16.955 -0.0645  0.2487 -0.7949
11031TIP3   OH254507   0.434   1.067   0.224 -0.0010 -0.2277 -0.2683
11031TIP3    H154508   0.482   0.987   0.245 -0.0520 -0.5071 -1.1827
11031TIP3    H254509   0.501   1.134   0.215  0.2495 -0.6202 -1.5657
11032TIP3   OH254510   2.991   3.362   3.473 -0.0864  0.0193 -0.0425
11032TIP3    H154511   3.018   3.438   3.423 -0.6724  1.3795  1.6024
11032TIP3    H254512   2.902   3.383   3.502 -1.5276 -2.6178 -2.0418
11033TIP3   OH254513   3.808   5.436  14.240  0.1382  0.1962 -0.0529
11033TIP3    H154514   3.871   5.366  14.254  0.3922  0.5120  0.4056
11033TIP3    H254515   3.760   5.410  14.161 -0.7189 -1.1871  0.8808
11034TIP3   OH254516   4.375   1.353  16.431 -0.7091 -0.0807  0.5538
11034TIP3    H154517   4.374   1.258  16.444 -1.5576  0.0640  1.6295
11034TIP3    H254518   4.416   1.388  16.510 -1.5244  0.5211  0.7221
11035TIP3   OH254519   0.947   1.762  10.624  0.5619  0.0092 -0.0981
11035TIP3    H154520   1.025   1.708  10.637  0.6185  0.1254  0.0529
11035TIP3    H254521   0.878   1.700  10.600  0.4263 -0.2357  0.8731
11036TIP3   OH254522   4.228   6.122  10.930 -0.5310  0.7431 -0.2084
11036TIP3    H154523   4.323   6.126  10.919 -0.3944  1.2890  0.9705
11036TIP3    H254524   4.193   6.176  10.860 -0.0320 -0.2366 -1.2397
11037TIP3   OH254525   0.955   4.885  15.533  0.0193  0.1017 -0.2805
11037TIP3    H154526   0.963   4.954  15.467  1.2118 -0.6406 -0.9495
11037TIP3    H254527   0.968   4.803  15.484  1.4259 -0.4373  0.9317
11038TIP3   OH254528   4.089   4.143   2.986 -0.2736 -0.1815 -0.2619
11038TIP3    H154529   4.056   4.095   2.910  0.7823 -1.5536  0.0994
11038TIP3    H254530   4.024   4.126   3.055 -0.0965 -0.8300 -0.2430
11039TIP3   OH254531   5.839   5.637   2.057 -0.4371  0.0472  0.1678
11039TIP3    H154532   5.794   5.675   1.982 -1.0989 -1.1870 -0.0836
11039TIP3    H254533   5.805   5.548   2.063  1.3489 -0.6615  0.4941
11040TIP3   OH254534   3.414   3.233   1.051  0.6394  0.0125 -0.4383
11040TIP3    H154535   3.486   3.191   1.098  1.6034  0.4762 -1.4652
11040TIP3    H254536   3.395   3.312   1.102 -1.6721 -1.8844  1.9190
11041TIP3   OH254537   1.147   5.174  13.274  0.1172  0.2100 -0.3681
11041TIP3    H154538   1.055   5.185  13.250 -0.2261  0.3388  0.9455
11041TIP3    H254539   1.193   5.239  13.221 -0.7799  1.4894  0.3731
11042TIP3   OH254540   5.241   5.230  11.333 -0.2092 -0.3695  0.0373
11042TIP3    H154541   5.307   5.214  11.265  0.1202 -0.6600  0.4197
11042TIP3    H254542   5.188   5.303  11.298  0.2111 -0.2386 -0.3437
11043TIP3   OH254543   3.379   5.764   2.403 -0.3241  0.4979  0.6657
11043TIP3    H154544   3.336   5.696   2.352  2.9387 -0.6205 -0.8485
11043TIP3    H254545   3.341   5.756   2.490  0.0591 -3.5438  0.6625
11044TIP3   OH254546   0.438   6.588   1.399  0.8285  0.5002  0.2848
11044TIP3    H154547   0.454   6.658   1.462 -0.8601 -0.1319  1.4557
11044TIP3    H254548   0.367   6.537   1.436  1.9264 -1.8120 -0.5873
11045TIP3   OH254549   2.939   3.478  13.704 -0.0237 -1.0397  0.4944
11045TIP3    H154550   3.013   3.532  13.680 -0.6315 -0.0445  0.7971
11045TIP3    H254551   2.901   3.522  13.780 -2.2782 -0.1990 -1.0136
11046TIP3   OH254552   0.443   4.775   5.139  0.0097  0.3259 -0.1401
11046TIP3    H154553   0.393   4.854   5.159  0.2479  0.0726  1.6173
11046TIP3    H254554   0.388   4.703   5.169  1.6538  0.0800  2.6257
11047TIP3   OH254555   4.700   5.045  13.836  0.7807  0.1397 -0.4493
11047TIP3    H154556   4.618   4.996  13.828  0.4559  0.3680  1.1225
11047TIP3    H254557   4.721   5.070  13.746 -2.6289  2.8933 -0.7212
11048TIP3   OH254558   2.033   5.236  15.083 -0.3382  0.2148 -0.1395
11048TIP3    H154559   1.993   5.259  14.999 -0.2021  1.8150  0.1957
11048TIP3    H254560   2.030   5.317  15.133  1.2397 -0.2365  0.7395
11049TIP3   OH254561   6.773   2.135  10.699 -0.7164 -0.3563 -0.0356
11049TIP3    H154562   6.838   2.067  10.685  0.5946  1.0979 -1.3865
11049TIP3    H254563   6.712   2.125  10.626 -0.4561 -0.0168 -0.3008
11050TIP3   OH254564   6.366   1.082   0.464 -0.1602 -0.4053  0.3993
11050TIP3    H154565   6.361   1.089   0.369 -3.3922  0.6178  0.5161
11050TIP3    H254566   6.397   1.167   0.494 -0.1393 -0.3812  0.3070
11051TIP3   OH254567   5.689   3.880   2.695  0.2721 -0.1709 -0.0264
11051TIP3    H154568   5.605   3.838   2.676 -0.5831  1.1832  0.5601
11051TIP3    H254569   5.694   3.952   2.632  0.2296  0.7081  0.9473
11052TIP3   OH254570   4.964   5.195   1.487 -0.3078  0.2410 -0.0871
11052TIP3    H154571   4.914   5.270   1.520  2.1522  2.3168 -0.7254
11052TIP3    H254572   4.898   5.131   1.463 -2.4736  1.2775  2.5327
11053TIP3   OH254573   2.660   1.527   1.693 -0.0981  0.1769  0.0050
11053TIP3    H154574   2.630   1.506   1.604 -0.4685 -0.9280  0.3777
11053TIP3    H254575   2.676   1.442   1.734  1.4318  0.7000  0.5518
11054TIP3   OH254576   1.842   1.946  16.500 -0.0756 -0.5056  0.5237
11054TIP3    H154577   1.896   1.875  16.466  2.2524  1.0084  0.8266
11054TIP3    H254578   1.883   1.970  16.583 -0.8820  1.0946  0.4986
11055TIP3   OH254579   5.060   0.032   3.651  0.1852 -0.2269  0.3753
11055TIP3    H154580   5.090   0.087   3.723  0.7502 -0.0413  0.0078
11055TIP3    H254581   5.005  -0.034   3.692  1.5648 -0.9298  1.1602
11056TIP3   OH254582   5.685   2.605  11.091 -0.7241  0.3765 -0.5055
11056TIP3    H154583   5.683   2.630  10.998 -0.2840  0.0481 -0.6068
11056TIP3    H254584   5.655   2.683  11.138 -1.5336  0.3585 -0.9622
11057TIP3   OH254585   1.673   3.183   1.528  0.0364  0.2706  0.1230
11057TIP3    H154586   1.644   3.268   1.561 -2.0043 -0.3885  0.1965
11057TIP3    H254587   1.708   3.202   1.441  1.0337  1.3761  0.7394
11058TIP3   OH254588   3.481   0.072   3.689 -0.2250 -0.1698 -0.2227
11058TIP3    H154589   3.550   0.019   3.649  1.2344  0.4689  1.3066
11058TIP3    H254590   3.400   0.037   3.653  0.9110 -0.0796 -3.1313
11059TIP3   OH254591   0.602   4.971  12.658 -0.3072 -0.5968 -0.2021
11059TIP3    H154592   0.656   4.991  12.581 -0.3417  0.4287  0.0218
11059TIP3    H254593   0.665   4.951  12.727 -0.2651 -1.1075 -0.3859
11060TIP3   OH254594   0.890   4.076  17.056  0.3380 -0.2907 -0.1178
11060TIP3    H154595   0.935   4.074  16.972  1.5076 -0.5766  0.4900
11060TIP3    H254596   0.861   4.166  17.067 -2.4155 -0.8169 -2.1172
11061TIP3   OH254597   3.215   0.187  13.731  0.4122 -0.2307  0.2834
11061TIP3    H154598   3.194   0.094  13.739 -1.5717 -0.2518 -3.0962
11061TIP3    H254599   3.256   0.195  13.644  1.7360  1.9173  1.0230
11062TIP3   OH254600   6.035   6.607  12.247  0.3419 -0.2117 -0.3733
11062TIP3    H154601   6.072   6.527  12.208 -0.6284 -0.4970 -0.7567
11062TIP3    H254602   5.960   6.628  12.191  0.0809  0.4891  0.2205
11063TIP3   OH254603   6.341   6.208   3.388 -0.2581 -0.0682  0.0589
11063TIP3    H154604   6.316   6.261   3.463  2.1467 -0.4892  1.2511
11063TIP3    H254605   6.436   6.215   3.384 -0.1109 -1.9638 -1.5191
11064TIP3   OH254606   0.424   5.642  16.257  0.0049 -0.5160 -1.1492
11064TIP3    H154607   0.433   5.617  16.349  2.1634  0.7530 -0.9667
11064TIP3    H254608   0.362   5.578  16.221 -1.1481 -0.8467  1.2233
11065TIP3   OH254609   3.612   5.744   1.152 -0.9115  0.1216  0.0044
11065TIP3    H154610   3.623   5.798   1.230  1.4181  0.9014 -0.7542
11065TIP3    H254611   3.665   5.666   1.169 -0.8573  0.0291 -0.5533
11066TIP3   OH254612   0.568   0.004   4.020  0.0046  0.1253 -0.3881
11066TIP3    H154613   0.585  -0.069   3.961 -0.8217  0.7809 -1.4952
11066TIP3    H254614   0.472   0.013   4.019 -0.0440 -0.0053  1.2699
11067TIP3   OH254615   5.823   1.750   0.574 -0.8013 -0.0242  0.9366
11067TIP3    H154616   5.847   1.805   0.649 -0.6998 -0.9324  1.5755
11067TIP3    H254617   5.780   1.674   0.612  2.5246 -2.3640  0.4335
11068TIP3   OH254618   1.308   5.431   0.641  0.0227 -0.4355  0.0403
11068TIP3    H154619   1.339   5.464   0.725 -2.3754 -0.3954  1.0061
11068TIP3    H254620   1.297   5.509   0.587 -1.2411 -0.0923  0.7462
11069TIP3   OH254621   4.700   1.934   1.981 -0.0515  0.2113  0.2282
11069TIP3    H154622   4.683   1.966   1.893  0.5924 -1.7358 -0.6549
11069TIP3    H254623   4.613   1.922   2.020 -0.4139 -0.5437 -0.7757
11070TIP3   OH254624   3.289   2.465  11.003  0.3935 -0.5221  0.2375
11070TIP3    H154625   3.251   2.387  10.962 -1.8815  0.0066  1.1843
11070TIP3    H254626   3.369   2.433  11.045  2.0554 -1.3834 -3.1909
11071TIP3   OH254627   3.936   4.112  11.375  0.4132  0.6456 -0.2035
11071TIP3    H154628   3.982   4.097  11.457  1.5835  1.2642 -0.7137
11071TIP3    H254629   3.896   4.198  11.386 -0.8509  0.0182  0.3192
11072TIP3   OH254630   3.921   3.118  14.660  0.1901  0.3410 -0.6417
11072TIP3    H154631   3.937   3.197  14.607  0.1298  0.8941  0.1420
11072TIP3    H254632   3.833   3.131  14.696  0.3310  0.0972 -0.2028
11073TIP3   OH254633   4.062   4.081   4.771  0.0237 -0.1903 -0.2520
11073TIP3    H154634   4.080   4.002   4.719 -1.0116  0.4051 -1.5953
11073TIP3    H254635   4.132   4.141   4.747 -0.5401  0.1399 -1.1274
11074TIP3   OH254636   3.613   6.041   3.071 -0.2738  0.3152  0.2952
11074TIP3    H154637   3.615   5.998   3.157 -0.9694 -1.7545 -0.6630
11074TIP3    H254638   3.629   5.970   3.009  2.9903  2.1649 -1.2284
11075TIP3   OH254639   0.731   0.873   0.937  0.4817  0.1392  0.6785
11075TIP3    H154640   0.804   0.812   0.926  0.8311  0.3917  1.5013
11075TIP3    H254641   0.742   0.937   0.867 -1.7277 -2.4467 -2.2918
11076TIP3   OH254642   5.240   0.936  11.761  0.1159 -0.0847 -0.3532
11076TIP3    H154643   5.244   1.011  11.701  0.8270 -0.8497 -1.2956
11076TIP3    H254644   5.326   0.895  11.753 -0.1872 -0.8838  0.3304
11077TIP3   OH254645   3.906   2.861  13.357 -0.3421  0.6565 -0.2449
11077TIP3    H154646   3.968   2.799  13.395  0.0690  0.7383 -0.7631
11077TIP3    H254647   3.910   2.937  13.415 -2.3547 -0.5225  1.5687
11078TIP3   OH254648   4.164   5.109   3.982  0.1714 -0.4079  0.3957
11078TIP3    H154649   4.092   5.066   4.027  0.1802 -0.5521  0.2722
11078TIP3    H254650   4.242   5.082   4.031 -0.1186  2.2688  2.5076
11079TIP3   OH254651   4.093   3.111   2.718  0.7706 -0.0599 -0.0124
11079TIP3    H154652   4.165   3.068   2.671 -0.0404 -1.1673 -0.2822
11079TIP3    H254653   4.107   3.205   2.702  3.0109 -0.1151  1.2275
11080TIP3   OH254654   4.225   0.780   4.784 -0.3996  0.5306 -0.0915
11080TIP3    H154655   4.285   0.849   4.812 -1.0267  1.3893 -0.7931
11080TIP3    H254656   4.245   0.706   4.841  2.5412  0.1521 -1.4199
11081TIP3   OH254657   1.002   2.338  13.920 -0.0864  0.7200  0.2525
11081TIP3    H154658   0.922   2.390  13.920  0.6337  1.8874  0.2418
11081TIP3    H254659   1.046   2.362  14.002 -1.0235 -2.0275  1.6831
11082TIP3   OH254660   5.209   6.123  11.230  0.5968  0.7135  0.5751
11082TIP3    H154661   5.277   6.060  11.254  0.2019  0.6916  1.7056
11082TIP3    H254662   5.212   6.127  11.135  0.8180 -0.8274  0.4932
11083TIP3   OH254663   6.797   1.124   2.203 -0.1898 -0.3644  0.4982
11083TIP3    H154664   6.881   1.108   2.160 -0.4830  0.5134 -0.4429
11083TIP3    H254665   6.734   1.132   2.131 -1.0067 -0.5712  1.1688
11084TIP3   OH254666   4.542   5.086   2.036 -0.0537 -0.2486  0.3121
11084TIP3    H154667   4.529   5.081   2.131 -1.1961  0.6128  0.2177
11084TIP3    H254668   4.511   5.001   2.004 -1.2050  0.0716  0.5552
11085TIP3   OH254669   4.082   1.368  17.137  0.7139 -0.0285 -0.4895
11085TIP3    H154670   4.070   1.461  17.154  1.6615 -0.0490  0.3493
11085TIP3    H254671   4.046   1.324  17.215  0.5253 -0.3573 -0.7563
11086TIP3   OH254672   1.253   2.896   2.181 -0.4886 -1.4320 -0.2953
11086TIP3    H154673   1.322   2.960   2.197 -0.0328 -1.1132 -3.0935
11086TIP3    H254674   1.175   2.935   2.221  0.3124 -0.3638  0.2856
11087TIP3   OH254675   6.473   3.763  11.232  0.6560 -0.3578  0.3097
11087TIP3    H154676   6.522   3.820  11.172 -0.3944  0.5826  0.3035
11087TIP3    H254677   6.475   3.677  11.190  1.0730 -0.0097 -0.4082
11088TIP3   OH254678   3.191   5.906  16.649 -0.5800 -0.0157  0.3526
11088TIP3    H154679   3.102   5.887  16.622 -0.4843  0.3361 -0.2516
11088TIP3    H254680   3.193   5.888  16.743 -1.1474 -0.5055  0.2738
11089TIP3   OH254681   5.879   2.677  16.937 -0.0290  0.0615 -0.5800
11089TIP3    H154682   5.808   2.740  16.924  0.2925  1.5248  3.2890
11089TIP3    H254683   5.837   2.599  16.971  0.0461  0.3375  0.1606
11090TIP3   OH254684   4.192   1.518  12.525  0.2420 -0.0015  0.2463
11090TIP3    H154685   4.236   1.532  12.609  0.3642 -1.4088  0.4396
11090TIP3    H254686   4.262   1.497  12.464  0.0301 -0.2534  0.0865
11091TIP3   OH254687   1.688   6.016  13.275 -0.7880  0.5251  0.1868
11091TIP3    H154688   1.601   5.985  13.249 -0.2374 -0.0215 -1.0885
11091TIP3    H254689   1.744   5.938  13.270  0.5453  1.5198 -2.7202
11092TIP3   OH254690   0.801   2.028   5.034  0.1719  0.7027  0.0929
11092TIP3    H154691   0.810   2.049   5.127  1.2929 -1.3769  0.5015
11092TIP3    H254692   0.708   2.042   5.016 -0.5385 -0.9062  2.0908
11093TIP3   OH254693   0.098   1.101  11.987 -0.0057 -0.2967 -0.1711
11093TIP3    H154694   0.065   1.175  11.937 -0.3792 -0.8203 -0.7161
11093TIP3    H254695   0.098   1.131  12.078  0.0847  0.4490 -0.4165
11094TIP3   OH254696   1.638   5.708   1.178  0.4338  0.3789  0.1183
11094TIP3    H154697   1.560   5.763   1.171  0.1135  0.0018  0.6268
11094TIP3    H254698   1.639   5.658   1.096 -0.5020 -0.4314  0.5859
11095TIP3   OH254699   1.411   1.896  12.744  0.0599 -0.0242 -0.2240
11095TIP3    H154700   1.346   1.840  12.701  0.4632 -0.5358 -0.1775
11095TIP3    H254701   1.488   1.892  12.688  1.5745 -2.8790  1.8072
11096TIP3   OH254702   4.612   4.789  16.577 -0.3358  0.3102 -0.0783
11096TIP3    H154703   4.543   4.852  16.594  0.7449  1.2286  1.0832
11096TIP3    H254704   4.694   4.838  16.591  0.5420 -1.4442  1.3655
11097TIP3   OH254705   5.423   0.934   0.591 -0.0184  0.1222 -0.4252
11097TIP3    H154706   5.510   0.897   0.609 -0.3115  0.1551  1.2775
11097TIP3    H254707   5.362   0.867   0.623 -0.6151  0.3998 -0.9718
11098TIP3   OH254708   3.268   3.088  15.142  0.0200  0.4250  0.1849
11098TIP3    H154709   3.266   2.993  15.129  1.5200  0.3476  0.3173
11098TIP3    H254710   3.361   3.110  15.145 -0.2435  2.2069 -1.9222
11099TIP3   OH254711   0.175   0.312  16.509 -0.2543 -0.2001 -0.5843
11099TIP3    H154712   0.158   0.222  16.485 -1.4901  0.3530 -1.9235
11099TIP3    H254713   0.180   0.359  16.426 -0.8310  1.1589  0.1115
11100TIP3   OH254714   0.508   3.203   5.190  0.1969 -0.6426 -0.0753
11100TIP3    H154715   0.476   3.173   5.105  0.3462  0.4957 -0.5507
11100TIP3    H254716   0.532   3.295   5.176  1.5872 -0.8272  0.8220
11101TIP3   OH254717   5.501   2.255  12.655  0.2742  0.2964  0.0159
11101TIP3    H154718   5.459   2.261  12.569  0.6169 -1.2690 -0.2935
11101TIP3    H254719   5.489   2.163  12.680  1.4942  0.3809  0.9570
11102TIP3   OH254720   1.132   6.445   3.362 -0.5009  0.1240 -0.3967
11102TIP3    H154721   1.138   6.499   3.441 -0.7416 -3.7068  2.5379
11102TIP3    H254722   1.044   6.459   3.329 -0.7292  1.0770  0.5765
11103TIP3   OH254723   4.185   1.150  13.117  0.0029  0.9551  0.1288
11103TIP3    H154724   4.279   1.141  13.101  0.2629  2.5364  0.5674
11103TIP3    H254725   4.169   1.097  13.195  0.2246 -0.4987 -0.7847
11104TIP3   OH254726   2.161   1.435  11.762 -0.0362  0.0532 -0.5779
11104TIP3    H154727   2.188   1.523  11.735  1.7334 -0.3132 -0.1670
11104TIP3    H254728   2.066   1.438  11.766  0.0221  2.1180  0.0233
11105TIP3   OH254729   6.743   0.769   4.404 -0.0261 -0.3801 -0.2277
11105TIP3    H154730   6.777   0.682   4.383  1.4568  0.3526 -1.0250
11105TIP3    H254731   6.816   0.813   4.446 -0.5059  0.7487 -0.5521
11106TIP3   OH254732   1.175   4.092  16.922  0.0929 -0.4987  0.3300
11106TIP3    H154733   1.180   3.999  16.943  0.2385 -1.1706 -2.3311
11106TIP3    H254734   1.260   4.112  16.884  0.5416  1.1073  2.0361
11107TIP3   OH254735   1.819   6.326   5.360 -0.3778  0.4789  0.0183
11107TIP3    H154736   1.802   6.281   5.442 -1.1928  0.5536 -0.1094
11107TIP3    H254737   1.820   6.257   5.294  1.9759  0.1612  0.2695
11108TIP3   OH254738   4.866   3.649   3.142 -0.5570 -0.2128  0.1315
11108TIP3    H154739   4.888   3.596   3.065  1.4359  0.4543  0.1690
11108TIP3    H254740   4.920   3.611   3.212  0.6688  1.5925  0.2290
11109TIP3   OH254741   1.209   2.130  13.762 -0.2946 -0.2589 -0.2019
11109TIP3    H154742   1.175   2.146  13.674  0.0581  0.6813 -0.1850
11109TIP3    H254743   1.156   2.187  13.818  1.2350  1.2157 -0.1730
11110TIP3   OH254744   3.443   3.050  11.341 -0.0078  0.1183 -0.1835
11110TIP3    H154745   3.447   3.119  11.276 -0.1633 -1.3327 -1.7915
11110TIP3    H254746   3.494   2.978  11.303 -0.6689 -1.0174  0.9921
11111TIP3   OH254747   5.681   3.662  13.514  0.3552 -0.2332 -0.2316
11111TIP3    H154748   5.775   3.651  13.503  0.1120 -1.1509 -1.8119
11111TIP3    H254749   5.657   3.729  13.449 -0.0335  0.3535  0.4937
11112TIP3   OH254750   2.483   4.145  11.476  0.3567  0.6709 -0.1258
11112TIP3    H154751   2.511   4.066  11.431  1.2192 -0.6129  2.4660
11112TIP3    H254752   2.561   4.201  11.477  0.3682  0.6541 -0.1062
11113TIP3   OH254753   6.109   3.892  11.586 -0.0515 -0.1578 -0.5637
11113TIP3    H154754   6.102   3.817  11.644  0.9113  0.1424 -0.0497
11113TIP3    H254755   6.136   3.855  11.502 -0.3883 -0.4687 -0.5391
11114TIP3   OH254756   0.641   1.469   0.930 -0.0775 -0.1708  0.7592
11114TIP3    H154757   0.689   1.472   0.847  0.2456 -0.4992  0.9348
11114TIP3    H254758   0.691   1.526   0.988 -0.4245  0.2331  0.6718
11115TIP3   OH254759   2.978   2.022   4.578 -0.2061  0.0032  0.3203
11115TIP3    H154760   2.909   1.957   4.590  0.1084 -0.4815 -0.3705
11115TIP3    H254761   2.935   2.106   4.592 -0.5691 -0.3531  1.4604
11116TIP3   OH254762   1.140   5.402   4.678 -0.4123  0.5112 -0.2074
11116TIP3    H154763   1.097   5.417   4.762 -1.9714 -1.1976 -0.6450
11116TIP3    H254764   1.150   5.307   4.672 -0.9715  0.5240 -2.2331
11117TIP3   OH254765   3.195   4.221   3.646 -0.3660  0.1772 -0.2049
11117TIP3    H154766   3.138   4.234   3.570  0.2888 -0.4255 -0.8095
11117TIP3    H254767   3.216   4.310   3.676  0.5167  0.4594 -1.6025
11118TIP3   OH254768   5.588   5.636  11.443 -0.0342 -0.5234  0.0075
11118TIP3    H154769   5.554   5.585  11.369 -0.2474  0.7331 -0.8001
11118TIP3    H254770   5.648   5.699  11.402  0.3874 -0.2721  0.9929
11119TIP3   OH254771   2.645   2.363   6.198  0.0381  0.4134  0.0601
11119TIP3    H154772   2.575   2.381   6.261  0.8588  0.4851  0.9854
11119TIP3    H254773   2.619   2.282   6.156 -0.9758  0.8396 -0.1664
11120TIP3   OH254774   4.677   5.241  14.030 -0.0239 -0.1118 -0.6361
11120TIP3    H154775   4.705   5.230  13.939  0.0270 -1.4997 -0.4743
11120TIP3    H254776   4.626   5.162  14.049 -0.0440  0.1636  0.5323
11121TIP3   OH254777   6.637   2.798   6.015 -0.2805 -0.1469  0.1830
11121TIP3    H154778   6.545   2.815   6.032  0.2867  2.7864  0.9020
11121TIP3    H254779   6.641   2.780   5.921 -1.6562 -1.1463  0.2939
11122TIP3   OH254780   2.858   6.522   2.759 -0.2274 -0.1147 -0.3085
11122TIP3    H154781   2.903   6.600   2.792 -1.2062 -0.0324  0.9130
11122TIP3    H254782   2.855   6.534   2.664  0.1970  1.0317 -0.1913
11123TIP3   OH254783   1.795   0.110   6.074 -0.7879 -1.1249 -0.5338
11123TIP3    H154784   1.772   0.188   6.124  1.0090 -0.4377 -0.7026
11123TIP3    H254785   1.714   0.085   6.029 -1.3231  0.8552 -0.7483
11124TIP3   OH254786   4.535   3.696  11.138  0.1283 -0.1656 -0.1931
11124TIP3    H154787   4.591   3.719  11.065 -0.8023 -0.9421 -1.1791
11124TIP3    H254788   4.594   3.689  11.213  0.9280  1.8499 -0.5702
11125TIP3   OH254789   5.741   2.590  14.722  0.3142 -0.3174 -0.5874
11125TIP3    H154790   5.646   2.599  14.725  0.4775  1.9790  2.4651
11125TIP3    H254791   5.771   2.668  14.675  0.7383 -0.0982  0.0370
11126TIP3   OH254792   0.225   2.356  13.939  0.2569  0.1938  0.1741
11126TIP3    H154793   0.196   2.311  14.018  1.8225 -0.1943  0.5608
11126TIP3    H254794   0.150   2.411  13.914 -0.8222 -0.8381  1.0246
11127TIP3   OH254795   5.005   0.783  15.252 -0.1475  0.2707 -0.0625
11127TIP3    H154796   5.008   0.870  15.294  2.4898  0.4689 -0.5341
11127TIP3    H254797   5.037   0.798  15.163 -1.5938 -0.8974 -0.8223
11128TIP3   OH254798   2.642   2.766   5.167 -0.1308  0.2522 -0.4906
11128TIP3    H154799   2.670   2.845   5.121 -1.3765  1.2413  0.3825
11128TIP3    H254800   2.706   2.700   5.141  2.1859  2.0319  0.3395
11129TIP3   OH254801   3.997   6.389  16.146  0.3235  0.7164  0.2466
11129TIP3    H154802   3.916   6.339  16.157  0.6997 -0.0092 -0.1822
11129TIP3    H254803   4.027   6.405  16.236 -0.4730  1.3031  0.4171
11130TIP3   OH254804   3.647   2.893  13.263 -0.3601  0.4235 -0.2182
11130TIP3    H154805   3.686   2.962  13.210 -1.5851  0.8136 -0.6674
11130TIP3    H254806   3.721   2.842  13.296  0.5135  1.3433 -0.7110
11131TIP3   OH254807   0.000   5.749   0.273 -0.3564 -0.0504  0.1693
11131TIP3    H154808   0.038   5.831   0.302 -2.6009  1.1022  0.0816
11131TIP3    H254809   0.031   5.739   0.183 -1.3309  1.6001 -0.3961
11132TIP3   OH254810   1.428   3.775  14.500 -0.3857 -0.9170 -0.5710
11132TIP3    H154811   1.443   3.716  14.574 -3.1091 -1.4554 -0.3624
11132TIP3    H254812   1.497   3.753  14.438  1.8477 -0.6307  1.6235
11133TIP3   OH254813   5.550   3.200  10.623 -0.2238 -0.4688 -0.2356
11133TIP3    H154814   5.543   3.296  10.616 -1.2358 -0.6199 -1.8486
11133TIP3    H254815   5.546   3.169  10.533  0.9315 -2.0171  0.1951
11134TIP3   OH254816   0.845   3.084  11.396  0.1303  0.2297 -0.1636
11134TIP3    H154817   0.754   3.061  11.415 -0.3752  0.9899 -1.5869
11134TIP3    H254818   0.861   3.051  11.308  1.0069  0.7608 -0.2170
11135TIP3   OH254819   0.639   0.816   5.908 -0.4670  0.6862 -0.6096
11135TIP3    H154820   0.668   0.725   5.904  0.3607  0.9853 -2.5929
11135TIP3    H254821   0.711   0.864   5.948 -0.5229  0.6081 -0.4159
11136TIP3   OH254822   3.153   5.933   1.478 -0.4258 -0.2847  0.3318
11136TIP3    H154823   3.225   5.904   1.535 -0.5095 -0.3578  0.4017
11136TIP3    H254824   3.127   5.854   1.431 -0.3307 -0.2149  0.1620
11137TIP3   OH254825   0.653   1.085  13.836 -0.5506 -0.6986  0.2042
11137TIP3    H154826   0.666   0.999  13.875  0.1923 -0.5156  0.3776
11137TIP3    H254827   0.562   1.107  13.856 -1.3368 -2.2107 -1.3798
11138TIP3   OH254828   0.736   2.069   2.237 -0.4272 -0.1159  0.0793
11138TIP3    H154829   0.667   2.085   2.172  0.2707 -0.5592 -0.7845
11138TIP3    H254830   0.752   2.156   2.275  0.7995  0.6477 -2.0206
11139TIP3   OH254831   0.617   5.077  16.232 -0.4286  0.2575 -0.4114
11139TIP3    H154832   0.537   5.127  16.249  0.4355  1.6408 -0.3333
11139TIP3    H254833   0.685   5.143  16.221  0.9047 -0.9112  0.4806
11140TIP3   OH254834   4.535   3.013  11.981 -0.2149  0.0031 -0.3607
11140TIP3    H154835   4.455   2.961  11.974  1.1377 -2.7964  2.3391
11140TIP3    H254836   4.597   2.968  11.923 -0.0334  1.0159 -0.9825
11141TIP3   OH254837   6.083   4.825  15.328 -0.1743  0.6025  0.5200
11141TIP3    H154838   6.000   4.777  15.331 -0.2742  0.5745 -1.4867
11141TIP3    H254839   6.146   4.763  15.291  0.2135  1.3111 -0.0410
11142TIP3   OH254840   4.457   0.401  15.486  0.2890  0.1958  0.3922
11142TIP3    H154841   4.467   0.495  15.473  2.3593 -0.0045  0.2498
11142TIP3    H254842   4.540   0.363  15.458 -1.3423 -1.9748 -1.9750
11143TIP3   OH254843   4.331   4.921  11.440 -0.5289 -0.3856 -0.5412
11143TIP3    H154844   4.279   4.971  11.503 -0.0524 -1.4755  0.7726
11143TIP3    H254845   4.397   4.876  11.493 -0.3449 -1.6495 -1.7743
11144TIP3   OH254846   3.995   5.593   1.243  0.3374 -0.0642  0.4518
11144TIP3    H154847   4.015   5.659   1.178  1.0112  0.0205  0.7455
11144TIP3    H254848   4.074   5.586   1.296  0.6557 -1.7947 -0.1700
11145TIP3   OH254849   2.203   5.928   4.273 -0.9689 -0.0900 -0.9141
11145TIP3    H154850   2.209   5.887   4.360  1.5634 -0.6941 -1.2800
11145TIP3    H254851   2.207   6.022   4.291 -1.2713 -0.1795 -0.3470
11146TIP3   OH254852   5.492   3.097  11.202 -0.9521  0.1857 -0.0191
11146TIP3    H154853   5.559   3.136  11.258 -0.2976 -2.2071  1.0218
11146TIP3    H254854   5.494   3.150  11.122 -1.9241  3.7426  2.0921
11147TIP3   OH254855   0.552   6.086   0.702  0.4640  0.0868  1.0766
11147TIP3    H154856   0.493   6.162   0.703 -0.0066 -0.2491  0.1090
11147TIP3    H254857   0.512   6.026   0.639 -0.6631 -2.1915  3.7864
11148TIP3   OH254858   3.616   3.900   1.072 -0.6171 -0.4098 -0.0795
11148TIP3    H154859   3.651   3.947   1.148 -0.5977 -1.1286  0.3647
11148TIP3    H254860   3.683   3.910   1.004  0.3129 -1.4588  0.6436
11149TIP3   OH254861   3.269   2.025   3.688  0.3688  0.6417  0.9495
11149TIP3    H154862   3.227   2.107   3.716 -1.4461  1.2280 -2.8599
11149TIP3    H254863   3.354   2.052   3.654 -0.8391  1.3771 -1.7704
11150TIP3   OH254864   1.862   2.192  11.395 -0.4636  0.1839 -0.3197
11150TIP3    H154865   1.824   2.277  11.418 -0.4837 -0.3463  1.8478
11150TIP3    H254866   1.944   2.188  11.445  0.8475 -0.0476 -2.3909
11151TIP3   OH254867   3.832   4.443   4.235 -0.2222 -0.3946  0.1170
11151TIP3    H154868   3.774   4.376   4.198 -0.7295  0.0594  0.0873
11151TIP3    H254869   3.897   4.393   4.284  1.3656 -1.1563 -2.5401
11152TIP3   OH254870   0.248   6.417  14.510 -0.0808  0.0010 -0.3021
11152TIP3    H154871   0.238   6.420  14.605  0.0796  0.7566 -0.3060
11152TIP3    H254872   0.176   6.361  14.480 -0.8618  0.7367  0.1639
11153TIP3   OH254873   5.880   4.311  11.470  0.0977  0.3972 -0.6312
11153TIP3    H154874   5.959   4.317  11.417 -0.8577  1.3169 -2.0449
11153TIP3    H254875   5.885   4.226  11.512  0.6354 -0.6504 -2.6875
11154TIP3   OH254876   6.269   6.716   6.699  0.4307  0.2736  0.5265
11154TIP3    H154877   6.351   6.676   6.672  1.5691  1.1233  2.4952
11154TIP3    H254878   6.229   6.748   6.618  0.2665 -3.1705 -0.9437
11155TIP3   OH254879   3.191   5.570  16.315  0.0863 -0.3927  0.6057
11155TIP3    H154880   3.225   5.649  16.357  1.2521  1.0229 -2.6026
11155TIP3    H254881   3.120   5.541  16.372 -0.4249  2.9867  1.9716
11156TIP3   OH254882   5.166   6.482  12.951 -0.1656 -0.2969  0.3512
11156TIP3    H154883   5.123   6.405  12.989  0.4082 -0.3331  0.9452
11156TIP3    H254884   5.093   6.538  12.923 -0.5929 -1.2981 -0.6183
11157TIP3   OH254885   1.578   5.230   1.931  0.5084 -0.1717 -0.2532
11157TIP3    H154886   1.553   5.242   2.022  1.2641 -0.6424  0.0237
11157TIP3    H254887   1.576   5.135   1.918 -0.0183 -0.0834 -0.8507
11158TIP3   OH254888   1.108   2.037  15.268 -0.1643  0.3936 -0.2989
11158TIP3    H154889   1.021   2.056  15.234 -1.0029 -2.0778  0.2273
11158TIP3    H254890   1.123   2.104  15.334 -1.4206  1.1942 -0.7778
11159TIP3   OH254891   4.653   2.861  16.491  0.0522 -0.0837  0.2151
11159TIP3    H154892   4.745   2.837  16.487  0.5159  1.6203 -0.0092
11159TIP3    H254893   4.632   2.889  16.402 -0.8490 -0.9359  0.1342
11160TIP3   OH254894   0.201   4.883  14.572  0.4974  0.3196 -0.2576
11160TIP3    H154895   0.245   4.935  14.505  0.6645  0.4798 -0.0236
11160TIP3    H254896   0.108   4.897  14.557  0.5439  0.7184 -0.1689
11161TIP3   OH254897   1.136   2.604   5.025  0.0621 -0.6824 -0.1034
11161TIP3    H154898   1.199   2.598   4.953  0.0932  0.2083 -0.1662
11161TIP3    H254899   1.064   2.656   4.989 -0.2413 -0.8237  0.2949
11162TIP3   OH254900   5.763   6.780  11.411 -0.5943  0.0510 -0.1750
11162TIP3    H154901   5.698   6.795  11.343 -0.4907 -2.3287 -0.8950
11162TIP3    H254902   5.841   6.751  11.363  0.3267  0.8250  0.8087
11163TIP3   OH254903   4.334   6.433   0.201  0.4205 -0.4368  0.2782
11163TIP3    H154904   4.353   6.396   0.287  0.7253  0.6251  0.6970
11163TIP3    H254905   4.419   6.467   0.171  0.0266  0.5400  0.2415
11164TIP3   OH254906   1.715   6.276  15.092 -0.2042  0.2120 -0.1326
11164TIP3    H154907   1.709   6.199  15.149 -1.2041  0.1079 -0.3688
11164TIP3    H254908   1.805   6.275  15.061  0.1907 -0.0777  0.9695
11165TIP3   OH254909   2.047   0.220   5.963 -0.1881  0.1210  0.2706
11165TIP3    H154910   1.978   0.232   5.898  0.0520  2.7854  0.3911
11165TIP3    H254911   2.127   0.214   5.911  0.1109  3.1506  0.2212
11166TIP3   OH254912   1.546   1.833   2.669  0.2870  0.7014  0.7278
11166TIP3    H154913   1.638   1.825   2.645  0.4835 -1.1036  1.8572
11166TIP3    H254914   1.544   1.811   2.762 -1.2309  1.1959  0.8371
11167TIP3   OH254915   5.690   5.221   2.378  0.3561 -0.1179 -0.4688
11167TIP3    H154916   5.703   5.300   2.430  1.2628  0.7883 -2.0039
11167TIP3    H254917   5.772   5.211   2.328  0.1276 -1.8286 -0.5613
11168TIP3   OH254918   6.751   0.570   2.812  0.2860  0.5711 -0.2650
11168TIP3    H154919   6.659   0.596   2.805 -0.3533 -1.5335 -0.2037
11168TIP3    H254920   6.754   0.479   2.781  2.0821  0.0788  1.1458
11169TIP3   OH254921   0.028   3.368   3.854 -0.3350  0.0527  0.1199
11169TIP3    H154922  -0.009   3.280   3.844  0.4038 -0.2712  0.1407
11169TIP3    H254923  -0.026   3.409   3.921 -0.2985 -0.6165  0.5725
11170TIP3   OH254924   2.646   5.144   3.395  0.3807  0.0155 -0.2358
11170TIP3    H154925   2.659   5.053   3.422 -1.5117 -0.5876 -1.1920
11170TIP3    H254926   2.722   5.190   3.430  0.8953 -1.7396  1.1092
11171TIP3   OH254927   1.906   5.831  11.609  0.3348  0.1180  0.3483
11171TIP3    H154928   1.892   5.911  11.660  0.4658  0.2312  0.2069
11171TIP3    H254929   1.861   5.763  11.659  0.4715  0.2269  0.6211
11172TIP3   OH254930   6.356   0.237  14.907  0.1622  0.9481  0.7310
11172TIP3    H154931   6.328   0.245  14.998 -0.3511 -0.9953  0.7778
11172TIP3    H254932   6.408   0.156  14.905 -2.8026 -1.0880 -1.3481
11173TIP3   OH254933   2.972   2.859  15.129 -0.3530  0.4279  0.4359
11173TIP3    H154934   3.064   2.839  15.113 -0.5236 -1.4906  1.5668
11173TIP3    H254935   2.926   2.817  15.056 -0.4100  0.6346  0.3506
11174TIP3   OH254936   1.145   0.693  13.017 -0.3931 -0.0230 -0.0720
11174TIP3    H154937   1.084   0.766  13.030 -0.6758  0.1651 -2.1470
11174TIP3    H254938   1.204   0.723  12.948  2.0749 -0.2359  1.8247
11175TIP3   OH254939   4.603   5.630  10.879 -0.0377  0.7377 -0.2725
11175TIP3    H154940   4.638   5.578  10.952 -0.4425 -0.1995 -0.7266
11175TIP3    H254941   4.586   5.565  10.810 -0.2117  1.5318 -0.9874
11176TIP3   OH254942   1.182   2.891   3.508  0.2768  0.1512  0.0225
11176TIP3    H154943   1.207   2.920   3.421 -1.5531 -1.0120 -0.9708
11176TIP3    H254944   1.121   2.958   3.540  2.1089  1.3769  1.1220
11177TIP3   OH254945   1.426   4.438  11.627  0.1875  0.5887  0.2736
11177TIP3    H154946   1.333   4.415  11.624  0.3534 -0.0828 -0.0885
11177TIP3    H254947   1.467   4.363  11.669  0.5452  0.9677  0.6054
11178TIP3   OH254948   1.828   5.458  15.971 -0.3903  0.3558  0.2009
11178TIP3    H154949   1.842   5.458  15.877 -0.8919 -0.2982  0.1222
11178TIP3    H254950   1.738   5.489  15.982  0.2392  2.1911  0.5750
11179TIP3   OH254951   2.873   4.710  15.567 -0.2523 -0.2697 -0.1968
11179TIP3    H154952   2.890   4.675  15.479 -1.3487 -0.9894 -0.1487
11179TIP3    H254953   2.790   4.670  15.593  1.1237 -1.8935  2.0906
11180TIP3   OH254954   3.769   3.592  16.937 -0.4862 -0.3346 -0.0573
11180TIP3    H154955   3.684   3.552  16.954 -0.5983 -1.2276 -2.3912
11180TIP3    H254956   3.824   3.520  16.907  0.8735  0.3702  0.6580
11181TIP3   OH254957   2.157   3.528   4.326  0.9532 -0.3337 -0.3799
11181TIP3    H154958   2.252   3.517   4.324  1.0557  0.4702 -2.3734
11181TIP3    H254959   2.133   3.543   4.235 -0.7912  1.8247  0.3583
11182TIP3   OH254960   2.388   0.103  13.273 -0.1807  0.0859  0.0745
11182TIP3    H154961   2.331   0.028  13.292 -0.3590 -0.4437 -2.2155
11182TIP3    H254962   2.369   0.166  13.342  0.1734 -2.0421  2.2693
11183TIP3   OH254963   1.431   6.575  11.862  1.0497 -0.4697 -0.6138
11183TIP3    H154964   1.437   6.537  11.950 -0.4424 -3.1458 -1.5739
11183TIP3    H254965   1.511   6.546  11.818  1.1177 -0.3365 -0.5784
11184TIP3   OH254966   2.688   1.354  12.475  0.0750 -0.1630  0.5854
11184TIP3    H154967   2.750   1.297  12.521 -1.3463 -2.3645 -0.0772
11184TIP3    H254968   2.601   1.320  12.500 -0.7992  0.9399 -0.8018
11185TIP3   OH254969   6.485   4.207  11.258 -0.5636  0.7291 -0.5485
11185TIP3    H154970   6.455   4.229  11.170  0.2065 -0.2623 -1.0756
11185TIP3    H254971   6.539   4.129  11.247 -0.5477  0.5107  0.8233
11186TIP3   OH254972   5.666   3.182   3.749  0.0015  0.0844 -0.0545
11186TIP3    H154973   5.610   3.158   3.823  1.6117  0.6268  1.4020
11186TIP3    H254974   5.715   3.102   3.730  1.4884  0.6462  1.2496
11187TIP3   OH254975   5.161   6.118  10.612 -0.3022 -0.5390 -0.0398
11187TIP3    H154976   5.175   6.127  10.517  0.2951 -0.8254  0.0178
11187TIP3    H254977   5.072   6.151  10.626 -0.1157  0.2327 -0.5876
11188TIP3   OH254978   5.628   2.396  14.938 -0.3396  0.2647  0.4305
11188TIP3    H154979   5.688   2.382  14.864  0.4714 -0.5944  1.2196
11188TIP3    H254980   5.686   2.404  15.014 -1.1964 -2.8099  1.5768
11189TIP3   OH254981   1.043   5.856   2.868 -0.4853  0.0470  0.2002
11189TIP3    H154982   1.028   5.762   2.878 -2.6285  0.3544  0.2843
11189TIP3    H254983   0.993   5.880   2.790 -0.0625  1.1575  0.2588
11190TIP3   OH254984   2.595   5.208   0.455  0.5064 -0.2091  0.0166
11190TIP3    H154985   2.535   5.282   0.460 -0.3884 -0.9335  0.2169
11190TIP3    H254986   2.672   5.235   0.506  0.4363  0.7961 -0.4023
11191TIP3   OH254987   3.745   5.923   0.628  0.3471  0.3424  0.0389
11191TIP3    H154988   3.828   5.944   0.670  0.7190  0.3152 -0.6797
11191TIP3    H254989   3.696   5.874   0.695  1.7870 -1.6469 -0.2566
11192TIP3   OH254990   0.482   0.510   4.253 -0.0865 -0.0302 -0.4400
11192TIP3    H154991   0.528   0.574   4.307  0.3113 -0.2686 -0.4908
11192TIP3    H254992   0.469   0.554   4.169 -0.5990  0.2983 -0.1925
11193TIP3   OH254993   0.971   6.620  16.135 -0.4961 -0.6994 -0.1321
11193TIP3    H154994   0.941   6.585  16.219 -0.3317  0.8174  0.5916
11193TIP3    H254995   0.894   6.662  16.098 -0.2234 -0.0914 -0.0333
11194TIP3   OH254996   4.422   1.359   3.991  0.2569  0.0052  0.6318
11194TIP3    H154997   4.343   1.413   3.999  1.1251  1.3537  0.5070
11194TIP3    H254998   4.448   1.368   3.900  1.9194  1.6387  1.2145
11195TIP3   OH254999   5.317   3.787   0.851 -0.1981 -0.9030 -0.6570
11195TIP3    H155000   5.300   3.708   0.902  0.4504 -1.1933 -0.8807
11195TIP3    H255001   5.397   3.767   0.802  1.8463  0.9871  1.6467
11196TIP3   OH255002   5.254   4.969   0.928 -0.0198 -0.6586 -0.5332
11196TIP3    H155003   5.290   4.998   1.012  0.0749 -0.2490 -0.7179
11196TIP3    H255004   5.254   4.873   0.934 -0.0041 -0.6308 -0.0697
11197TIP3   OH255005   3.168   3.202  13.484 -0.1924 -0.3888  0.1449
11197TIP3    H155006   3.077   3.187  13.509 -0.5186 -1.2475 -1.4241
11197TIP3    H255007   3.192   3.284  13.527 -1.7773 -0.0237  0.3806
11198TIP3   OH255008   2.611   2.104   6.360 -0.1017  0.6924 -0.0097
11198TIP3    H155009   2.698   2.143   6.356 -0.6471  1.8854 -2.4968
11198TIP3    H255010   2.608   2.059   6.444  2.1159  2.4703  1.1187
11199TIP3   OH255011   6.008   4.389   2.113 -0.3680  0.1987  0.1972
11199TIP3    H155012   5.981   4.464   2.166 -2.0816  0.5271 -1.0670
11199TIP3    H255013   6.083   4.421   2.063 -2.1610  1.7916 -1.7070
11200TIP3   OH255014   1.903   3.223  11.991 -0.6565 -0.7222 -0.4550
11200TIP3    H155015   1.836   3.258  11.931  0.8452 -0.2514 -1.9379
11200TIP3    H255016   1.857   3.154  12.040 -2.3671 -0.0454 -1.0109
11201TIP3   OH255017   5.508   1.697   5.922  0.2860 -0.0583 -0.0676
11201TIP3    H155018   5.469   1.631   5.865 -0.5444  0.0327  0.3681
11201TIP3    H255019   5.471   1.679   6.008  0.2055  0.8369  0.1004
11202TIP3   OH255020   6.252   6.120  13.454 -0.2307 -0.2623  0.1099
11202TIP3    H155021   6.182   6.185  13.450 -1.1075 -1.0614  1.5653
11202TIP3    H255022   6.228   6.055  13.388 -1.2757 -0.8877  1.0689
11203TIP3   OH255023   2.961   0.077   2.640 -0.2375 -0.0409 -0.0379
11203TIP3    H155024   2.877   0.046   2.607 -0.8019  3.1733 -1.9855
11203TIP3    H255025   3.000  -0.001   2.682 -2.4529 -2.6766 -2.4339
11204TIP3   OH255026   5.689   6.491   1.588  0.7734 -0.8565 -0.1769
11204TIP3    H155027   5.636   6.566   1.560  0.4073 -0.5793  1.1723
11204TIP3    H255028   5.636   6.414   1.567  2.2448 -1.0438 -4.0802
11205TIP3   OH255029   5.289   0.239  12.411 -0.4352  0.4607  0.6091
11205TIP3    H155030   5.382   0.216  12.416 -0.8350 -1.1094  1.2991
11205TIP3    H255031   5.259   0.237  12.501 -0.8062  2.6551  0.6017
11206TIP3   OH255032   0.324   4.097   0.103 -0.1581  1.2610 -0.1064
11206TIP3    H155033   0.234   4.125   0.088 -0.1955  0.4958 -1.4004
11206TIP3    H255034   0.378   4.167   0.067 -0.2179  1.6765  0.5876
11207TIP3   OH255035   1.186   3.260  11.347  0.4010 -0.5016 -0.3065
11207TIP3    H155036   1.123   3.332  11.338  1.0672  0.1901  0.4439
11207TIP3    H255037   1.220   3.269  11.436  1.4185 -0.9795 -0.6356
11208TIP3   OH255038   1.647   5.044  14.415 -0.4727 -0.0158  0.4157
11208TIP3    H155039   1.685   5.038  14.327  0.4919  0.9956  0.7364
11208TIP3    H255040   1.569   5.098  14.403  1.5976  3.3438  0.6641
11209TIP3   OH255041   2.522   0.987   1.088 -0.5002  0.0469 -0.3624
11209TIP3    H155042   2.462   0.916   1.110  0.5099 -1.5133 -2.2860
11209TIP3    H255043   2.602   0.967   1.137 -0.1588 -0.2621 -1.0287
11210TIP3   OH255044   5.354   2.779  12.562 -0.3579  0.0886 -0.0850
11210TIP3    H155045   5.339   2.773  12.468 -0.2869 -1.3512 -0.0365
11210TIP3    H255046   5.427   2.719  12.579  0.7996  1.6456  0.6610
11211TIP3   OH255047   4.820   1.701  14.596 -0.3918  0.3398  0.7315
11211TIP3    H155048   4.779   1.751  14.525 -1.1475 -0.4908  0.5553
11211TIP3    H255049   4.778   1.734  14.676  0.2558  1.0782  0.7766
11212TIP3   OH255050   2.761   1.077  13.931 -0.2504  0.3000 -0.2290
11212TIP3    H155051   2.679   1.091  13.885  0.0317 -1.8603 -1.5052
11212TIP3    H255052   2.743   1.002  13.989  0.0793  1.5069  1.5182
11213TIP3   OH255053   3.431   0.821   5.692 -0.2092 -0.1997 -0.5072
11213TIP3    H155054   3.351   0.827   5.639 -0.7968  0.7837  0.4654
11213TIP3    H255055   3.403   0.841   5.781  1.0999  0.0084 -0.1225
11214TIP3   OH255056   2.199   6.492   0.493  0.0384  0.3054 -0.2820
11214TIP3    H155057   2.140   6.554   0.535  0.4783 -0.1034  0.9755
11214TIP3    H255058   2.175   6.407   0.529 -2.5595 -0.8677 -4.0990
11215TIP3   OH255059   2.823   2.009   3.082 -0.2694 -0.1069 -0.4660
11215TIP3    H155060   2.737   2.051   3.082  0.6285  1.8645 -1.4166
11215TIP3    H255061   2.867   2.044   3.159  0.5497  0.8371 -1.3526
11216TIP3   OH255062   2.757   3.306  15.600  0.1922  0.2500 -0.2278
11216TIP3    H155063   2.811   3.251  15.543 -0.3799 -0.8488  0.2736
11216TIP3    H255064   2.778   3.396  15.573  0.9522 -0.2100 -1.2263
11217TIP3   OH255065   2.944   2.329  14.335 -0.3892 -0.4789  0.4216
11217TIP3    H155066   2.935   2.249  14.283 -0.5917 -0.8075  0.9463
11217TIP3    H255067   2.871   2.324  14.398 -0.9317  0.5625 -0.1135
11218TIP3   OH255068   4.483   2.131   3.196  0.1356 -0.0624  0.2956
11218TIP3    H155069   4.531   2.087   3.125 -0.2387 -0.0064  0.0064
11218TIP3    H255070   4.478   2.065   3.265  0.3067 -0.1937  0.1862
11219TIP3   OH255071   2.876   6.720  12.357  0.0243  0.1713  0.8596
11219TIP3    H155072   2.858   6.786  12.424  0.1131  0.9341  0.1527
11219TIP3    H255073   2.972   6.719  12.350  0.1454 -1.3407  2.1234
11220TIP3   OH255074   3.922   2.856   2.995  0.4090 -0.4641  0.2604
11220TIP3    H155075   3.855   2.824   3.056 -0.4873  0.0818 -0.4203
11220TIP3    H255076   3.961   2.931   3.040 -1.1999  0.8134 -0.3553
11221TIP3   OH255077   5.258   3.809  17.005 -0.1288 -0.4576 -0.1388
11221TIP3    H155078   5.193   3.875  16.980  0.3167 -0.6116 -1.7706
11221TIP3    H255079   5.208   3.740  17.048 -0.8036  0.2222  0.1758
11222TIP3   OH255080   2.747   1.580  12.693  0.8195 -0.6853 -0.2342
11222TIP3    H155081   2.712   1.519  12.628 -0.5284 -1.0418  0.7756
11222TIP3    H255082   2.786   1.523  12.760 -1.2022 -0.5485  1.1463
11223TIP3   OH255083   2.333   1.080   2.580 -0.0095  0.5600 -0.4977
11223TIP3    H155084   2.362   1.126   2.659  1.1841  1.0319 -1.1890
11223TIP3    H255085   2.241   1.060   2.597  0.4518 -0.2315  1.4269
11224TIP3   OH255086   3.384   4.292  13.963  0.3766 -0.4009  0.2654
11224TIP3    H155087   3.315   4.267  13.902 -0.1284  1.6734 -0.0585
11224TIP3    H255088   3.427   4.209  13.985 -1.4586 -1.5872 -0.4212
11225TIP3   OH255089   0.112   5.961   5.948 -0.1334 -0.3187 -0.5226
11225TIP3    H155090   0.108   5.867   5.968 -4.8726 -1.1889 -3.9143
11225TIP3    H255091   0.169   5.967   5.872  2.4527  0.1968  1.3009
11226TIP3   OH255092   4.135   5.089  14.934 -0.1957  0.1021 -0.2663
11226TIP3    H155093   4.107   5.119  14.848  0.4040 -1.4279 -1.0321
11226TIP3    H255094   4.193   5.158  14.966 -0.4107  0.6815 -1.0963
11227TIP3   OH255095   1.105   6.330  16.506 -0.0204  0.3689 -0.0974
11227TIP3    H155096   1.130   6.422  16.504  1.3512  0.1051  2.0497
11227TIP3    H255097   1.103   6.307  16.598  0.2670 -1.9163 -0.5953
11228TIP3   OH255098   0.971   2.769   4.084  0.7422  0.3216  0.9933
11228TIP3    H155099   0.973   2.674   4.089  0.4166  0.3055  0.8501
11228TIP3    H255100   1.055   2.797   4.120  1.2004 -0.0517  0.2541
11229TIP3   OH255101   6.577   1.955   4.905 -0.6461  0.0413  0.3790
11229TIP3    H155102   6.608   1.907   4.981 -0.6455 -0.2203  0.2118
11229TIP3    H255103   6.495   1.912   4.881 -0.0235 -0.6728 -0.5264
11230TIP3   OH255104   1.175   4.281  15.814  0.6626  0.4725 -0.4383
11230TIP3    H155105   1.157   4.235  15.733 -0.0004  0.7103 -0.4293
11230TIP3    H255106   1.255   4.240  15.848  0.1318 -0.6141 -0.4643
11231TIP3   OH255107   2.322   4.957  11.242  0.3502  0.3125 -0.2231
11231TIP3    H155108   2.308   5.046  11.274 -1.0235  0.2292 -0.5119
11231TIP3    H255109   2.238   4.914  11.255  0.4366 -0.3994 -1.7750
11232TIP3   OH255110   4.565   6.562   0.107  0.4984 -0.3323  1.1489
11232TIP3    H155111   4.623   6.635   0.088  0.2761  0.3606  2.8872
11232TIP3    H255112   4.506   6.558   0.032  2.1689 -0.4713 -0.2162
11233TIP3   OH255113   3.387   4.182   2.375  0.3369  0.5301  0.0560
11233TIP3    H155114   3.320   4.228   2.425 -0.4654 -0.2394 -0.2961
11233TIP3    H255115   3.339   4.129   2.312  1.2873  0.2858 -0.4947
11234TIP3   OH255116   1.902   5.545   2.565  0.4024 -0.2667 -0.0259
11234TIP3    H155117   1.903   5.586   2.479  0.8152 -2.5318 -1.1705
11234TIP3    H255118   1.989   5.563   2.600  0.5891 -0.1938 -0.5166
11235TIP3   OH255119   2.912   2.755  10.880  0.0907  0.1427 -0.1071
11235TIP3    H155120   2.931   2.759  10.974 -0.1406  1.0560 -0.0833
11235TIP3    H255121   2.972   2.689  10.846 -0.9053 -1.3565  0.9241
11236TIP3   OH255122   0.622   0.619   0.135  0.3433  0.1135 -0.3967
11236TIP3    H155123   0.582   0.547   0.183  0.7535 -0.4346 -0.8549
11236TIP3    H255124   0.703   0.638   0.182  0.4273  0.0095 -0.4980
11237TIP3   OH255125   1.305   3.818   5.198  0.0275 -0.5098 -0.2341
11237TIP3    H155126   1.340   3.902   5.168 -1.1270 -0.4546 -1.5495
11237TIP3    H255127   1.232   3.841   5.255 -0.3161 -0.6171 -0.6291
11238TIP3   OH255128   3.367   0.150  12.239 -0.3937 -0.6856  0.7211
11238TIP3    H155129   3.405   0.192  12.162 -4.0126 -0.7508 -1.2823
11238TIP3    H255130   3.414   0.067  12.246 -0.6800 -1.1879 -2.1567
11239TIP3   OH255131   3.604   2.609   2.487 -0.3908 -0.0430  0.0965
11239TIP3    H155132   3.526   2.664   2.485 -0.3517  0.4040  3.6820
11239TIP3    H255133   3.677   2.670   2.472 -0.5558  0.2546  0.4776
11240TIP3   OH255134   2.694   1.807   2.289 -0.1361  0.1390  0.0777
11240TIP3    H155135   2.693   1.814   2.193 -0.5623  0.0964  0.0769
11240TIP3    H255136   2.679   1.714   2.306  0.1613  0.1098  0.1839
11241TIP3   OH255137   1.442   3.636   3.439  0.1916 -0.8838 -0.0530
11241TIP3    H155138   1.512   3.696   3.463 -0.6678 -0.0535  0.4620
11241TIP3    H255139   1.471   3.597   3.356  0.3907  0.8982 -0.8735
11242TIP3   OH255140   5.467   5.613   5.773  0.1685 -0.2261 -0.0006
11242TIP3    H155141   5.426   5.554   5.836 -0.3992  1.7834  1.6286
11242TIP3    H255142   5.484   5.693   5.823  0.3395  1.2166 -2.2328
11243TIP3   OH255143   6.398   4.300   1.215 -0.2147 -0.4222  1.0571
11243TIP3    H155144   6.397   4.322   1.122  2.8946 -0.4718  0.9176
11243TIP3    H255145   6.391   4.204   1.217 -0.3500 -0.4156  0.8792
11244TIP3   OH255146   3.910   2.575   1.869  0.4778 -0.0310  0.1538
11244TIP3    H155147   3.858   2.566   1.949  1.0748  0.7850  0.6496
11244TIP3    H255148   3.880   2.656   1.829 -2.1561 -1.9807 -2.2504
11245TIP3   OH255149   0.674   0.364   5.087 -0.1693 -0.1140 -0.1633
11245TIP3    H155150   0.625   0.398   5.162  0.1363  0.1167 -0.0665
11245TIP3    H255151   0.739   0.431   5.068  0.8311 -0.8896  0.4007
11246TIP3   OH255152   5.739   2.944   2.188 -0.0793 -0.4059 -0.3253
11246TIP3    H155153   5.736   3.026   2.237 -1.9334 -1.0354  0.7277
11246TIP3    H255154   5.799   2.888   2.238  1.0256  0.2042 -0.9339
11247TIP3   OH255155   2.505   0.712  17.148  0.6770  0.0610 -0.1957
11247TIP3    H155156   2.599   0.694  17.151  0.6316 -0.2269 -0.4351
11247TIP3    H255157   2.472   0.657  17.076 -0.1897 -2.2175  1.8109
11248TIP3   OH255158   0.878   6.477   6.329 -0.0156 -0.2624 -0.3250
11248TIP3    H155159   0.960   6.523   6.342 -1.5080  2.9417 -1.3141
11248TIP3    H255160   0.811   6.536   6.363 -2.0180 -2.2648 -0.5335
11249TIP3   OH255161   4.099   4.837  15.251 -0.7012  0.3003  0.5208
11249TIP3    H155162   4.009   4.808  15.269 -0.3311 -1.0566  0.2405
11249TIP3    H255163   4.114   4.812  15.160 -0.0187  0.5011  0.5781
11250TIP3   OH255164   0.286   6.666  12.856 -0.1911  0.0807  0.0125
11250TIP3    H155165   0.199   6.669  12.894 -0.3649 -2.2899 -0.0375
11250TIP3    H255166   0.308   6.573  12.854  2.0741  0.5605 -0.5945
11251TIP3   OH255167   2.937   0.717  15.392 -0.1783 -0.4285 -0.4273
11251TIP3    H155168   2.988   0.783  15.440  1.0802 -1.4678 -0.2794
11251TIP3    H255169   2.948   0.741  15.300 -1.1987  0.5737 -0.3177
11252TIP3   OH255170   2.515   4.514   0.427 -0.4733 -0.4471 -0.2119
11252TIP3    H155171   2.432   4.547   0.460 -1.0283 -0.7893 -1.2124
11252TIP3    H255172   2.533   4.567   0.349 -0.4912 -1.3243 -0.8257
11253TIP3   OH255173   3.307   6.457  13.451  0.2726  0.3724 -0.3030
11253TIP3    H155174   3.308   6.424  13.361  2.4679 -0.3937 -0.0527
11253TIP3    H255175   3.252   6.395  13.499 -1.1605  0.9520 -1.1259
11254TIP3   OH255176   1.684   4.589   4.174 -0.5561  0.3023  0.2298
11254TIP3    H155177   1.774   4.584   4.143 -1.0981  0.4097 -1.4800
11254TIP3    H255178   1.690   4.583   4.269  1.3791  1.9266  0.2753
11255TIP3   OH255179   1.540   3.001  14.609 -0.4050 -0.3182 -0.0418
11255TIP3    H155180   1.495   2.944  14.672 -1.8132 -0.0281 -0.7227
11255TIP3    H255181   1.623   2.957  14.592 -1.4246 -2.1745 -0.5002
11256TIP3   OH255182   6.261   0.276  12.245  0.7854  0.0591  0.8832
11256TIP3    H155183   6.349   0.282  12.210  0.5091  0.9389  0.2848
11256TIP3    H255184   6.211   0.227  12.179  0.6686  0.1783  0.8820
11257TIP3   OH255185   6.360   6.659   2.218 -0.3000  0.0669  0.3180
11257TIP3    H155186   6.295   6.671   2.148 -0.9541 -0.5072  0.8221
11257TIP3    H255187   6.350   6.568   2.245  3.6316 -1.4721 -2.4880
11258TIP3   OH255188   3.103   6.247   0.175 -0.4443  0.4943 -0.6841
11258TIP3    H155189   3.094   6.284   0.263 -0.3385  0.0738 -0.4964
11258TIP3    H255190   3.094   6.152   0.188  0.0265  0.3969 -1.0645
11259TIP3   OH255191   3.289   5.888   5.748  0.1378  0.3279 -0.2940
11259TIP3    H155192   3.227   5.911   5.817  0.7298 -0.2585  0.4469
11259TIP3    H255193   3.234   5.868   5.672 -0.5283  0.7523  0.0606
11260TIP3   OH255194   6.766   4.420   0.360  0.3264  0.0065 -0.2421
11260TIP3    H155195   6.762   4.514   0.381  1.3631 -0.2291  1.1178
11260TIP3    H255196   6.811   4.416   0.276  0.0303  0.7297 -0.4475
11261TIP3   OH255197   6.281   2.506   3.346 -0.1881  0.6198 -0.0886
11261TIP3    H155198   6.250   2.584   3.391 -0.5220  0.0977  0.6028
11261TIP3    H255199   6.318   2.539   3.264 -0.3330  1.4972  0.1869
11262TIP3   OH255200   3.198   6.241  15.383  0.6601 -0.2250 -0.1954
11262TIP3    H155201   3.222   6.324  15.343  1.6593 -0.6215 -0.4457
11262TIP3    H255202   3.155   6.191  15.312 -0.5531  0.3114  0.1323
11263TIP3   OH255203   2.020   4.443  15.753 -0.3307 -0.7991  0.0878
11263TIP3    H155204   1.954   4.378  15.779 -0.8967  0.2831  1.5213
11263TIP3    H255205   2.103   4.397  15.762 -0.8374 -2.1328 -1.5713
11264TIP3   OH255206   6.620   3.174  17.075  0.2216  0.4743  0.3027
11264TIP3    H155207   6.695   3.114  17.072  0.4888  0.7733  0.8312
11264TIP3    H255208   6.654   3.255  17.035 -0.2146  0.2060 -0.6480
11265TIP3   OH255209   5.014   1.437   2.087  0.0714 -0.0972  0.7537
11265TIP3    H155210   4.935   1.440   2.142 -1.0653 -0.9697 -0.7754
11265TIP3    H255211   4.996   1.498   2.016  0.7409 -0.3774  0.3380
11266TIP3   OH255212   2.875   0.071   0.686  0.1438  0.0035  0.2992
11266TIP3    H155213   2.860   0.112   0.772 -1.0293  2.5192 -0.9752
11266TIP3    H255214   2.969   0.051   0.685  0.5605  1.6070  1.5339
11267TIP3   OH255215   2.340   3.584   5.267  0.5337  0.4104 -0.3231
11267TIP3    H155216   2.246   3.563   5.263  0.8063 -1.1414  0.6491
11267TIP3    H255217   2.368   3.588   5.176 -0.5628  1.3874 -0.6427
11268TIP3   OH255218   2.940   3.814   0.663 -0.4871  0.3999 -0.3642
11268TIP3    H155219   2.994   3.894   0.659  0.7120 -0.4084 -0.8800
11268TIP3    H255220   2.853   3.846   0.685  0.7483  1.5368  3.8424
11269TIP3   OH255221   2.842   0.914   4.510  0.2438  0.2985 -0.0324
11269TIP3    H155222   2.932   0.896   4.536  0.0192  0.0245  0.5742
11269TIP3    H255223   2.821   0.844   4.447  1.0333  1.3926 -1.5750
11270TIP3   OH255224   1.088   6.481  13.303  0.2649 -0.0146 -0.5673
11270TIP3    H155225   1.012   6.427  13.325 -1.0059  0.6453 -2.9032
11270TIP3    H255226   1.151   6.465  13.373 -1.3076 -2.0074  0.4935
11271TIP3   OH255227   0.027   1.502   6.735 -0.7046 -0.4110  0.4842
11271TIP3    H155228  -0.033   1.440   6.778  1.3866 -2.6344  0.4072
11271TIP3    H255229   0.025   1.475   6.643 -0.0875 -0.0794  0.3747
11272TIP3   OH255230   0.322   3.691   0.341 -0.4416  0.4310  0.0692
11272TIP3    H155231   0.381   3.761   0.312  0.9749 -0.0676  1.5982
11272TIP3    H255232   0.346   3.616   0.288  0.8406  0.0425  1.1332
11273TIP3   OH255233   6.746   0.585   0.147  0.6224 -0.5550  0.3052
11273TIP3    H155234   6.833   0.556   0.120  0.4865  0.1273 -0.9305
11273TIP3    H255235   6.705   0.507   0.185  2.3132 -0.5268  2.4221
11274TIP3   OH255236   2.616   3.370  11.026  0.5978 -0.0007 -0.0831
11274TIP3    H155237   2.544   3.310  11.045  0.2226  0.7436  0.8911
11274TIP3    H255238   2.640   3.350  10.936 -0.4072 -0.6898 -0.2163
11275TIP3   OH255239   1.408   1.180  17.135  0.2088  0.3899  0.2883
11275TIP3    H155240   1.371   1.267  17.151 -0.6467  0.3156 -1.1323
11275TIP3    H255241   1.368   1.151  17.053  1.8286 -0.5988 -0.2181
11276TIP3   OH255242   1.848   3.169   1.293 -0.3028 -0.2828  0.5220
11276TIP3    H155243   1.811   3.239   1.239  2.8684  1.6620  0.5792
11276TIP3    H255244   1.829   3.089   1.245  0.3657  1.1343 -2.3250
11277TIP3   OH255245   3.325   6.394   6.126 -0.3191  0.2439  0.6031
11277TIP3    H155246   3.389   6.399   6.197 -0.2768 -0.7234  0.6446
11277TIP3    H255247   3.283   6.480   6.126  1.6479  1.2674 -0.0711
11278TIP3   OH255248   5.451   2.597  14.737 -0.2479  0.2492 -0.5912
11278TIP3    H155249   5.434   2.645  14.657 -0.8241  1.4567  0.2219
11278TIP3    H255250   5.365   2.589  14.779  0.2459  0.9152  0.5937
11279TIP3   OH255251   3.043   2.709  11.127 -0.0429  0.0605  0.7921
11279TIP3    H155252   3.063   2.655  11.203 -0.8850  0.3612  1.2322
11279TIP3    H255253   3.047   2.799  11.158  1.7718  0.3083 -0.0398
11280TIP3   OH255254   3.443   4.658  13.626 -0.8651 -0.4250 -0.2101
11280TIP3    H155255   3.445   4.748  13.657  2.3345 -0.1850 -0.7483
11280TIP3    H255256   3.355   4.646  13.591 -1.5831  2.2497  0.4702
11281TIP3   OH255257   3.920   5.983   1.954  0.4206  0.4671  0.5093
11281TIP3    H155258   3.885   5.895   1.964 -0.0919  0.7170  0.9741
11281TIP3    H255259   3.874   6.035   2.020  0.8875  1.0327  0.4001
11282TIP3   OH255260   4.335   2.804  15.509 -0.2351 -0.2857  0.4600
11282TIP3    H155261   4.342   2.874  15.574 -1.0294 -1.5825  2.0129
11282TIP3    H255262   4.341   2.849  15.425 -1.6987  1.7866  1.3735
11283TIP3   OH255263   4.688   0.258  14.556 -0.6439 -0.4503  0.1639
11283TIP3    H155264   4.736   0.193  14.505 -0.4174 -2.6900  2.9857
11283TIP3    H255265   4.747   0.279  14.629 -1.7635  1.0218  0.6943
11284TIP3   OH255266   0.622   5.656  16.029  0.3037 -0.1538  0.3576
11284TIP3    H155267   0.556   5.695  16.086 -0.0700  0.2662 -0.3501
11284TIP3    H255268   0.705   5.692  16.061  0.0157  0.7764  0.0857
11285TIP3   OH255269   3.466   1.468   2.649 -0.1703 -0.0778 -0.4372
11285TIP3    H155270   3.462   1.384   2.694 -1.3259  0.1236 -0.1417
11285TIP3    H255271   3.427   1.451   2.563 -0.4874  0.1641 -0.3465
11286TIP3   OH255272   0.121   1.483   2.360  0.4531 -0.6810  0.0736
11286TIP3    H155273   0.194   1.450   2.411 -0.5026  0.9563  2.7397
11286TIP3    H255274   0.048   1.425   2.382  0.1959 -0.3878  0.0007
11287TIP3   OH255275   4.647   2.409  14.945  0.1386 -0.2504  0.0874
11287TIP3    H155276   4.646   2.449  14.859 -0.3283  0.3965  0.3846
11287TIP3    H255277   4.559   2.424  14.979 -0.2089 -1.9437  0.0231
11288TIP3   OH255278   5.993   2.401   5.176  0.0144 -0.5519 -0.6383
11288TIP3    H155279   5.956   2.327   5.222 -2.1231  0.6060 -0.3590
11288TIP3    H255280   5.961   2.393   5.086  2.5109 -1.7056 -1.5197
11289TIP3   OH255281   3.535   3.166  16.324 -0.3062 -0.1065 -0.4008
11289TIP3    H155282   3.494   3.180  16.239 -0.4997 -1.3400 -0.5255
11289TIP3    H255283   3.624   3.137  16.303  0.3728  1.6512 -0.1445
11290TIP3   OH255284   4.458   4.951   5.945  0.0273 -1.0608  0.0764
11290TIP3    H155285   4.485   4.916   6.029  0.2614 -1.0257  0.0153
11290TIP3    H255286   4.363   4.962   5.953  0.2327  0.3308  0.8478
11291TIP3   OH255287   3.728   2.418  11.308  0.2867  0.6038  0.2625
11291TIP3    H155288   3.806   2.402  11.255  1.2470  0.2761  1.7023
11291TIP3    H255289   3.762   2.458  11.388 -0.9777  0.0395  1.1119
11292TIP3   OH255290   5.792   6.638   3.849  0.2464  0.0759  0.5215
11292TIP3    H155291   5.833   6.572   3.905  0.6583  1.3845  1.8320
11292TIP3    H255292   5.815   6.722   3.890 -0.7784  1.0093 -0.7311
11293TIP3   OH255293   6.117   3.610  14.701 -0.5189  0.2624  0.0276
11293TIP3    H155294   6.177   3.536  14.693  0.5466  1.1283 -0.2628
11293TIP3    H255295   6.124   3.636  14.793  0.1384  0.8149 -0.1651
11294TIP3   OH255296   3.877   6.728   2.055 -0.7145  0.8137 -0.2579
11294TIP3    H155297   3.957   6.731   2.003  1.2500 -0.2097  2.4453
11294TIP3    H255298   3.892   6.792   2.125 -1.6801 -0.3184  1.0333
11295TIP3   OH255299   5.152   5.653  14.786  0.4399 -0.3304 -0.0739
11295TIP3    H155300   5.241   5.628  14.761 -0.1131 -1.4514 -1.0408
11295TIP3    H255301   5.098   5.578  14.761 -0.6981  0.0710  1.0761
11296TIP3   OH255302   1.926   4.848   0.236 -0.3409  0.2044 -0.4808
11296TIP3    H155303   1.940   4.782   0.169 -0.0399  1.3499 -1.5828
11296TIP3    H255304   1.840   4.827   0.273  0.4551 -1.7833  0.3931
11297TIP3   OH255305   5.248   2.341  11.098  0.1084 -0.5063 -0.5539
11297TIP3    H155306   5.205   2.408  11.151  1.0501 -0.3910  0.1006
11297TIP3    H255307   5.341   2.351  11.118  0.2632 -2.1426 -0.2650
11298TIP3   OH255308   3.726   1.796  16.735  0.0601  0.2687  0.1263
11298TIP3    H155309   3.635   1.799  16.763 -0.2199  0.7077 -0.8002
11298TIP3    H255310   3.760   1.714  16.772 -0.6403  0.2034  0.6446
11299TIP3   OH255311   3.308   0.210   1.703 -0.0124 -0.1794 -0.4290
11299TIP3    H155312   3.255   0.229   1.780  0.5934  0.7195 -0.2192
11299TIP3    H255313   3.260   0.251   1.631 -0.2941 -0.5458 -0.4545
11300TIP3   OH255314   0.103   5.572  11.629  0.1349  0.3080  0.2809
11300TIP3    H155315   0.185   5.537  11.593  1.9754  3.3754  1.1747
11300TIP3    H255316   0.072   5.633  11.562  0.2176  1.4099  1.2369
11301TIP3   OH255317   3.962   6.386  12.005 -0.7344 -0.1721 -0.1137
11301TIP3    H155318   3.868   6.369  12.016 -0.7455  0.0269  0.1148
11301TIP3    H255319   3.972   6.412  11.914 -1.1901  1.6174  0.2991
11302TIP3   OH255320   2.761   1.777   1.368 -0.2008 -0.0818 -0.1259
11302TIP3    H155321   2.747   1.836   1.442 -4.0946 -0.7419 -0.1662
11302TIP3    H255322   2.764   1.834   1.292 -1.2110  0.2669  0.0899
11303TIP3   OH255323   2.769   2.359  11.958  0.4479 -0.0827 -0.4368
11303TIP3    H155324   2.701   2.408  11.912  0.5915  0.0313 -0.5310
11303TIP3    H255325   2.723   2.313  12.028  0.2541 -0.1151 -0.5851
11304TIP3   OH255326   2.453   3.091  12.690 -0.4756 -0.4286 -0.5580
11304TIP3    H155327   2.488   3.137  12.613 -0.3213  0.9909  0.3227
11304TIP3    H255328   2.411   3.159  12.742 -1.2088 -1.4840  0.2809
11305TIP3   OH255329   1.327   3.841   4.263  0.6506 -0.3808 -0.1406
11305TIP3    H155330   1.308   3.753   4.293  1.1495 -1.0114 -1.5817
11305TIP3    H255331   1.386   3.829   4.188  0.8664  1.1771 -0.2583
11306TIP3   OH255332   3.628   5.894   3.309  0.0378 -0.3273  0.1986
11306TIP3    H155333   3.604   5.801   3.306  1.7134 -0.7894  0.4652
11306TIP3    H255334   3.634   5.914   3.402 -0.5586  0.1348  0.1464
11307TIP3   OH255335   4.252   1.522  15.748 -0.7047  0.1259  0.5055
11307TIP3    H155336   4.175   1.465  15.746  0.0956 -1.0001  0.7659
11307TIP3    H255337   4.287   1.519  15.659 -1.6767  1.6899  0.0339
11308TIP3   OH255338   2.716   0.925   6.000  0.4290 -0.0207 -0.1896
11308TIP3    H155339   2.698   1.018   5.996  0.7714  0.0370 -0.6064
11308TIP3    H255340   2.765   0.913   6.082 -1.5123 -0.2005  0.9885
11309TIP3   OH255341   4.712   6.692  11.671  0.3683  0.0673 -0.3784
11309TIP3    H155342   4.686   6.675  11.580 -1.5934  4.8504 -1.0096
11309TIP3    H255343   4.778   6.761  11.664  0.5666  0.1460  1.8388
11310TIP3   OH255344   1.982   5.282  14.576 -0.2757 -0.1441  0.8719
11310TIP3    H155345   1.890   5.306  14.564 -0.4629 -0.4194  1.6844
11310TIP3    H255346   2.030   5.363  14.562 -0.7805  0.4001  2.1356
11311TIP3   OH255347   4.009   6.629  16.399  0.2032  0.1628  0.2074
11311TIP3    H155348   4.076   6.696  16.400  0.2241  0.2002  2.4420
11311TIP3    H255349   4.006   6.597  16.490 -0.7699 -1.8687 -0.4800
11312TIP3   OH255350   1.790   1.793   2.468  0.5653  0.1926  0.4509
11312TIP3    H155351   1.806   1.773   2.376  0.7560 -0.7030  0.6719
11312TIP3    H255352   1.763   1.885   2.468 -0.8139 -0.1703 -0.6499
11313TIP3   OH255353   5.032   3.192  11.664  0.4204  0.4994 -0.0612
11313TIP3    H155354   5.020   3.097  11.660  2.1397  0.3025 -2.0443
11313TIP3    H255355   5.095   3.212  11.594 -0.3009  3.1724 -0.0719
11314TIP3   OH255356   5.607   4.667  11.711  0.4354 -0.1045  0.1652
11314TIP3    H155357   5.611   4.575  11.739  0.4725  0.0029  0.5158
11314TIP3    H255358   5.632   4.665  11.618  0.8787 -0.3946  0.2892
11315TIP3   OH255359   6.185   2.007  13.797  0.3153  0.0302 -0.1687
11315TIP3    H155360   6.177   1.916  13.827  1.9491 -0.7195 -1.7370
11315TIP3    H255361   6.095   2.035  13.781 -0.1761 -2.5600 -2.9328
11316TIP3   OH255362   4.965   3.070   3.523 -0.3116 -0.3800  0.3118
11316TIP3    H155363   4.870   3.078   3.533 -0.4572 -1.1112 -0.4301
11316TIP3    H255364   4.980   3.075   3.429  0.4275  0.0193  0.4376
11317TIP3   OH255365   0.159   5.841   6.593 -0.2085 -0.5501  0.0497
11317TIP3    H155366   0.202   5.852   6.508  0.7780 -0.7670  0.5125
11317TIP3    H255367   0.120   5.927   6.611  0.0392 -0.3434 -0.3730
11318TIP3   OH255368   4.834   3.682   1.722  0.1018 -0.5042  0.0203
11318TIP3    H155369   4.830   3.662   1.815  1.7405 -0.6023  0.0947
11318TIP3    H255370   4.927   3.697   1.704  0.3143 -3.4720 -2.1730
11319TIP3   OH255371   1.935   1.076   1.114  0.1157 -0.8760  0.0850
11319TIP3    H155372   2.022   1.107   1.089  0.0001  0.2280  0.9629
11319TIP3    H255373   1.951   0.991   1.156  0.7480 -0.7807  0.0465
11320TIP3   OH255374   5.948   0.759   1.701  0.0835  0.0926 -0.1881
11320TIP3    H155375   6.033   0.779   1.739 -0.8077 -1.9368  3.3099
11320TIP3    H255376   5.885   0.787   1.768 -1.6949 -2.8685 -0.4426
11321TIP3   OH255377   6.625   1.879   0.299 -0.2933  0.3147 -0.0990
11321TIP3    H155378   6.644   1.938   0.372 -2.4184  0.5993  0.2714
11321TIP3    H255379   6.613   1.793   0.340 -0.9065  0.3628 -0.1670
11322TIP3   OH255380   3.913   3.458  10.425 -0.4976 -0.4916 -0.2897
11322TIP3    H155381   3.881   3.547  10.408 -0.9902 -0.4084  0.9745
11322TIP3    H255382   3.833   3.407  10.439 -0.1691 -0.4366  2.1844
11323TIP3   OH255383   6.376   0.001  12.960  0.5231 -0.0069  0.4379
11323TIP3    H155384   6.465   0.033  12.952  0.1216  1.1693  0.5741
11323TIP3    H255385   6.336   0.018  12.875 -0.5263  2.5402  1.3389
11324TIP3   OH255386   5.407   4.142  13.620  0.1488  0.2478 -0.5139
11324TIP3    H155387   5.468   4.159  13.548  0.4257  1.1640 -0.0722
11324TIP3    H255388   5.449   4.180  13.697 -1.5022  1.9906 -0.3921
11325TIP3   OH255389   0.275   4.578  14.080  0.2408  0.7810  0.6226
11325TIP3    H155390   0.297   4.659  14.127  0.0875  1.1140  0.1350
11325TIP3    H255391   0.343   4.569  14.014 -0.4563  1.2265 -0.1788
11326TIP3   OH255392   6.441   2.555  16.562  0.6573 -0.7216  0.1609
11326TIP3    H155393   6.436   2.468  16.522  0.6341 -0.2669 -0.8520
11326TIP3    H255394   6.350   2.582  16.573  0.6339  0.0428 -1.5261
11327TIP3   OH255395   5.299   5.090  14.644 -0.2461  0.1457 -0.1843
11327TIP3    H155396   5.330   5.152  14.578 -1.7636 -0.2787 -1.3625
11327TIP3    H255397   5.284   5.143  14.722 -2.2324  1.4926 -1.3810
11328TIP3   OH255398   0.411   2.191   5.490 -0.3227  0.0752  0.2459
11328TIP3    H155399   0.455   2.215   5.408  0.1786  1.2210  0.8205
11328TIP3    H255400   0.320   2.176   5.465 -0.3631  1.2820 -0.3935
11329TIP3   OH255401   1.565   0.511   5.042  0.1422  0.3573 -0.0509
11329TIP3    H155402   1.653   0.538   5.067 -0.4758  1.6697  0.8602
11329TIP3    H255403   1.578   0.444   4.975  1.8124  1.7780 -1.2457
11330TIP3   OH255404   1.621   2.464  13.602  0.1386 -0.0721  0.1056
11330TIP3    H155405   1.553   2.398  13.609  1.5632 -1.6044  0.1151
11330TIP3    H255406   1.593   2.521  13.531 -0.2225 -1.8374 -1.2162
11331TIP3   OH255407   2.876   6.458  12.940  0.1971 -0.5758 -0.7444
11331TIP3    H155408   2.800   6.462  12.999  0.6005 -1.1674 -0.1763
11331TIP3    H255409   2.839   6.427  12.857 -0.1322 -1.2481 -0.3625
11332TIP3   OH255410   2.549   1.139   5.818 -0.1916  0.2144 -0.3607
11332TIP3    H155411   2.635   1.148   5.778 -0.4723 -0.7259 -1.2184
11332TIP3    H255412   2.562   1.162   5.910  1.2322 -1.0450 -0.2111
11333TIP3   OH255413   0.643   4.468  14.200  0.4878  0.1854 -0.2585
11333TIP3    H155414   0.599   4.549  14.228  0.1632 -0.0143 -0.1877
11333TIP3    H255415   0.572   4.410  14.173  0.7667  0.1905 -1.0264
11334TIP3   OH255416   4.989   4.447  13.945 -0.6960  0.2331 -0.4985
11334TIP3    H155417   4.957   4.357  13.937  0.6586 -0.2597 -0.5340
11334TIP3    H255418   4.974   4.469  14.037  1.2451 -0.9588  0.1713
11335TIP3   OH255419   2.115   6.251   4.603  0.1970 -0.3242 -0.2100
11335TIP3    H155420   2.029   6.258   4.562  0.5526 -0.8249 -1.0746
11335TIP3    H255421   2.132   6.338   4.640  0.0413  0.2877 -1.5132
11336TIP3   OH255422   4.610   6.151   3.194  0.6719 -0.2307  0.8220
11336TIP3    H155423   4.584   6.237   3.161  0.4024  0.2034  2.1129
11336TIP3    H255424   4.564   6.142   3.278 -1.1191 -2.6067 -0.2901
11337TIP3   OH255425   5.700   3.288   5.287  0.3512  0.0537 -0.1751
11337TIP3    H155426   5.609   3.290   5.319 -0.1095  2.1984 -1.4257
11337TIP3    H255427   5.701   3.218   5.222  0.2734 -1.6087  1.5061
11338TIP3   OH255428   6.502   2.829  16.940  0.0069  0.3431  0.2298
11338TIP3    H155429   6.579   2.837  16.883 -2.0090 -2.2686 -3.2397
11338TIP3    H255430   6.460   2.915  16.936  0.3185  0.4393 -1.7115
11339TIP3   OH255431   2.866   1.654  11.482 -0.2568 -0.2453  0.0628
11339TIP3    H155432   2.938   1.690  11.534 -0.5396 -1.0373  1.0393
11339TIP3    H255433   2.906   1.633  11.397  1.4533 -3.2886  1.4670
11340TIP3   OH255434   3.961   2.685  12.512  0.0883 -0.4682  0.0015
11340TIP3    H155435   3.889   2.625  12.532  0.3117 -0.6675  0.2168
11340TIP3    H255436   4.000   2.649  12.432  0.2557 -0.6404  0.1608
11341TIP3   OH255437   4.712   5.481  14.685  0.6609  0.1713  0.2162
11341TIP3    H155438   4.712   5.415  14.754  0.3831  0.0477  0.1013
11341TIP3    H255439   4.692   5.563  14.729 -0.8026 -0.1064  0.1060
11342TIP3   OH255440   1.453   1.004   3.535 -0.2511  0.0713 -0.2171
11342TIP3    H155441   1.389   0.934   3.522  0.0705  0.0377 -1.8116
11342TIP3    H255442   1.490   1.020   3.448  1.1028  0.8683  0.4570
11343TIP3   OH255443   0.802   1.783   0.471  0.4175 -0.0736 -0.0752
11343TIP3    H155444   0.753   1.709   0.434 -1.0115  0.2463  1.0778
11343TIP3    H255445   0.778   1.858   0.417  0.2114 -0.0639  0.0276
11344TIP3   OH255446   4.705   0.136   4.552 -0.3527 -0.1315  0.0969
11344TIP3    H155447   4.720   0.139   4.457 -0.6990 -1.3026 -0.0158
11344TIP3    H255448   4.754   0.210   4.586  1.3186 -0.7687 -0.7985
11345TIP3   OH255449   2.704   0.424  11.674  0.1816  0.3458 -0.5127
11345TIP3    H155450   2.707   0.349  11.733 -0.1763 -0.7544 -1.8451
11345TIP3    H255451   2.795   0.449  11.662  0.3045  0.1111 -0.0772
11346TIP3   OH255452   3.131   6.715   0.917  0.3643  0.0502  1.0219
11346TIP3    H155453   3.129   6.806   0.947 -0.3869  0.4607 -0.1717
11346TIP3    H255454   3.133   6.721   0.821  0.9382 -1.1914  0.9320
11347TIP3   OH255455   4.767   3.538   3.444  0.2815 -0.2429 -0.0454
11347TIP3    H155456   4.806   3.487   3.515 -0.4036 -0.4274  0.2061
11347TIP3    H255457   4.825   3.523   3.369 -0.2234 -1.8931 -0.1529
11348TIP3   OH255458   0.371   0.187  15.632 -1.0877 -0.1192 -0.1684
11348TIP3    H155459   0.420   0.194  15.715 -0.8361 -0.8902 -0.2479
11348TIP3    H255460   0.346   0.277  15.612 -1.7074  0.0141  1.0830
11349TIP3   OH255461   3.580   0.928   5.353  0.3258  0.3907  0.2992
11349TIP3    H155462   3.620   0.851   5.392 -1.8633 -0.2819  1.3248
11349TIP3    H255463   3.645   0.998   5.367  1.0083 -0.5533  2.1726
11350TIP3   OH255464   1.975   1.480  13.197  0.3316  0.0972  0.3140
11350TIP3    H155465   2.026   1.489  13.117  0.6156  2.2363  0.6632
11350TIP3    H255466   1.943   1.390  13.196  1.6224 -0.3891 -1.4016
11351TIP3   OH255467   4.800   1.580   1.418 -0.2690 -0.0188  0.2238
11351TIP3    H155468   4.728   1.522   1.392  0.4118  0.4700 -3.3057
11351TIP3    H255469   4.761   1.667   1.416 -0.4671 -0.0295  2.2049
11352TIP3   OH255470   2.017   0.115   0.414  0.0912 -0.5583  0.3197
11352TIP3    H155471   2.068   0.061   0.353  0.4133 -1.2681  1.2017
11352TIP3    H255472   1.934   0.129   0.369  1.1960  1.0550 -1.3876
11353TIP3   OH255473   4.788   4.058  12.797 -0.4702  0.0396 -0.7152
11353TIP3    H155474   4.774   4.108  12.716 -2.6034 -1.6058 -1.4449
11353TIP3    H255475   4.772   4.121  12.867 -0.9571  0.9038 -1.5784
11354TIP3   OH255476   1.180   6.507   5.909  0.2102 -0.0008 -0.0951
11354TIP3    H155477   1.103   6.497   5.965 -1.6663  1.3698 -2.2565
11354TIP3    H255478   1.210   6.597   5.924  2.0515 -0.7901  1.4018
11355TIP3   OH255479   2.520   4.457  14.007  0.4239 -0.0643  0.6100
11355TIP3    H155480   2.531   4.498  14.093 -0.0647  0.8336  0.2529
11355TIP3    H255481   2.433   4.485  13.977  0.1868 -1.1316  0.2209
11356TIP3   OH255482   1.560   3.052   5.816  0.1131 -0.6041 -0.5509
11356TIP3    H155483   1.653   3.072   5.830 -0.4414  1.0045  1.0599
11356TIP3    H255484   1.515   3.134   5.831 -1.5140 -1.0534 -2.5363
11357TIP3   OH255485   1.813   1.446  14.952  0.4212  0.2065  0.1154
11357TIP3    H155486   1.792   1.449  14.859 -0.9924 -1.3153  0.3335
11357TIP3    H255487   1.903   1.479  14.958  1.0571 -0.9946 -1.9569
11358TIP3   OH255488   2.368   3.499   6.247  0.2109  0.4784  0.2525
11358TIP3    H155489   2.454   3.461   6.266  0.5195  2.1151  2.5254
11358TIP3    H255490   2.313   3.472   6.321 -1.0875 -0.0453 -0.8691
11359TIP3   OH255491   3.042   1.597   6.383 -0.2157  0.1975 -0.6105
11359TIP3    H155492   3.084   1.575   6.300 -0.4042 -0.5143 -0.5263
11359TIP3    H255493   3.060   1.690   6.395  1.2806 -0.0598 -0.6187
11360TIP3   OH255494   2.253   5.384   3.809  0.8303  0.0237 -0.0767
11360TIP3    H155495   2.239   5.459   3.866  0.0641 -0.0163 -0.2088
11360TIP3    H255496   2.170   5.371   3.764  1.9899  1.3531 -2.8165
11361TIP3   OH255497   3.968   4.641   1.486  0.3943 -0.9118 -0.2347
11361TIP3    H155498   3.968   4.605   1.575 -1.6758 -3.0293 -0.9645
11361TIP3    H255499   3.923   4.725   1.494 -0.2067 -1.3023  0.6575
11362TIP3   OH255500   0.581   5.833  14.130  0.0060 -0.0669 -0.4102
11362TIP3    H155501   0.677   5.833  14.123 -0.0018 -0.9789 -0.7569
11362TIP3    H255502   0.554   5.919  14.099  0.7647  0.5939  0.6955
11363TIP3   OH255503   2.943   0.512   0.754  0.2069  0.2971 -0.0176
11363TIP3    H155504   2.872   0.514   0.690  0.7169  1.4250 -0.5820
11363TIP3    H255505   2.898   0.522   0.838 -0.5240 -1.8671 -0.0947
11364TIP3   OH255506   1.466   4.761   0.396 -0.3685  0.6512 -0.0141
11364TIP3    H155507   1.435   4.780   0.308 -0.3654  0.7736  0.0116
11364TIP3    H255508   1.459   4.844   0.443  0.1713  0.7233 -0.0604
11365TIP3   OH255509   0.332   2.319  12.027 -0.1520  0.3966 -0.2668
11365TIP3    H155510   0.348   2.361  11.942  2.2977 -0.0010 -0.0756
11365TIP3    H255511   0.414   2.331  12.075 -0.8948 -0.8958  1.4017
11366TIP3   OH255512   3.429   1.909   6.039  0.0852 -0.1517  0.2183
11366TIP3    H155513   3.349   1.884   6.086  1.0566 -1.2821  1.3258
11366TIP3    H255514   3.455   1.992   6.079 -0.3258  0.0275  0.1173
11367TIP3   OH255515   5.494   6.089  17.024 -0.3110 -0.2496 -0.8260
11367TIP3    H155516   5.529   6.074  17.112  0.5678  1.1951 -0.9107
11367TIP3    H255517   5.567   6.125  16.974 -0.7972 -1.0206 -2.1673
11368TIP3   OH255518   3.186   2.385  12.108  0.3604 -0.0094 -0.0934
11368TIP3    H155519   3.163   2.405  12.199  1.5153  1.4677 -0.0773
11368TIP3    H255520   3.225   2.298  12.111  1.3995  0.4657  1.0361
11369TIP3   OH255521   3.624   2.908  14.417  0.4233 -0.1831  0.3204
11369TIP3    H155522   3.589   2.819  14.412  4.1680 -1.8640  0.7661
11369TIP3    H255523   3.606   2.946  14.332  0.3598 -2.0727 -0.5568
11370TIP3   OH255524   5.561   2.604  12.512  0.2318  0.4044 -0.5214
11370TIP3    H155525   5.592   2.588  12.422  0.8896 -3.0846  0.1863
11370TIP3    H255526   5.631   2.572  12.568 -2.1644 -2.4043  1.1657
11371TIP3   OH255527   6.046   4.750   3.868 -0.2738  0.0426 -0.2583
11371TIP3    H155528   5.952   4.752   3.886 -0.5962 -1.8687 -1.4361
11371TIP3    H255529   6.087   4.736   3.953 -1.1723 -0.6948  0.0637
11372TIP3   OH255530   5.903   2.160   5.306  0.1508  0.9052 -0.6216
11372TIP3    H155531   5.877   2.137   5.396  2.1591 -0.9452 -0.4286
11372TIP3    H255532   5.820   2.165   5.259 -0.8864 -3.5137  0.1899
11373TIP3   OH255533   6.019   4.000   0.897 -0.2134  0.2868  0.1538
11373TIP3    H155534   5.958   4.057   0.851  0.1758  0.9165  0.4089
11373TIP3    H255535   5.999   4.013   0.990 -0.1788 -0.0545  0.2111
11374TIP3   OH255536   5.453   5.095   0.152  0.1234  0.6537 -0.4827
11374TIP3    H155537   5.429   5.097   0.244  0.1643  2.3563 -0.4732
11374TIP3    H255538   5.391   5.154   0.109  1.8285  2.1384 -1.0496
11375TIP3   OH255539   3.024   2.046  15.410 -0.2401  0.1869 -0.1058
11375TIP3    H155540   3.058   1.969  15.456  1.5694  0.2428 -1.2866
11375TIP3    H255541   2.953   2.078  15.467  0.6494 -0.8490  1.6681
11376TIP3   OH255542   5.227   3.038  11.219  0.4651  0.6496  0.4806
11376TIP3    H155543   5.201   3.083  11.139  1.6550  2.8327  1.2282
11376TIP3    H255544   5.322   3.051  11.224  0.2780  1.6601  2.8101
11377TIP3   OH255545   0.653   2.649   6.894 -0.1225  0.0812  0.2997
11377TIP3    H155546   0.717   2.697   6.945  0.7434 -1.9669  1.2554
11377TIP3    H255547   0.689   2.647   6.805  0.3771  0.2555  0.4980
11378TIP3   OH255548   0.961   0.427   5.775 -0.2880  0.3806 -0.3856
11378TIP3    H155549   0.996   0.352   5.823 -1.5452  0.5521  0.8505
11378TIP3    H255550   1.013   0.501   5.807 -0.9662  0.4590  0.5711
11379TIP3   OH255551   2.485   0.473   2.264 -0.1620 -0.0067  0.3976
11379TIP3    H155552   2.472   0.548   2.206  0.9510  1.3999  1.8792
11379TIP3    H255553   2.409   0.416   2.248  0.4437 -0.0589 -2.9048
11380TIP3   OH255554   0.963   2.054  12.502 -0.9427 -0.1363  0.3537
11380TIP3    H155555   0.933   1.997  12.432 -1.2380 -1.7759  1.7467
11380TIP3    H255556   0.999   2.131  12.457  1.4931 -2.3154 -1.7596
11381TIP3   OH255557   4.788   6.301   2.504 -0.1909 -0.1448  0.0918
11381TIP3    H155558   4.756   6.235   2.443  0.5764  0.5724 -1.1276
11381TIP3    H255559   4.714   6.360   2.517  0.1677  0.7405 -1.6364
11382TIP3   OH255560   3.094   1.543  16.441 -0.1958  0.0490 -0.3513
11382TIP3    H155561   3.036   1.498  16.503 -1.2192  0.2465 -1.1378
11382TIP3    H255562   3.180   1.502  16.454 -0.8014 -1.1629 -0.0880
11383TIP3   OH255563   3.959   1.585   6.054  0.0409  0.0012 -0.7091
11383TIP3    H155564   3.989   1.556   5.968  2.2974  0.7978 -0.2752
11383TIP3    H255565   4.040   1.604   6.102 -1.2001  1.7992  0.8122
11384TIP3   OH255566   6.464   0.525   4.156  0.2973 -0.0402 -0.0753
11384TIP3    H155567   6.515   0.455   4.115 -0.2368 -0.7171  0.4079
11384TIP3    H255568   6.521   0.602   4.149  0.6447 -0.3670 -1.1551
11385TIP3   OH255569   3.100   5.721   1.215 -0.0791  0.5758  0.1075
11385TIP3    H155570   3.130   5.686   1.299 -0.0703 -1.2758 -0.6067
11385TIP3    H255571   3.180   5.752   1.173  0.2522 -0.4946 -0.0820
11386TIP3   OH255572   4.462   4.225   2.706 -0.7950  0.0653  0.3885
11386TIP3    H155573   4.418   4.195   2.626  0.1313  1.9318 -0.8997
11386TIP3    H255574   4.392   4.234   2.770 -1.6945 -0.7205 -0.4500
11387TIP3   OH255575   3.695   3.732   3.011 -0.6607 -0.2591 -0.4721
11387TIP3    H155576   3.765   3.716   3.074 -0.9321 -0.1685 -0.1439
11387TIP3    H255577   3.624   3.673   3.038 -1.0842  0.3722 -0.1991
11388TIP3   OH255578   4.968   3.710  12.480 -0.3389  0.0722  0.1995
11388TIP3    H155579   4.981   3.653  12.405 -2.5652 -0.3499  0.0787
11388TIP3    H255580   5.056   3.719  12.518  0.4595 -1.5141 -1.1227
11389TIP3   OH255581   4.352   3.383  16.220 -0.3469  0.0601 -0.0934
11389TIP3    H155582   4.429   3.391  16.275  0.5467  1.7056 -1.4877
11389TIP3    H255583   4.357   3.295  16.183  0.4464 -0.1075  0.4078
11390TIP3   OH255584   6.636   4.812  16.021 -0.2346 -0.5362  0.1646
11390TIP3    H155585   6.601   4.749  16.085  0.1604 -1.1697 -0.2264
11390TIP3    H255586   6.574   4.810  15.949  0.4937 -1.5599 -0.4694
11391TIP3   OH255587   2.206   6.002   0.980 -0.1632  0.1470  0.2141
11391TIP3    H155588   2.164   6.088   0.981 -0.1029  0.1787  0.0790
11391TIP3    H255589   2.237   5.992   0.890  0.7419  0.4176  0.4874
11392TIP3   OH255590   5.389   4.306  14.485 -0.8462  0.4582 -0.9275
11392TIP3    H155591   5.479   4.337  14.497 -1.1561  0.4138  2.4862
11392TIP3    H255592   5.396   4.237  14.419  1.8766 -0.4339  0.1373
11393TIP3   OH255593   5.469   4.117   2.571  0.0668 -0.2602  0.8732
11393TIP3    H155594   5.476   4.212   2.577 -1.4066 -0.0810  0.2298
11393TIP3    H255595   5.557   4.087   2.552  0.4493  1.0312  0.5399
11394TIP3   OH255596   2.521   0.106  11.565 -0.2050 -0.4885 -0.1293
11394TIP3    H155597   2.497   0.014  11.553  2.3837 -1.5020  1.7155
11394TIP3    H255598   2.474   0.133  11.644 -0.1982 -0.5264 -0.1122
11395TIP3   OH255599   2.264   5.660   1.464 -0.2267 -0.0732 -0.2455
11395TIP3    H155600   2.322   5.692   1.533 -2.7420  2.3396  0.9828
11395TIP3    H255601   2.288   5.710   1.386  1.3950 -1.4590 -0.6844
11396TIP3   OH255602   5.042   3.153  11.963 -0.4709 -0.2986  0.6351
11396TIP3    H155603   4.947   3.153  11.975 -0.6791 -0.0080 -0.8984
11396TIP3    H255604   5.055   3.146  11.869  1.0135  0.8024  0.7181
11397TIP3   OH255605   0.892   5.235  14.556 -0.2651  0.0299  1.2438
11397TIP3    H155606   0.960   5.265  14.617  0.5324  1.8190 -0.4486
11397TIP3    H255607   0.940   5.195  14.484 -1.1744 -1.4964  1.4444
11398TIP3   OH255608   1.122   6.022  12.853 -0.4729 -0.2655 -0.5407
11398TIP3    H155609   1.175   6.100  12.866  0.4500 -1.1988  1.8102
11398TIP3    H255610   1.039   6.040  12.898  0.0876 -0.9218  0.8155
11399TIP3   OH255611   1.888   4.777   6.227  0.1358  0.0339 -0.4447
11399TIP3    H155612   1.803   4.783   6.185  0.6137  0.2541 -1.3936
11399TIP3    H255613   1.899   4.861   6.271 -1.6420 -1.1732  2.7228
11400TIP3   OH255614   0.932   4.661   5.355 -0.3467 -0.1370  0.3485
11400TIP3    H155615   0.972   4.637   5.439  1.5599  1.7272  0.0567
11400TIP3    H255616   0.960   4.592   5.295  0.4591 -0.1252  0.6926
11401TIP3   OH255617   1.716   5.929   3.628  0.1167  0.2515 -0.2648
11401TIP3    H155618   1.718   5.840   3.664  2.0909  0.8894  1.3970
11401TIP3    H255619   1.648   5.974   3.678 -2.9761 -0.9591 -3.0552
11402TIP3   OH255620   3.088   1.256  11.508 -0.3132  0.7188  0.0293
11402TIP3    H155621   3.022   1.306  11.555 -0.2284  1.8109 -0.9516
11402TIP3    H255622   3.066   1.270  11.415  0.5687  0.0924 -0.2862
11403TIP3   OH255623   6.486   4.329   2.524  0.5700 -0.1041  0.1753
11403TIP3    H155624   6.540   4.313   2.601  0.7449  2.8776  0.7895
11403TIP3    H255625   6.488   4.424   2.512 -2.0260 -0.1630 -1.6345
11404TIP3   OH255626   1.838   2.712   3.824 -0.3284  0.0624 -0.0825
11404TIP3    H155627   1.851   2.806   3.812 -0.8495  0.0779 -0.5888
11404TIP3    H255628   1.813   2.703   3.916  0.6210  0.3105  0.2107
11405TIP3   OH255629   5.441   3.639   6.500  0.4401  0.3206 -0.1909
11405TIP3    H155630   5.402   3.582   6.434  1.0532 -0.1534 -0.1398
11405TIP3    H255631   5.502   3.584   6.547 -1.5617  0.0187  2.2588
11406TIP3   OH255632   3.540   4.164   1.545  0.5691  0.0096 -0.0349
11406TIP3    H155633   3.573   4.234   1.488  1.2933 -0.8642 -0.7123
11406TIP3    H255634   3.496   4.211   1.616  1.3294  1.1677 -0.2850
11407TIP3   OH255635   2.476   2.213   2.827  0.4368  0.2708  0.5080
11407TIP3    H155636   2.430   2.135   2.800  0.4140 -0.3931  2.2945
11407TIP3    H255637   2.441   2.283   2.772 -1.3085 -0.5438  0.5360
11408TIP3   OH255638   1.275   1.975   2.683  0.9377  0.0005 -0.0889
11408TIP3    H155639   1.246   2.066   2.686 -0.7185 -0.4916 -0.1244
11408TIP3    H255640   1.370   1.980   2.688  1.0301  1.8375 -2.1066
11409TIP3   OH255641   1.982   4.662  16.250 -0.1503 -0.3556 -0.7683
11409TIP3    H155642   1.928   4.681  16.173  2.2801  2.6969 -1.9498
11409TIP3    H255643   2.072   4.675  16.219  1.0234 -0.9853  2.1239
11410TIP3   OH255644   1.181   2.658  14.922 -0.3061 -0.3100  0.2700
11410TIP3    H155645   1.225   2.640  14.839 -0.7924 -0.5281  0.0563
11410TIP3    H255646   1.252   2.675  14.984  0.0362  1.2842 -0.5028
11411TIP3   OH255647   1.637   2.642   0.500  0.1207 -0.1178  0.1349
11411TIP3    H155648   1.709   2.684   0.547  0.2916  1.3955 -1.3982
11411TIP3    H255649   1.602   2.578   0.562  1.3076  0.7254  1.7366
11412TIP3   OH255650   5.123   2.491  15.205 -0.6007  0.1054  0.0508
11412TIP3    H155651   5.216   2.491  15.182 -0.2753 -0.4829  1.2731
11412TIP3    H255652   5.087   2.566  15.158  0.4010  0.1143 -0.7563
11413TIP3   OH255653   2.023   4.684   0.529  0.4169 -0.2486 -0.4108
11413TIP3    H155654   1.997   4.720   0.614  0.8261 -1.3971  0.2314
11413TIP3    H255655   1.949   4.700   0.471 -0.4573 -0.7062  0.5488
11414TIP3   OH255656   3.900   6.030   0.026  0.0521 -0.7645  0.2715
11414TIP3    H155657   3.827   6.027   0.087 -0.4379 -0.8871 -0.3196
11414TIP3    H255658   3.868   6.080  -0.049  0.5692 -0.8181  0.0066
11415TIP3   OH255659   0.543   6.031  15.030 -0.3146  0.1369  0.4330
11415TIP3    H155660   0.623   6.066  14.992  1.3717 -3.1450  0.6063
11415TIP3    H255661   0.531   6.080  15.111  0.2036  2.1637 -0.6302
11416TIP3   OH255662   0.436   3.405  10.931 -0.2997 -0.4040 -0.0366
11416TIP3    H155663   0.453   3.440  11.018  1.2790 -1.0728 -0.0325
11416TIP3    H255664   0.391   3.476  10.885  0.5642  0.6834  0.7357
11417TIP3   OH255665   0.139   5.061  14.321 -0.2307 -0.0983 -0.2638
11417TIP3    H155666   0.162   4.990  14.261  0.0911  1.6610 -2.3758
11417TIP3    H255667   0.081   5.117  14.269  0.6563  1.9190  0.8311
11418TIP3   OH255668   4.463   0.297   2.885 -0.2060  0.1081  0.6469
11418TIP3    H155669   4.519   0.287   2.962  1.7900  1.5895 -0.4828
11418TIP3    H255670   4.379   0.326   2.920  0.5385  0.4242  2.3013
11419TIP3   OH255671   1.523   2.172  11.574  0.1627  0.0876  0.5285
11419TIP3    H155672   1.552   2.175  11.483 -0.9468 -2.9408 -0.0331
11419TIP3    H255673   1.532   2.262  11.605  1.1743  1.0863 -2.3595
11420TIP3   OH255674   0.135   6.174  14.383  1.0284  0.4962 -0.1655
11420TIP3    H155675   0.150   6.093  14.336  1.4016  1.2440 -1.3828
11420TIP3    H255676   0.150   6.152  14.475  0.5528 -0.9310 -0.4061
11421TIP3   OH255677   4.788   4.366   5.495  0.0277  0.3812  0.5051
11421TIP3    H155678   4.709   4.403   5.533  0.2484  0.9618  0.4103
11421TIP3    H255679   4.802   4.284   5.543 -2.0546 -1.0831 -1.2121
11422TIP3   OH255680   1.214   2.226   2.921 -0.0609 -0.2605 -0.3708
11422TIP3    H155681   1.128   2.205   2.885 -0.9313 -0.4456  1.6857
11422TIP3    H255682   1.202   2.310   2.964  0.3627 -0.9624  1.1917
11423TIP3   OH255683   5.500   1.653  14.494  0.0677  0.1855 -0.0601
11423TIP3    H155684   5.584   1.633  14.453  0.2721  1.2286 -0.1640
11423TIP3    H255685   5.440   1.587  14.459  0.3447  0.7669 -1.6701
11424TIP3   OH255686   3.120   4.995  13.179  0.7413  0.2267  0.0216
11424TIP3    H155687   3.029   5.027  13.175 -0.0286 -1.8852 -1.0541
11424TIP3    H255688   3.155   5.033  13.259 -0.4356  2.6851 -0.5358
11425TIP3   OH255689   2.248   5.488   1.085 -0.5867  0.2199 -0.3905
11425TIP3    H155690   2.318   5.435   1.124  0.4917  2.9989  1.7939
11425TIP3    H255691   2.232   5.447   1.000  3.7465 -0.6252 -1.0453
11426TIP3   OH255692   5.198   0.971   2.911  0.9128 -0.2728  0.6696
11426TIP3    H155693   5.260   0.960   2.839  0.1825 -0.4193  0.0496
11426TIP3    H255694   5.113   0.949   2.873  0.0825  2.4171  0.7849
11427TIP3   OH255695   3.334   5.737  13.959 -0.4981  0.3126  0.0514
11427TIP3    H155696   3.301   5.664  13.907  0.8572 -0.9165  0.8661
11427TIP3    H255697   3.297   5.724  14.046  1.0860 -0.4000  0.6538
11428TIP3   OH255698   1.322   3.970  11.331 -0.2652 -0.5455 -0.6783
11428TIP3    H155699   1.382   3.997  11.260 -0.5542 -1.8715 -1.4655
11428TIP3    H255700   1.248   4.029  11.323  0.2966  0.1860 -0.6165
11429TIP3   OH255701   1.791   1.883   3.217 -0.1552  0.0874  0.1923
11429TIP3    H155702   1.807   1.923   3.132 -0.4079  0.5998  0.3773
11429TIP3    H255703   1.729   1.812   3.200  1.3532 -1.1626 -0.3511
11430TIP3   OH255704   5.140   1.716   4.418  0.4051 -0.6715 -0.3417
11430TIP3    H155705   5.097   1.764   4.489  0.5321 -2.2421  0.8399
11430TIP3    H255706   5.175   1.785   4.361 -1.3790  0.6288  0.0554
11431TIP3   OH255707   3.813   4.164  15.686  0.2945 -0.4588  0.4186
11431TIP3    H155708   3.830   4.095  15.749 -2.0101 -0.5822  1.0068
11431TIP3    H255709   3.781   4.238  15.739  2.1750  0.9213 -0.2478
11432TIP3   OH255710   4.952   0.377   3.738 -0.0606 -0.0361  0.5023
11432TIP3    H155711   4.886   0.384   3.807 -2.5987 -1.3313 -1.6062
11432TIP3    H255712   5.018   0.319   3.774 -0.5267  0.5288  2.3709
11433TIP3   OH255713   3.536   6.304   4.298  0.5126 -0.5958 -0.5978
11433TIP3    H155714   3.498   6.392   4.292  1.9181  0.1431  0.6528
11433TIP3    H255715   3.620   6.312   4.253  0.5282 -1.3966 -0.7219
11434TIP3   OH255716   6.208   4.994  15.519 -0.3020  0.2273  0.2627
11434TIP3    H155717   6.278   5.035  15.468  0.0783 -0.6697  0.0457
11434TIP3    H255718   6.185   4.915  15.470 -1.9709  0.8597 -0.0318
11435TIP3   OH255719   0.687   5.659  11.807  0.3010 -0.2677  0.3628
11435TIP3    H155720   0.720   5.696  11.725 -0.1832 -1.9471 -0.6607
11435TIP3    H255721   0.766   5.637  11.857  0.6355 -0.1854 -0.1179
11436TIP3   OH255722   4.135   5.564  16.309 -0.3751  0.3245  0.1160
11436TIP3    H155723   4.058   5.532  16.356  1.7263 -2.0378  2.2612
11436TIP3    H255724   4.181   5.617  16.373  1.4128 -1.0529  0.0334
11437TIP3   OH255725   3.765   3.049  11.252  0.0625  0.1155 -0.4589
11437TIP3    H155726   3.672   3.072  11.245  0.3672  0.9776 -2.4565
11437TIP3    H255727   3.782   2.994  11.175  1.1473 -0.2923  0.0484
11438TIP3   OH255728   0.994   3.745  13.330  0.1348 -0.1586  0.2642
11438TIP3    H155729   0.928   3.759  13.397  0.9204 -1.2763  1.3038
11438TIP3    H255730   1.037   3.829  13.320  0.9972 -0.3115  2.2687
11439TIP3   OH255731   0.256   5.065   5.828 -0.3421 -0.1776 -0.1758
11439TIP3    H155732   0.184   5.010   5.860 -0.7581  0.5813  0.2298
11439TIP3    H255733   0.216   5.151   5.816  0.8796  0.7108  1.7158
11440TIP3   OH255734   0.035   0.918  12.759  0.7185 -0.1315 -0.6975
11440TIP3    H155735   0.018   1.000  12.805 -0.2582 -0.4065 -0.5286
11440TIP3    H255736  -0.053   0.885  12.738  1.0950  0.1589 -3.0679
11441TIP3   OH255737   2.373   2.107   4.789  0.1525 -0.4027 -0.3809
11441TIP3    H155738   2.390   2.031   4.846  1.8162 -0.9670 -1.5659
11441TIP3    H255739   2.327   2.169   4.846  2.0651 -0.7763  1.7109
11442TIP3   OH255740   1.697   5.687   3.780 -0.3420 -0.0523 -0.0215
11442TIP3    H155741   1.636   5.658   3.713  0.0085 -1.4967  0.2529
11442TIP3    H255742   1.776   5.634   3.767  0.8028  1.5957 -0.2118
11443TIP3   OH255743   0.639   0.645  11.720 -0.2220 -0.3180 -0.2006
11443TIP3    H155744   0.730   0.656  11.690 -0.7621  0.8272 -1.4998
11443TIP3    H255745   0.595   0.601  11.647 -1.0890  0.6532 -0.2858
11444TIP3   OH255746   2.859   0.655   6.720 -0.3104  0.3822  0.1877
11444TIP3    H155747   2.948   0.685   6.739 -0.1457  0.4295 -0.6163
11444TIP3    H255748   2.802   0.722   6.758  0.0176  0.7918 -0.0316
11445TIP3   OH255749   2.642   0.761  12.265 -0.1582  0.2355 -0.3044
11445TIP3    H155750   2.732   0.728  12.265 -0.5134 -0.7705  0.5743
11445TIP3    H255751   2.601   0.720  12.189 -0.4682 -1.0500  0.5256
11446TIP3   OH255752   5.297   5.831   3.192  0.0159  0.0929 -0.0041
11446TIP3    H155753   5.305   5.859   3.283 -0.8433  0.3184  0.0143
11446TIP3    H255754   5.242   5.752   3.196  0.5075 -0.2654 -0.2652
11447TIP3   OH255755   2.734   4.164  15.844  0.5964  0.0095 -0.2033
11447TIP3    H155756   2.731   4.257  15.818 -2.2317  0.3489  0.9315
11447TIP3    H255757   2.643   4.143  15.866  0.9822 -3.3388 -1.3122
11448TIP3   OH255758   0.735   4.224   0.620  0.2738 -0.3631 -0.2250
11448TIP3    H155759   0.640   4.212   0.607  0.3743 -0.8341 -0.5626
11448TIP3    H255760   0.754   4.180   0.703  0.1434 -0.0042 -0.0060
11449TIP3   OH255761   3.342   5.897  13.573  0.4226  0.0518  0.0077
11449TIP3    H155762   3.268   5.838  13.559  0.1903 -0.0309  1.4069
11449TIP3    H255763   3.333   5.965  13.506  0.4006 -1.2027 -1.2903
11450TIP3   OH255764   4.552   5.321   2.444 -0.5128 -0.0371 -0.4455
11450TIP3    H155765   4.556   5.398   2.500 -0.1430 -0.0980 -0.3843
11450TIP3    H255766   4.498   5.258   2.492 -1.6619  0.5434 -0.9415
11451TIP3   OH255767   6.028   2.747   3.163  0.4134 -0.3029  0.5256
11451TIP3    H155768   6.114   2.708   3.150  1.2102  1.6632 -0.6353
11451TIP3    H255769   6.019   2.809   3.091 -2.1021 -0.6097  0.4687
11452TIP3   OH255770   6.311   3.715  15.416 -0.2092 -0.1990 -0.3124
11452TIP3    H155771   6.227   3.671  15.406 -0.7784  0.4240  1.4458
11452TIP3    H255772   6.298   3.777  15.488  2.0136 -0.7332  0.6331
11453TIP3   OH255773   0.773   5.845   4.315 -0.2349  0.1899 -0.1883
11453TIP3    H155774   0.815   5.781   4.372 -0.5118 -1.4656 -1.7407
11453TIP3    H255775   0.844   5.879   4.261 -0.5416 -1.4895 -1.7697
11454TIP3   OH255776   4.101   5.558  16.863  0.0801  0.1077  0.2453
11454TIP3    H155777   4.193   5.529  16.871 -0.2597 -0.8749  0.8934
11454TIP3    H255778   4.105   5.652  16.877  1.1172  0.2419 -0.7832
11455TIP3   OH255779   3.148   0.374   5.206 -0.0917  0.2633 -0.4613
11455TIP3    H155780   3.070   0.428   5.193  1.1027  1.8696 -1.1689
11455TIP3    H255781   3.168   0.339   5.119  0.4381  0.5229 -0.4492
11456TIP3   OH255782   0.270   5.103  11.149  0.4446  0.3913 -0.3789
11456TIP3    H155783   0.336   5.153  11.101  0.6684  0.8630  0.3998
11456TIP3    H255784   0.204   5.081  11.084  2.3745 -1.9750 -1.7113
11457TIP3   OH255785   2.657   6.377   2.456  0.1401 -0.3549  0.5274
11457TIP3    H155786   2.641   6.330   2.537 -1.5802 -0.0846  0.3783
11457TIP3    H255787   2.630   6.316   2.387  0.1455 -0.0165  0.2243
11458TIP3   OH255788   5.748   2.834   4.060 -0.0794  0.5548  0.2784
11458TIP3    H155789   5.738   2.747   4.019 -0.6531  0.3984  0.7482
11458TIP3    H255790   5.811   2.819   4.131 -1.5601  0.0993  1.5526
11459TIP3   OH255791   5.625   6.530   2.191 -0.4027  0.0969 -0.3723
11459TIP3    H155792   5.589   6.557   2.276  0.1113 -0.7728  0.1404
11459TIP3    H255793   5.644   6.437   2.202  1.3831  0.3634 -0.8077
11460TIP3   OH255794   2.177   5.474   5.322  0.2590 -0.6541  0.6014
11460TIP3    H155795   2.166   5.557   5.276 -0.3429  0.0659  1.9630
11460TIP3    H255796   2.091   5.457   5.360  1.0162 -0.5435  2.4761
11461TIP3   OH255797   4.418   4.464   1.298  0.0550 -0.4196  0.4255
11461TIP3    H155798   4.389   4.402   1.365  2.0431  0.7248  2.4713
11461TIP3    H255799   4.509   4.441   1.281  0.3202  0.8473 -0.0235
11462TIP3   OH255800   2.905   2.582   0.036 -0.5515  0.1333 -0.3469
11462TIP3    H155801   2.848   2.506   0.027  0.9220 -1.0585  0.0990
11462TIP3    H255802   2.862   2.637   0.101 -1.3967 -0.5327 -0.3255
11463TIP3   OH255803   6.199   3.019  15.389 -0.2745 -0.6410  0.3466
11463TIP3    H155804   6.147   3.076  15.447 -0.4451  0.8637 -1.1773
11463TIP3    H255805   6.147   3.015  15.309 -0.2643 -3.0403  0.3945
11464TIP3   OH255806   3.494   5.197   1.231 -0.1103  0.6004  0.7631
11464TIP3    H155807   3.440   5.262   1.276 -2.0778  0.2885 -0.9735
11464TIP3    H255808   3.435   5.123   1.218  0.6395  0.3226 -1.4095
11465TIP3   OH255809   6.497   6.516  16.827  0.7645 -0.5327 -0.3817
11465TIP3    H155810   6.447   6.532  16.747  1.1517 -0.5296 -0.6217
11465TIP3    H255811   6.432   6.482  16.889  0.1880  0.7055 -0.2758
11466TIP3   OH255812   0.991   2.577   0.951 -0.1468  0.5871 -0.6112
11466TIP3    H155813   0.954   2.642   1.011  0.1720  0.5661 -0.3929
11466TIP3    H255814   1.063   2.537   1.000 -0.5861 -0.2093 -0.5957
11467TIP3   OH255815   2.901   2.177  13.848  1.0171 -0.4165 -0.8491
11467TIP3    H155816   2.935   2.262  13.821 -0.1553  1.6089  3.3756
11467TIP3    H255817   2.812   2.174  13.813  1.0080  0.1340 -0.8690
11468TIP3   OH255818   2.184   3.698   3.416  0.8334 -0.6233 -0.2728
11468TIP3    H155819   2.253   3.638   3.445 -0.0121 -1.2863  0.4465
11468TIP3    H255820   2.214   3.784   3.444  0.4052 -1.1469  2.0874
11469TIP3   OH255821   0.670   1.921  11.513  0.1762  0.1260  0.3130
11469TIP3    H155822   0.708   1.976  11.444 -0.4394 -1.9936 -1.8519
11469TIP3    H255823   0.580   1.904  11.484  0.8183 -3.3163 -0.0392
11470TIP3   OH255824   2.863   2.927  12.278  0.4566  0.5460  0.5246
11470TIP3    H155825   2.806   2.944  12.353 -2.1814 -1.8699 -0.7316
11470TIP3    H255826   2.911   2.848  12.302  2.4873  1.8592  1.0541
11471TIP3   OH255827   3.996   6.304  13.862 -0.5888 -0.0745 -0.1850
11471TIP3    H155828   3.920   6.352  13.894  0.7943  0.5915  2.3810
11471TIP3    H255829   3.976   6.212  13.877 -0.4524  0.1661  1.6263
11472TIP3   OH255830   4.345   2.850  14.388  0.1376  0.0671 -0.4734
11472TIP3    H155831   4.422   2.795  14.372 -0.5557 -1.0429 -0.0938
11472TIP3    H255832   4.272   2.789  14.392 -0.9565  1.1859 -1.9136
11473TIP3   OH255833   3.119   2.032  12.123  0.4868  0.3995  0.0811
11473TIP3    H155834   3.192   2.092  12.112 -0.0847  1.3049  1.1066
11473TIP3    H255835   3.158   1.954  12.163  0.7052  1.4212  1.9761
11474TIP3   OH255836   3.890   0.290   1.411  0.1789 -0.4485  0.4569
11474TIP3    H155837   3.930   0.246   1.486  1.3461  1.6170  1.1280
11474TIP3    H255838   3.797   0.297   1.434 -0.2935 -3.4044 -0.1724
11475TIP3   OH255839   1.214   6.607   1.647 -0.3883 -0.3432  0.4258
11475TIP3    H155840   1.303   6.575   1.660 -0.6482 -0.1049  4.0126
11475TIP3    H255841   1.159   6.529   1.655 -0.5998 -0.2204  0.1847
11476TIP3   OH255842   5.737   0.663  13.991  0.1777  0.2899  0.6659
11476TIP3    H155843   5.796   0.605  13.942  0.4077  1.2182 -0.1903
11476TIP3    H255844   5.685   0.706  13.923  0.2107  1.3041  1.2739
11477TIP3   OH255845   4.409   0.425  11.518  0.5018 -0.3469  0.0934
11477TIP3    H155846   4.416   0.478  11.597 -0.4014 -0.6819  0.4036
11477TIP3    H255847   4.377   0.485  11.451 -0.5356 -0.4916  0.4476
11478TIP3   OH255848   2.012   6.690   5.489 -0.3785  0.4375 -0.5596
11478TIP3    H155849   2.004   6.681   5.584 -2.4635  0.5392 -0.6758
11478TIP3    H255850   2.068   6.766   5.476 -0.8394  0.9933  0.6105
11479TIP3   OH255851   3.753   2.476  16.950  0.7215  0.4161  0.4284
11479TIP3    H155852   3.799   2.446  16.872  1.0263  1.0030  0.3826
11479TIP3    H255853   3.746   2.397  17.005 -0.8750 -0.3895 -0.8300
11480TIP3   OH255854   3.548   6.249  12.368 -0.2913  0.1703  0.0367
11480TIP3    H155855   3.504   6.242  12.452 -0.1836  1.7618  0.2626
11480TIP3    H255856   3.479   6.275  12.306 -0.5698 -1.9394 -0.6036
11481TIP3   OH255857   2.738   2.474  11.329  0.0734 -0.1644 -0.3055
11481TIP3    H155858   2.767   2.511  11.413  2.3558  0.0174 -1.1004
11481TIP3    H255859   2.758   2.542  11.265  1.1387 -1.3945 -1.3522
11482TIP3   OH255860   3.033   1.458   4.640  0.4951 -0.4960  0.8525
11482TIP3    H155861   3.114   1.428   4.598 -1.2734 -3.9910 -0.4031
11482TIP3    H255862   3.024   1.404   4.718 -0.5003  0.0362  1.1301
11483TIP3   OH255863   0.913   3.443   0.001  0.1872  0.5399 -0.5603
11483TIP3    H155864   0.852   3.439   0.075 -1.2115 -0.9921 -1.7049
11483TIP3    H255865   0.862   3.483  -0.070  1.3290  1.4808 -0.8835
11484TIP3   OH255866   0.252   5.143   3.328  0.0116  0.1197  0.2242
11484TIP3    H155867   0.284   5.058   3.360  0.1204  0.9520  2.4569
11484TIP3    H255868   0.161   5.147   3.356 -0.3623  0.2766 -0.9394
11485TIP3   OH255869   2.959   6.080  16.493 -0.2397  0.3519 -0.4485
11485TIP3    H155870   2.902   6.011  16.526  0.4494  0.9065  2.1276
11485TIP3    H255871   2.900   6.153  16.475 -0.4955  0.8603  2.0304
11486TIP3   OH255872   1.270   3.947  15.050  0.3301  0.0295 -0.3037
11486TIP3    H155873   1.234   3.889  15.117 -0.5495  0.0690 -0.7291
11486TIP3    H255874   1.361   3.918  15.039  0.0423 -0.9332 -0.1618
11487TIP3   OH255875   2.506   1.844  15.628  0.2207  0.5326 -0.5588
11487TIP3    H155876   2.453   1.763  15.624  0.0814  0.3064  2.6869
11487TIP3    H255877   2.595   1.813  15.642  0.3764  0.9251 -0.6943
11488TIP3   OH255878   6.707   1.488   3.348 -0.0884  0.0833 -0.4677
11488TIP3    H155879   6.767   1.551   3.308 -1.0735  0.7972 -0.8615
11488TIP3    H255880   6.648   1.463   3.277  0.2260 -1.2229 -0.2932
11489TIP3   OH255881   4.052   5.499   6.231 -0.5535  0.0855 -0.3161
11489TIP3    H155882   4.115   5.476   6.163 -0.4670 -1.9014  0.3677
11489TIP3    H255883   4.003   5.418   6.247 -1.9021  1.0293  0.6148
11490TIP3   OH255884   6.149   2.895   4.356 -0.1263 -0.1183  0.4738
11490TIP3    H155885   6.229   2.870   4.403  1.2912  3.3377  0.2469
11490TIP3    H255886   6.122   2.977   4.398 -1.3893  0.7409 -1.8360
11491TIP3   OH255887   1.551   4.732  16.166 -0.1681  0.0153  0.0150
11491TIP3    H155888   1.621   4.796  16.153 -1.0091  1.0361  0.3894
11491TIP3    H255889   1.548   4.684  16.083  1.7713 -0.8978  0.4075
11492TIP3   OH255890   3.801   6.566   4.935 -0.2134 -0.6069 -0.7594
11492TIP3    H155891   3.812   6.580   4.841 -0.2171 -0.8515 -0.7977
11492TIP3    H255892   3.879   6.604   4.975 -1.0244  1.0809 -0.7104
11493TIP3   OH255893   6.648   4.699   5.102 -0.6030  0.3070  0.3063
11493TIP3    H155894   6.608   4.653   5.028 -1.2591 -1.4532  1.6674
11493TIP3    H255895   6.593   4.776   5.116  0.1011  1.1981 -1.6063
11494TIP3   OH255896   6.667   1.690   1.341 -0.2260  0.2708  0.1074
11494TIP3    H155897   6.633   1.625   1.403 -1.9949  0.7453 -0.3183
11494TIP3    H255898   6.762   1.684   1.350 -0.3323 -2.0851  0.3887
11495TIP3   OH255899   2.303   5.896  13.992  0.3092 -0.3959  0.1074
11495TIP3    H155900   2.286   5.990  13.998  0.5382 -0.2472 -1.3048
11495TIP3    H255901   2.220   5.855  14.013 -0.1120  0.1641 -0.4383
11496TIP3   OH255902   1.823   3.216   1.761 -0.1323  0.4852  0.2614
11496TIP3    H155903   1.903   3.173   1.730  0.2067  0.2567  1.4066
11496TIP3    H255904   1.759   3.203   1.691  0.2960 -0.9367  0.1147
11497TIP3   OH255905   2.611   4.448   3.345  0.9193  0.1561 -0.4767
11497TIP3    H155906   2.650   4.473   3.429 -0.4423 -0.9534  0.5271
11497TIP3    H255907   2.523   4.486   3.347  0.2955 -1.2302 -0.6796
11498TIP3   OH255908   6.241   4.948  14.778  0.0354 -0.1074  0.0279
11498TIP3    H155909   6.291   4.879  14.735  1.9199  0.3208  1.4089
11498TIP3    H255910   6.266   4.942  14.870  0.0537  2.2052  0.2399
11499TIP3   OH255911   4.959   5.563   3.213 -0.2261 -0.3648 -0.7247
11499TIP3    H155912   4.883   5.511   3.237 -1.0971  0.8348 -0.8189
11499TIP3    H255913   4.948   5.645   3.259  2.0837 -0.8734  0.9431
11500TIP3   OH255914   2.787   1.766  14.756 -0.2201  0.1251  0.3206
11500TIP3    H155915   2.727   1.796  14.824 -1.7170 -2.4143  0.2633
11500TIP3    H255916   2.731   1.748  14.681  0.6630 -1.7172  0.0531
11501TIP3   OH255917   5.626   6.734   0.770 -0.0035 -0.5766 -0.4132
11501TIP3    H155918   5.610   6.734   0.676  0.1611 -1.2043 -0.4440
11501TIP3    H255919   5.719   6.711   0.779  0.2262  0.4017 -0.1306
11502TIP3   OH255920   2.749   2.595  13.742 -0.3279  0.0724 -0.0799
11502TIP3    H155921   2.833   2.558  13.715  0.7758  2.6753 -0.5439
11502TIP3    H255922   2.753   2.595  13.838  1.3985  2.3856 -0.0443
11503TIP3   OH255923   2.818   3.054  15.802 -0.5010  0.1483 -0.4731
11503TIP3    H155924   2.836   3.148  15.810  0.9523 -0.2138  0.8803
11503TIP3    H255925   2.803   3.024  15.891 -1.0387 -0.9045 -0.8996
11504TIP3   OH255926   0.395   2.683   6.309 -0.0997 -0.2414 -0.1797
11504TIP3    H155927   0.421   2.698   6.400 -0.0363  0.8486 -0.3664
11504TIP3    H255928   0.330   2.751   6.291 -0.8877 -1.0915 -0.6379
11505TIP3   OH255929   4.100   2.861   5.711  0.2258  0.0911 -0.3394
11505TIP3    H155930   4.121   2.768   5.707  0.2651  0.0537  0.6900
11505TIP3    H255931   4.050   2.872   5.792  0.3790  1.0006 -0.3541
11506TIP3   OH255932   3.267   0.746   2.121 -0.3076 -0.1832  0.1870
11506TIP3    H155933   3.241   0.655   2.135  0.0926 -0.5784 -1.4681
11506TIP3    H255934   3.362   0.746   2.133 -0.4798  0.3795  1.8284
11507TIP3   OH255935   3.196   0.220   1.936 -0.1442  0.5178 -0.1671
11507TIP3    H155936   3.152   0.167   2.003  2.1243 -0.4587  0.7024
11507TIP3    H255937   3.212   0.304   1.979 -2.2235  1.3633 -0.9468
11508TIP3   OH255938   4.841   0.969  11.852  0.3533 -0.1034 -0.6082
11508TIP3    H155939   4.891   1.015  11.919  0.7265  0.0239 -0.9683
11508TIP3    H255940   4.824   0.882  11.890  0.2181  0.1002 -0.1956
11509TIP3   OH255941   5.109   0.134   1.891  0.0119  0.0839 -0.5915
11509TIP3    H155942   5.187   0.184   1.916 -0.2595  0.6009 -0.7658
11509TIP3    H255943   5.118   0.051   1.938 -0.5597  1.0826  1.3805
11510TIP3   OH255944   6.022   5.232  11.060  0.1901 -0.0613 -0.5702
11510TIP3    H155945   6.110   5.215  11.026  0.3618 -0.2851 -0.0162
11510TIP3    H255946   6.013   5.327  11.058 -0.5600 -0.1072 -3.1455
11511TIP3   OH255947   0.323   2.105   4.450 -0.1451  0.2982 -0.0676
11511TIP3    H155948   0.335   2.013   4.473  0.4774 -0.1201 -1.8886
11511TIP3    H255949   0.396   2.150   4.493  1.2195 -0.5086 -1.4338
11512TIP3   OH255950   0.648   5.037   2.898  0.2734  0.0481 -0.3072
11512TIP3    H155951   0.694   5.077   2.972 -1.2729  0.5083  0.4506
11512TIP3    H255952   0.564   5.083   2.895 -0.1448 -0.7709 -1.6258
11513TIP3   OH255953   0.186   3.711  13.742 -0.3933  0.1744  0.0144
11513TIP3    H155954   0.120   3.646  13.765 -0.0716 -0.2505 -0.2525
11513TIP3    H255955   0.223   3.739  13.826 -0.5822  0.0675  0.1329
11514TIP3   OH255956   1.200   1.973  16.273  0.3932  0.2999  0.3026
11514TIP3    H155957   1.250   1.902  16.233 -0.4326 -0.3849  0.4726
11514TIP3    H255958   1.110   1.958  16.245  0.1709  1.1426  0.5434
11515TIP3   OH255959   6.520   5.335  16.874  0.5904 -0.2362 -0.3148
11515TIP3    H155960   6.462   5.324  16.949  0.1074  2.4923 -0.1861
11515TIP3    H255961   6.462   5.361  16.803  1.1775 -1.7863 -1.4296
11516TIP3   OH255962   1.901   3.829  14.346  0.0240  0.0147  0.3102
11516TIP3    H155963   1.830   3.766  14.348 -1.4354  1.5715  0.2104
11516TIP3    H255964   1.878   3.889  14.275  1.2999  0.7242  0.4569
11517TIP3   OH255965   2.994   5.159   1.573 -0.3865  0.2501  0.3553
11517TIP3    H155966   3.019   5.094   1.507 -0.8098 -1.0178  1.3952
11517TIP3    H255967   3.041   5.132   1.652 -0.3942  1.3594  0.7554
11518TIP3   OH255968   4.432   3.155  15.105 -0.2561 -0.8747 -0.1320
11518TIP3    H155969   4.487   3.231  15.089 -0.2031 -0.6909  0.8375
11518TIP3    H255970   4.343   3.191  15.112 -0.3234 -0.9957 -0.3367
11519TIP3   OH255971   5.814   6.392  13.720 -0.6558 -0.1262  0.0921
11519TIP3    H155972   5.852   6.406  13.807 -2.7318  0.6883  0.9361
11519TIP3    H255973   5.853   6.461  13.666 -0.6251  0.4519  0.8291
11520TIP3   OH255974   1.945   6.607   2.468 -0.7397 -0.0936  0.2934
11520TIP3    H155975   1.877   6.557   2.423 -1.9222  1.9759 -0.3620
11520TIP3    H255976   1.959   6.684   2.413  1.7744 -0.1642  0.7007
11521TIP3   OH255977   2.379   4.065  12.071  0.7385  0.7452  0.2681
11521TIP3    H155978   2.288   4.044  12.052  0.4034  3.8802 -2.4608
11521TIP3    H255979   2.427   4.032  11.995  1.4581  1.6146  0.3318
11522TIP3   OH255980   4.503   3.182  11.559 -0.0254 -0.2859  0.6038
11522TIP3    H155981   4.436   3.246  11.581  0.4049  0.4961 -0.2751
11522TIP3    H255982   4.500   3.176  11.464  0.6098 -0.8447  0.6116
11523TIP3   OH255983   6.786   2.862  13.094 -0.5632  0.4459  0.2380
11523TIP3    H155984   6.811   2.882  13.004  0.7259 -2.0664 -0.0596
11523TIP3    H255985   6.775   2.767  13.094 -0.8704  0.4391  2.6760
11524TIP3   OH255986   3.003   3.735   1.960  0.0326  0.0263 -0.9589
11524TIP3    H155987   2.958   3.712   2.041 -0.2309  2.0966 -0.4730
11524TIP3    H255988   2.933   3.742   1.895 -0.5811  3.7092 -0.1019
11525TIP3   OH255989   1.159   3.475   3.765  0.3655  0.2135 -0.4012
11525TIP3    H155990   1.219   3.449   3.694  1.3349 -0.8370  0.7550
11525TIP3    H255991   1.082   3.419   3.753 -0.0256  0.9391 -1.3669
11526TIP3   OH255992   3.937   3.687   4.923 -0.1241  0.3987 -0.2435
11526TIP3    H155993   3.914   3.714   4.834 -0.7095  1.0213  0.0885
11526TIP3    H255994   3.939   3.768   4.973 -3.8441 -0.2229  1.2336
11527TIP3   OH255995   0.673   4.406  13.022  0.1930  0.3318  0.0688
11527TIP3    H155996   0.611   4.418  12.950  0.1577 -1.1760 -0.1995
11527TIP3    H255997   0.678   4.491  13.065 -0.7391  0.9278 -0.9626
11528TIP3   OH255998   1.999   5.644   0.621 -0.2074 -0.0645  0.7156
11528TIP3    H155999   1.933   5.687   0.567  1.0315  0.7926 -0.1836
11528TIP3    H256000   2.001   5.696   0.702 -0.4916  0.0267  0.6666
11529TIP3   OH256001   5.587   5.406  16.533  0.0726 -0.3332 -0.2215
11529TIP3    H156002   5.588   5.370  16.444 -1.0177 -0.1823 -0.3082
11529TIP3    H256003   5.634   5.489  16.526 -2.9232  1.4094 -1.4644
11530TIP3   OH256004   0.419   5.405  12.058  0.2450 -0.3671 -0.8981
11530TIP3    H156005   0.421   5.496  12.028 -0.4333 -0.2039 -0.4676
11530TIP3    H256006   0.505   5.371  12.034  1.2235  0.9085  0.5631
11531TIP3   OH256007   5.287   5.396  16.357 -0.0699 -0.2921  0.2178
11531TIP3    H156008   5.277   5.417  16.450  3.4586 -3.1559  1.4795
11531TIP3    H256009   5.347   5.462  16.323 -0.3992  0.0329  0.2550
11532TIP3   OH256010   0.483   0.839  14.472 -0.2547 -0.2168 -0.3644
11532TIP3    H156011   0.459   0.859  14.562  1.0140  0.3556 -0.1294
11532TIP3    H256012   0.574   0.810  14.477 -0.7692 -2.1969 -1.2256
11533TIP3   OH256013   2.949   1.483   5.615 -0.2959 -0.1062 -0.6461
11533TIP3    H156014   2.970   1.570   5.580 -2.3574  1.2757  1.2727
11533TIP3    H256015   3.034   1.445   5.637  0.9508 -0.1360 -4.6694
11534TIP3   OH256016   4.717   4.403   5.138 -0.2050  0.0478  0.0314
11534TIP3    H156017   4.765   4.403   5.055  0.5453  0.8323  0.4582
11534TIP3    H256018   4.649   4.470   5.125 -1.2330 -1.0783 -0.5804
11535TIP3   OH256019   6.418   1.126   3.852  0.2680  0.2970 -0.5276
11535TIP3    H156020   6.454   1.109   3.939  1.2615  1.6955 -0.6203
11535TIP3    H256021   6.446   1.216   3.832 -2.1013  0.9537 -1.2317
11536TIP3   OH256022   0.389   4.898   3.447 -0.2253  0.3718 -0.2967
11536TIP3    H156023   0.418   4.881   3.536  0.2527  0.0648 -0.5104
11536TIP3    H256024   0.452   4.852   3.391 -0.4173  0.7016 -0.7976
11537TIP3   OH256025   4.921   1.424  13.831 -0.3361 -0.5732  0.1919
11537TIP3    H156026   4.931   1.406  13.738  2.9722  0.8202  0.1383
11537TIP3    H256027   4.980   1.361  13.874 -1.3789 -0.8176  1.3311
11538TIP3   OH256028   4.847   3.883   5.436  0.0194 -0.5315  0.2898
11538TIP3    H156029   4.800   3.800   5.435 -1.4803  0.2636  1.5554
11538TIP3    H256030   4.832   3.920   5.349  0.7379 -1.5637 -0.2995
11539TIP3   OH256031   0.070   3.719   5.028  0.1799  0.2712 -0.3949
11539TIP3    H156032  -0.002   3.661   5.004  2.1827 -1.0347 -3.9180
11539TIP3    H256033   0.057   3.797   4.974  0.0323  1.2015  0.9233
11540TIP3   OH256034   3.724   6.404   5.604  0.2128 -0.0550  0.0012
11540TIP3    H156035   3.761   6.331   5.653  1.5426  0.5923  0.0234
11540TIP3    H256036   3.666   6.448   5.666  0.6624 -0.1604  0.5047
11541TIP3   OH256037   5.572   4.782   5.237 -0.4515  0.3994  0.0995
11541TIP3    H156038   5.554   4.846   5.168  0.8677 -0.6913 -1.3202
11541TIP3    H256039   5.488   4.736   5.249 -0.4496 -0.0704 -1.5291
11542TIP3   OH256040   6.605   2.351   5.000 -0.4459  0.1732 -0.2504
11542TIP3    H156041   6.664   2.279   4.980 -1.9549 -1.1843 -0.0854
11542TIP3    H256042   6.662   2.424   5.023  1.1905 -1.7224  2.2531
11543TIP3   OH256043   6.485   5.077  14.385  0.0337  0.0232 -0.5104
11543TIP3    H156044   6.457   5.161  14.421 -1.2470 -1.5203  2.5445
11543TIP3    H256045   6.412   5.049  14.330 -1.9085 -1.0842  2.3275
11544TIP3   OH256046   5.446   4.593  17.123 -0.1799 -0.6488  0.2326
11544TIP3    H156047   5.384   4.619  17.191 -0.9374 -0.1120 -0.6290
11544TIP3    H256048   5.418   4.504  17.098 -1.2228 -0.0718 -0.7862
11545TIP3   OH256049   2.987   6.738  16.827  0.7090  0.5111 -0.2364
11545TIP3    H156050   3.050   6.679  16.867  0.3661 -0.9384 -1.7123
11545TIP3    H256051   2.917   6.747  16.892  0.3508 -1.4504 -0.2984
11546TIP3   OH256052   1.582   5.084   5.782  0.4706 -0.5934 -0.1220
11546TIP3    H156053   1.622   5.167   5.808 -0.0655 -0.3337 -0.1085
11546TIP3    H256054   1.577   5.033   5.862  1.0008 -0.7241 -0.1705
11547TIP3   OH256055   6.501   4.619  11.860 -0.4267  0.3965  0.4585
11547TIP3    H156056   6.426   4.571  11.825  0.8510 -0.2449 -1.5715
11547TIP3    H256057   6.561   4.551  11.889 -0.5736  0.9072  2.0681
11548TIP3   OH256058   0.234   1.506  15.805  0.2638  0.2873 -0.1989
11548TIP3    H156059   0.255   1.536  15.893 -3.0906 -1.1804  1.3025
11548TIP3    H256060   0.231   1.586  15.752  0.9465  1.3750  1.3188
11549TIP3   OH256061   0.911   0.981   5.866  0.1064  0.0324  0.0103
11549TIP3    H156062   0.960   1.050   5.821 -0.1069  1.2941  1.5986
11549TIP3    H256063   0.978   0.924   5.903  0.3333  0.3294  0.0629
11550TIP3   OH256064   5.619   4.597   4.149  0.5719 -0.2341 -0.7309
11550TIP3    H156065   5.595   4.517   4.101  0.5079 -1.3265  1.0374
11550TIP3    H256066   5.559   4.600   4.223  1.0497  1.0763 -0.3653
11551TIP3   OH256067   1.915   4.422   4.182  0.6132 -0.3528 -0.6151
11551TIP3    H156068   1.934   4.368   4.259 -1.8014 -0.0433  0.2716
11551TIP3    H256069   1.975   4.496   4.190  0.3830 -0.2992  1.0339
11552TIP3   OH256070   6.056   5.489  13.896 -0.2855 -0.0001 -0.2251
11552TIP3    H156071   6.025   5.473  13.985 -1.4251  0.1983 -0.5587
11552TIP3    H256072   6.028   5.579  13.877  1.6735  0.6762 -0.1147
11553TIP3   OH256073   0.220   5.325  15.245  0.0208  0.2667  0.6836
11553TIP3    H156074   0.233   5.291  15.333 -1.0305  0.8823  1.1080
11553TIP3    H256075   0.270   5.407  15.243  0.0664  0.2391  0.7004
11554TIP3   OH256076   2.206   1.687  11.639  0.6067 -0.1023  0.0396
11554TIP3    H156077   2.285   1.741  11.643 -0.4034  1.4226  0.3497
11554TIP3    H256078   2.138   1.746  11.606 -0.4007 -1.3904 -0.2871
11555TIP3   OH256079   6.144   0.275   1.234  0.3358 -0.1684  0.2555
11555TIP3    H156080   6.231   0.305   1.208  0.1620 -0.1076 -0.2805
11555TIP3    H256081   6.152   0.255   1.327  0.5579  1.1902  0.5578
11556TIP3   OH256082   1.265   6.247   5.825  0.4214 -0.2536 -0.8365
11556TIP3    H156083   1.250   6.335   5.861 -1.5229 -0.8949  0.0191
11556TIP3    H256084   1.343   6.216   5.872  0.4643  0.5900 -0.3188
11557TIP3   OH256085   0.785   6.080  13.459  0.1177  0.1058 -0.0126
11557TIP3    H156086   0.801   6.086  13.364 -0.9334  0.2140 -0.1958
11557TIP3    H256087   0.691   6.095  13.468  0.2757  0.4924  1.0928
11558TIP3   OH256088   1.378   0.455   4.831  0.2450  0.1428  0.1354
11558TIP3    H156089   1.436   0.393   4.787 -0.0556 -0.0398 -0.0048
11558TIP3    H256090   1.348   0.410   4.909  2.1151  1.0797  1.4621
11559TIP3   OH256091   1.915   4.313  10.630 -0.5786 -0.5775 -0.7632
11559TIP3    H156092   1.969   4.337  10.706  0.9951 -1.3783 -1.5805
11559TIP3    H256093   1.854   4.386  10.620 -0.2051 -0.0297  0.7144
11560TIP3   OH256094   2.238   1.870  11.289 -0.3515 -0.4000 -0.0672
11560TIP3    H156095   2.327   1.894  11.312 -1.0407  3.2341 -0.5364
11560TIP3    H256096   2.240   1.856  11.194 -0.2604 -0.5183 -0.0480
11561TIP3   OH256097   1.303   4.723  11.436  0.3028  0.0527 -0.7328
11561TIP3    H156098   1.251   4.774  11.373  0.4801  0.1873 -0.7712
11561TIP3    H256099   1.286   4.632  11.412  0.9243  0.1113 -1.4401
11562TIP3   OH256100   4.152   1.234  12.817 -0.2724 -0.4760  0.3365
11562TIP3    H156101   4.198   1.297  12.761 -1.7887  1.0894  0.7707
11562TIP3    H256102   4.211   1.159  12.821  0.8629  0.2211 -1.5778
11563TIP3   OH256103   1.989   1.234   0.799  0.0313  0.3194  0.0456
11563TIP3    H156104   1.905   1.269   0.829  0.1007  0.2163  0.3631
11563TIP3    H256105   2.048   1.247   0.873  0.4811  1.0339 -0.4183
11564TIP3   OH256106   0.120   0.181  11.867 -0.2350  0.0198 -0.0686
11564TIP3    H156107   0.081   0.141  11.945 -1.5672  0.3051 -0.5722
11564TIP3    H256108   0.046   0.217  11.819  0.7923  1.8755 -0.3316
11565TIP3   OH256109   5.637   4.804  16.683 -0.5377  0.1038  0.6651
11565TIP3    H156110   5.691   4.883  16.673 -1.9781  1.1690  0.8641
11565TIP3    H256111   5.674   4.759  16.758  0.4093  0.5187  0.4580
11566TIP3   OH256112   0.604   4.669  14.849  0.3109  0.0458  0.3088
11566TIP3    H156113   0.549   4.666  14.927 -1.4581 -1.9502 -0.9256
11566TIP3    H256114   0.676   4.609  14.868  2.1787  2.5633  1.8712
11567TIP3   OH256115   3.906   2.974  16.519 -0.2531  0.2679  0.0201
11567TIP3    H156116   3.892   2.888  16.559 -1.5681 -0.6850 -2.2955
11567TIP3    H256117   3.891   3.036  16.591 -0.7761 -1.3718  1.4018
11568TIP3   OH256118   3.127   0.376   1.568 -0.4475 -0.5040  0.1674
11568TIP3    H156119   3.129   0.471   1.559  2.5037 -0.2027  2.3768
11568TIP3    H256120   3.151   0.343   1.481 -1.8448  0.6937 -0.7174
11569TIP3   OH256121   6.505   2.323  16.333 -0.4585 -0.4534 -0.7915
11569TIP3    H156122   6.463   2.392  16.282 -0.6176 -1.8485 -2.6584
11569TIP3    H256123   6.455   2.244  16.313  0.5781 -1.3917  0.1512
11570TIP3   OH256124   4.918   2.140  15.984 -0.0366 -0.2401 -0.5857
11570TIP3    H156125   4.871   2.133  15.900 -1.5784  2.4464 -0.0545
11570TIP3    H256126   4.854   2.114  16.050  1.1257 -2.1972 -0.1374
11571TIP3   OH256127   1.174   1.603   2.150  0.3367 -0.1043 -0.2198
11571TIP3    H156128   1.107   1.645   2.095 -0.6956 -1.3981  0.0025
11571TIP3    H256129   1.160   1.509   2.138  0.7496 -0.4182  1.4313
11572TIP3   OH256130   3.083   3.718  12.210  0.0017  0.5860 -0.4719
11572TIP3    H156131   3.155   3.737  12.270  0.7351  1.5610 -1.6051
11572TIP3    H256132   3.011   3.774  12.241  1.3093  3.4456 -2.1809
11573TIP3   OH256133   4.152   6.146  16.168  0.4929 -0.3964  0.1994
11573TIP3    H156134   4.227   6.126  16.112 -1.1009 -4.6251 -0.8689
11573TIP3    H256135   4.097   6.203  16.115  0.4015 -1.9281 -1.4693
11574TIP3   OH256136   5.028   1.151  13.911 -0.2687 -0.1264  0.2278
11574TIP3    H156137   5.014   1.143  13.816  1.2084  0.1075 -0.0313
11574TIP3    H256138   4.986   1.073  13.947  2.0241 -2.0611 -0.9682
11575TIP3   OH256139   6.222   4.596   1.667  0.2362 -0.1440 -0.0657
11575TIP3    H156140   6.266   4.526   1.619  0.4403  0.1155 -0.2631
11575TIP3    H256141   6.203   4.662   1.600  2.6708  1.3090  0.5730
11576TIP3   OH256142   0.767   0.677  14.088 -0.3032  0.0026 -0.0053
11576TIP3    H156143   0.816   0.611  14.136  0.7610  0.9892  0.3217
11576TIP3    H256144   0.759   0.642  13.999 -2.1270 -1.7529  0.7671
11577TIP3   OH256145   3.548   2.862   5.039  0.7781 -0.1154  0.2221
11577TIP3    H156146   3.626   2.917   5.046  0.4936  0.5539 -1.3247
11577TIP3    H256147   3.553   2.803   5.113  2.1611  0.6720  0.7926
11578TIP3   OH256148   5.401   4.656   4.340  0.0443 -0.8002 -0.0965
11578TIP3    H156149   5.361   4.724   4.394 -1.4677 -1.4804 -0.3108
11578TIP3    H256150   5.450   4.602   4.402 -0.8405 -0.9814  0.4606
11579TIP3   OH256151   6.538   6.557   1.322 -0.1884 -0.2379 -0.2892
11579TIP3    H156152   6.519   6.548   1.229  0.7794 -2.8669 -0.3061
11579TIP3    H256153   6.632   6.541   1.330 -0.6723 -3.0837  1.3525
11580TIP3   OH256154   3.288   5.337   6.343  0.9403  0.1084  0.1486
11580TIP3    H156155   3.347   5.281   6.293  0.7953  0.1406 -0.0583
11580TIP3    H256156   3.322   5.426   6.328  0.1368  0.2520 -0.9463
11581TIP3   OH256157   4.877   3.280   2.740 -0.4795 -0.3334  0.8769
11581TIP3    H156158   4.901   3.258   2.650 -2.3326 -0.8300  0.4646
11581TIP3    H256159   4.932   3.222   2.794  2.9693  2.1002  0.3032
11582TIP3   OH256160   6.730   4.398  12.637 -0.5626 -0.0527 -0.2174
11582TIP3    H156161   6.695   4.311  12.652 -0.5788 -0.0903 -0.4607
11582TIP3    H256162   6.748   4.433  12.724 -2.1226  0.3498 -0.0331
11583TIP3   OH256163   0.659   6.159  14.219  0.2550 -0.4425  0.0499
11583TIP3    H156164   0.594   6.123  14.279 -0.2344 -0.2354 -0.3466
11583TIP3    H256165   0.672   6.249  14.250  0.8387 -0.6892  0.5231
11584TIP3   OH256166   4.698   5.458   3.198  0.4714  0.2012 -0.0157
11584TIP3    H156167   4.609   5.453   3.233 -0.0751  1.3146 -1.1906
11584TIP3    H256168   4.706   5.381   3.142  0.2183  0.1628 -0.0017
11585TIP3   OH256169   0.430   1.696   3.589 -0.0640  0.2665  0.3356
11585TIP3    H156170   0.509   1.749   3.586  0.2707 -0.0854  1.9158
11585TIP3    H256171   0.395   1.699   3.500  2.5062 -0.7470 -0.8204
11586TIP3   OH256172   0.619   1.423   2.386 -0.5184 -0.2521 -0.1745
11586TIP3    H156173   0.616   1.332   2.417 -1.6487 -0.7291 -1.5579
11586TIP3    H256174   0.709   1.451   2.400 -0.1528 -1.5935  0.2499
11587TIP3   OH256175   4.440   1.853   3.624  0.3120 -0.3296  0.0277
11587TIP3    H156176   4.508   1.895   3.572 -0.1766 -0.6029 -0.8391
11587TIP3    H256177   4.458   1.881   3.714 -0.5364  2.4667 -0.5956
11588TIP3   OH256178   0.478   4.716  14.239 -0.9920 -0.1110 -0.6951
11588TIP3    H156179   0.565   4.754  14.254 -0.6634 -0.8756 -0.6491
11588TIP3    H256180   0.423   4.791  14.216 -0.6511  0.6014  0.6797
11589TIP3   OH256181   2.779   2.105  11.002  0.4353 -0.6063  0.3922
11589TIP3    H156182   2.688   2.126  10.979  1.0648  0.8285 -1.0187
11589TIP3    H256183   2.786   2.011  10.986 -0.6153 -0.6044 -0.1993
11590TIP3   OH256184   4.443   3.166  13.463  0.2666 -0.2557  0.3126
11590TIP3    H156185   4.428   3.260  13.451  1.4734  0.0577  1.0773
11590TIP3    H256186   4.533   3.161  13.496  0.1671 -1.6759  0.3935
11591TIP3   OH256187   1.068   3.689   0.831 -0.1362 -0.0017 -0.1281
11591TIP3    H156188   0.976   3.678   0.809  0.3567 -0.8126 -2.0043
11591TIP3    H256189   1.106   3.732   0.754  1.3908 -1.3992 -0.2004
11592TIP3   OH256190   2.989   5.579  10.789  0.2271 -0.3723  0.2149
11592TIP3    H156191   3.022   5.614  10.872 -1.0009 -0.8711  0.9426
11592TIP3    H256192   2.929   5.647  10.757  0.2266 -0.4514  0.0501
11593TIP3   OH256193   0.379   6.537   5.856  1.1342 -0.6602  0.0557
11593TIP3    H156194   0.422   6.596   5.794 -0.8012 -0.4493 -1.1359
11593TIP3    H256195   0.307   6.589   5.892  2.0601 -0.8503  2.3764
11594TIP3   OH256196   6.082   4.800   0.575 -0.2600  0.5138 -0.0395
11594TIP3    H156197   6.122   4.819   0.491  0.2523  1.2644  0.3637
11594TIP3    H256198   6.150   4.755   0.625 -0.1078  1.2157  0.4150
11595TIP3   OH256199   1.743   2.006   5.674  1.1614  0.4377 -0.1571
11595TIP3    H156200   1.652   2.023   5.700  0.5875 -0.8624 -1.1515
11595TIP3    H256201   1.780   2.093   5.659 -0.1845  0.9776 -0.5454
11596TIP3   OH256202   6.587   2.989  13.293  0.5978 -0.1640 -0.1882
11596TIP3    H156203   6.602   3.007  13.385 -0.5779  0.8783 -0.1735
11596TIP3    H256204   6.670   2.953  13.261  0.3992 -2.5180  1.7109
11597TIP3   OH256205   2.986   6.505  11.590 -0.3961  0.3460 -0.0527
11597TIP3    H156206   3.069   6.534  11.551 -0.3150 -0.2233 -0.3196
11597TIP3    H256207   2.919   6.544  11.534 -0.2825 -0.2958 -0.6459
11598TIP3   OH256208   4.885   0.575   2.635 -0.1082 -0.2089 -0.0222
11598TIP3    H156209   4.861   0.663   2.609  0.0507  0.1098  0.8529
11598TIP3    H256210   4.809   0.521   2.614 -0.6499  0.3464  0.4677
11599TIP3   OH256211   1.614   1.286   1.694  0.1763 -0.1918 -0.1069
11599TIP3    H156212   1.681   1.265   1.629  0.0837  0.4825 -0.4370
11599TIP3    H256213   1.551   1.340   1.646  0.6519  1.2223  0.7829
11600TIP3   OH256214   4.696   6.159   2.053 -0.2051 -0.0111 -0.4969
11600TIP3    H156215   4.753   6.142   2.128 -0.1870  1.1673 -0.2210
11600TIP3    H256216   4.610   6.128   2.082  0.2665 -1.8460 -0.9366
11601TIP3   OH256217   2.641   0.583   0.910  0.7152  0.0078 -0.1622
11601TIP3    H156218   2.645   0.656   0.848  0.8490  0.7958  0.7542
11601TIP3    H256219   2.585   0.518   0.867 -0.3400  1.1226 -0.5212
11602TIP3   OH256220   2.814   3.176   2.468  0.4395 -0.4068 -0.0377
11602TIP3    H156221   2.744   3.113   2.452  1.0019 -1.3713  1.1599
11602TIP3    H256222   2.769   3.254   2.502 -0.2667 -0.0948 -1.6065
11603TIP3   OH256223   3.585   6.529   1.303 -0.2384  0.4216 -0.1186
11603TIP3    H156224   3.534   6.458   1.263 -0.4418  0.3517  0.2605
11603TIP3    H256225   3.521   6.599   1.318 -0.3640  0.0944  0.9446
11604TIP3   OH256226   2.408   5.829  14.821 -0.0479 -0.4779 -0.0301
11604TIP3    H156227   2.460   5.821  14.741 -1.7088  2.1284 -1.5338
11604TIP3    H256228   2.473   5.840  14.890  1.4358 -1.7242 -1.1525
11605TIP3   OH256229   5.083   4.013   2.270 -0.5062 -0.1405 -0.1985
11605TIP3    H156230   5.061   3.935   2.321 -1.6583 -0.4184 -1.0640
11605TIP3    H256231   5.172   4.035   2.296 -0.6393 -0.9710  1.0295
11606TIP3   OH256232   2.180   3.780   2.086 -0.1610 -0.0923 -0.3771
11606TIP3    H156233   2.232   3.708   2.050 -0.5363  0.1369 -1.4252
11606TIP3    H256234   2.090   3.758   2.062 -0.3657  0.3090  0.0230
11607TIP3   OH256235   3.618   2.028   5.407 -0.2277 -0.4176  0.1438
11607TIP3    H156236   3.699   1.988   5.376 -1.5897 -0.7646 -3.3238
11607TIP3    H256237   3.609   1.995   5.497  3.4291 -0.2764  0.7487
11608TIP3   OH256238   5.690   0.546  16.236  0.4814 -0.3902  0.3700
11608TIP3    H156239   5.728   0.614  16.180  1.0008 -0.4095  0.6944
11608TIP3    H256240   5.679   0.589  16.321 -2.0462  0.2229 -0.1739
11609TIP3   OH256241   5.500   3.563  10.986 -0.2419  0.1249 -0.6462
11609TIP3    H156242   5.533   3.632  10.928 -2.7766  2.2874  0.2841
11609TIP3    H256243   5.434   3.607  11.040 -1.9326 -3.0558  0.0784
11610TIP3   OH256244   0.716   3.555  13.635 -0.5414 -0.4079  0.6478
11610TIP3    H156245   0.807   3.539  13.609 -0.2215  0.7706  0.9812
11610TIP3    H256246   0.720   3.568  13.730 -0.9898  0.0577  0.6080
11611TIP3   OH256247   6.091   4.055  13.119  0.2692  0.2527 -0.3591
11611TIP3    H156248   6.087   4.105  13.200  0.9548 -1.7328  0.9839
11611TIP3    H256249   6.052   3.970  13.140  0.3849 -0.2960 -2.1361
11612TIP3   OH256250   6.309   2.846  12.487 -0.2861 -0.1987  0.2894
11612TIP3    H156251   6.404   2.859  12.486 -0.2832 -0.2492 -0.4042
11612TIP3    H256252   6.282   2.861  12.397 -1.1710  1.5192  0.7929
11613TIP3   OH256253   5.524   4.344   1.303 -0.1919  0.4121  0.1511
11613TIP3    H156254   5.552   4.268   1.354 -0.1176  0.0787 -0.3674
11613TIP3    H256255   5.588   4.350   1.232 -1.1423 -0.0899 -0.7933
11614TIP3   OH256256   4.747   3.775  14.264 -0.8869  0.1509 -0.4292
11614TIP3    H156257   4.733   3.693  14.312 -0.6109 -0.5626 -1.5140
11614TIP3    H256258   4.758   3.747  14.173  1.1834  1.1853 -0.5703
11615TIP3   OH256259   6.763   2.172  15.742  0.5413  0.5780 -0.5640
11615TIP3    H156260   6.767   2.161  15.647 -1.1554  1.3675 -0.7719
11615TIP3    H256261   6.687   2.119  15.768  1.1743  0.1264  0.3989
11616TIP3   OH256262   1.046   1.537  13.743  0.3418 -0.5217  0.2294
11616TIP3    H156263   1.096   1.551  13.663 -0.6111 -1.2875 -0.5226
11616TIP3    H256264   1.044   1.623  13.785 -1.2806  0.5444 -1.8433
11617TIP3   OH256265   3.332   0.789   5.425 -0.8326  0.4994 -0.1551
11617TIP3    H156266   3.368   0.706   5.393 -0.8209  0.6153 -0.4517
11617TIP3    H256267   3.410   0.842   5.445 -0.7736 -0.4191  2.4330
11618TIP3   OH256268   1.365   5.246   2.764  0.4258 -0.4708 -0.6883
11618TIP3    H156269   1.380   5.339   2.780 -1.8669 -0.0693 -0.5966
11618TIP3    H256270   1.350   5.240   2.670  2.4797 -1.0936 -1.0285
11619TIP3   OH256271   4.508   5.767  13.764  0.5256 -0.2180  0.0567
11619TIP3    H156272   4.471   5.800  13.846 -3.7869 -1.5143 -1.1315
11619TIP3    H256273   4.542   5.681  13.787  0.4333 -0.0898  0.7166
11620TIP3   OH256274   5.601   5.573  16.906  0.4331 -0.4062  0.5719
11620TIP3    H156275   5.652   5.628  16.966  1.8720  0.6929 -1.5099
11620TIP3    H256276   5.566   5.635  16.842  0.3894 -1.6889 -0.6963
11621TIP3   OH256277   1.546   5.171   6.170  0.4403 -0.6132  0.0979
11621TIP3    H156278   1.550   5.241   6.235  1.5440 -1.6394  1.1908
11621TIP3    H256279   1.485   5.203   6.104  1.8641  1.9365 -0.1134
11622TIP3   OH256280   2.760   3.809   4.217 -0.0445  0.5180  0.7404
11622TIP3    H156281   2.828   3.746   4.242 -0.1905  0.5148  1.1278
11622TIP3    H256282   2.767   3.879   4.282  0.9864  1.5537 -0.4327
11623TIP3   OH256283   1.372   1.567   1.935  0.0411  0.2868 -0.2204
11623TIP3    H156284   1.294   1.531   1.978 -1.8070  1.9340 -1.9569
11623TIP3    H256285   1.353   1.559   1.841  0.9347  2.6995 -0.6804
11624TIP3   OH256286   1.788   1.923  11.298 -0.6641  0.1368  0.8524
11624TIP3    H156287   1.774   1.890  11.387  1.2629 -0.5963  0.9368
11624TIP3    H256288   1.817   2.014  11.311 -1.6967  0.4838  0.8624
11625TIP3   OH256289   1.061   5.008  10.537 -0.0153  0.6405  0.3898
11625TIP3    H156290   0.996   4.997  10.606 -0.3262  1.0825  0.1673
11625TIP3    H256291   1.057   5.101  10.514  0.2008  0.5307 -0.1089
11626TIP3   OH256292   0.019   1.317  12.465 -0.5701  0.2361 -0.2975
11626TIP3    H156293   0.049   1.318  12.556 -0.2236 -1.9795 -0.3266
11626TIP3    H256294  -0.071   1.350  12.469 -1.0036 -0.9920  1.0767
11627TIP3   OH256295   3.724   6.724  16.702  0.7819 -0.8541  0.0092
11627TIP3    H156296   3.656   6.791  16.691  3.5433  1.8149 -3.4377
11627TIP3    H256297   3.694   6.651  16.648  1.3322  1.1024 -3.2204
11628TIP3   OH256298   6.555   0.507  12.133  0.4062 -0.0856  0.2179
11628TIP3    H156299   6.628   0.484  12.076 -0.4140 -0.7410 -0.5826
11628TIP3    H256300   6.529   0.424  12.173  0.4476  0.2396  0.9423
11629TIP3   OH256301   1.316   5.328  13.581 -0.3844 -0.2766  0.2995
11629TIP3    H156302   1.387   5.392  13.579  0.8897 -1.6456  0.1179
11629TIP3    H256303   1.262   5.354  13.656 -0.1872  1.2755 -0.0636
11630TIP3   OH256304   1.871   5.105   4.767 -0.4844  0.2144 -0.5111
11630TIP3    H156305   1.957   5.087   4.729  0.2146  0.2053  1.0293
11630TIP3    H256306   1.884   5.100   4.861 -1.7553  2.0458 -0.1748
11631TIP3   OH256307   5.748   1.803   0.867 -0.7835 -0.6481  0.6582
11631TIP3    H156308   5.691   1.879   0.857 -0.9857 -0.7983  0.6671
11631TIP3    H256309   5.814   1.831   0.931  0.4863  0.2992 -0.9890
11632TIP3   OH256310   4.471   5.014   3.781 -0.2182  0.0431 -0.5710
11632TIP3    H156311   4.414   4.991   3.854  1.0849  0.5367  0.6681
11632TIP3    H256312   4.507   5.100   3.805  1.6788 -0.6192 -0.8392
11633TIP3   OH256313   3.895   0.423   6.604 -0.1711 -0.1790 -0.5986
11633TIP3    H156314   3.834   0.457   6.669 -1.3922 -2.4984 -0.4184
11633TIP3    H256315   3.868   0.464   6.522  0.8188  2.0786  0.1234
11634TIP3   OH256316   1.260   1.325   2.750 -0.1370 -0.0932  0.6855
11634TIP3    H156317   1.268   1.407   2.701 -0.8356 -0.5977 -0.2963
11634TIP3    H256318   1.333   1.327   2.811  0.6709  0.6257 -0.2708
11635TIP3   OH256319   5.426   0.351  16.307  0.3469  0.1163  0.8440
11635TIP3    H156320   5.480   0.280  16.273  0.9714  0.2097  1.6103
11635TIP3    H256321   5.469   0.377  16.389 -0.5804  0.5246  1.2194
11636TIP3   OH256322   5.080   5.349  13.627 -0.7607  0.3673  0.2058
11636TIP3    H156323   5.023   5.352  13.705  0.1765 -0.2756  0.9397
11636TIP3    H256324   5.135   5.271  13.641  0.5483  1.1761 -0.3027
11637TIP3   OH256325   4.513   5.867   2.045  0.5103 -0.2580  0.1095
11637TIP3    H156326   4.480   5.823   2.123 -2.4535  0.2444 -0.7541
11637TIP3    H256327   4.441   5.863   1.982  1.3493  2.7378 -1.2414
11638TIP3   OH256328   6.056   2.751   1.052  0.4453  0.0831  0.6141
11638TIP3    H156329   5.985   2.785   0.998  0.2894 -0.0221  0.7504
11638TIP3    H256330   6.013   2.694   1.115  0.7522 -0.7698  0.0745
11639TIP3   OH256331   1.341   5.913   3.054 -0.1394 -0.3302 -0.5313
11639TIP3    H156332   1.386   5.916   3.138 -2.3373  1.5822  0.7272
11639TIP3    H256333   1.290   5.832   3.057  0.8229 -0.9535 -0.6467
11640TIP3   OH256334   1.394   0.932  15.267  0.5878  0.0725  0.0133
11640TIP3    H156335   1.315   0.985  15.264 -0.9333 -2.0256  0.3077
11640TIP3    H256336   1.363   0.843  15.246  2.8390 -0.8453  0.3349
11641TIP3   OH256337   1.336   4.712   2.180 -0.2263 -0.3118  0.5341
11641TIP3    H156338   1.347   4.676   2.092 -0.8491 -0.8585  0.6689
11641TIP3    H256339   1.275   4.785   2.169  0.1294 -0.0257  0.4345
11642TIP3   OH256340   5.622   5.404   3.147 -0.1818 -0.4495  0.0584
11642TIP3    H156341   5.618   5.496   3.171  0.7368 -0.2798 -0.4122
11642TIP3    H256342   5.573   5.398   3.065  0.1128 -0.3125 -0.1252
11643TIP3   OH256343   0.016   5.724   3.896 -0.4040 -0.4395 -0.0740
11643TIP3    H156344  -0.007   5.663   3.966  0.8329 -1.4797 -0.5406
11643TIP3    H256345   0.078   5.676   3.841  0.8496  1.3487 -0.3004
11644TIP3   OH256346   0.122   1.942  15.247 -0.2180 -0.2327 -0.2836
11644TIP3    H156347   0.128   1.851  15.277  1.0767 -0.1759 -0.3088
11644TIP3    H256348   0.211   1.977  15.259 -0.7097  1.0409 -0.2340
11645TIP3   OH256349   5.614   5.165  12.517  0.1007 -0.0676 -0.3027
11645TIP3    H156350   5.587   5.221  12.590  0.5811  0.3807 -0.4581
11645TIP3    H256351   5.656   5.225  12.456  0.4117 -0.5648 -0.5806
11646TIP3   OH256352   6.145   3.869  14.618 -0.0632 -0.6212 -0.1338
11646TIP3    H156353   6.194   3.787  14.617 -0.5258 -0.9530  1.6774
11646TIP3    H256354   6.100   3.869  14.702 -1.3521  0.7521 -0.7889
11647TIP3   OH256355   0.703   3.104  13.715 -0.5076 -0.0209 -0.5072
11647TIP3    H156356   0.666   3.134  13.799 -1.6131  0.3528 -1.1071
11647TIP3    H256357   0.629   3.065  13.669  0.0290  0.0334 -1.4329
11648TIP3   OH256358   4.899   2.628  11.678  0.5521  0.0919 -0.5256
11648TIP3    H156359   4.804   2.632  11.683  0.6242  1.0835  0.2420
11648TIP3    H256360   4.927   2.599  11.765  0.8668 -2.5024 -1.4000
11649TIP3   OH256361   3.295   5.280  13.639  0.0317 -0.1792  0.1946
11649TIP3    H156362   3.300   5.332  13.560  1.0784 -0.7648 -0.1475
11649TIP3    H256363   3.202   5.276  13.660 -0.1443  1.0174 -0.2928
11650TIP3   OH256364   1.827   0.590  11.089 -0.3660  0.6643  0.3972
11650TIP3    H156365   1.776   0.655  11.042 -0.3403 -0.3523 -1.1033
11650TIP3    H256366   1.854   0.527  11.022 -2.5614 -2.3448  2.0940
11651TIP3   OH256367   6.456   1.413  11.967 -0.3241 -0.6185 -0.0326
11651TIP3    H156368   6.516   1.358  12.017 -0.6392  0.6354  1.8279
11651TIP3    H256369   6.411   1.352  11.908  1.4191 -1.8587 -0.1780
11652TIP3   OH256370   3.202   1.017  17.079  0.3113  0.0020 -0.1206
11652TIP3    H156371   3.186   1.109  17.058  0.6553 -0.0287 -0.5392
11652TIP3    H256372   3.182   1.009  17.172 -0.8929  0.2327 -0.3352
11653TIP3   OH256373   5.696   5.843  12.591  0.1949 -0.5088 -0.2230
11653TIP3    H156374   5.783   5.807  12.611  0.7208  0.0145 -1.4324
11653TIP3    H256375   5.660   5.867  12.676  1.4533 -0.2542  0.2620
11654TIP3   OH256376   0.802   3.341   4.118  0.1927  0.2559 -0.0469
11654TIP3    H156377   0.719   3.295   4.126 -0.1758  1.0714  1.2293
11654TIP3    H256378   0.793   3.416   4.178  2.5787 -0.7163  1.6650
11655TIP3   OH256379   0.953   5.331   5.909  0.6342 -0.8833  0.1892
11655TIP3    H156380   1.011   5.370   5.974  0.1400  0.1680  0.0188
11655TIP3    H256381   0.866   5.338   5.947  0.2913  0.0906 -0.7325
11656TIP3   OH256382   5.809   1.440  14.916 -0.2937 -0.1287 -0.4092
11656TIP3    H156383   5.818   1.462  14.823 -0.6657  0.2837 -0.3525
11656TIP3    H256384   5.714   1.436  14.930 -0.2405 -0.0438 -0.0126
11657TIP3   OH256385   1.741   0.712  12.097 -0.3504 -0.3043  0.9243
11657TIP3    H156386   1.678   0.712  12.169  0.3382 -0.3859  1.5291
11657TIP3    H256387   1.819   0.752  12.133  0.2064 -0.9032  0.4063
11658TIP3   OH256388   1.462   6.402  14.438  0.1974  0.1094 -0.6056
11658TIP3    H156389   1.431   6.489  14.412 -0.2458 -0.2668 -1.3931
11658TIP3    H256390   1.453   6.400  14.533 -0.4330  0.6731 -0.6476
11659TIP3   OH256391   3.433   4.884  11.414 -0.5817 -0.4305 -0.6942
11659TIP3    H156392   3.518   4.841  11.418  0.4545  1.5705  1.9445
11659TIP3    H256393   3.454   4.977  11.400 -2.4192 -0.0745 -1.3497
11660TIP3   OH256394   2.005   2.309  16.170  0.4217  0.2222  0.0722
11660TIP3    H156395   2.076   2.282  16.111  1.0755  0.1860  0.8587
11660TIP3    H256396   2.018   2.403  16.181 -0.3596  0.4366 -0.6868
11661TIP3   OH256397   1.976   4.714   4.258 -0.2724 -0.1483  0.0338
11661TIP3    H156398   2.051   4.762   4.222  0.8058 -1.7989  0.0015
11661TIP3    H256399   1.911   4.782   4.276 -0.2616  0.9689 -3.4475
11662TIP3   OH256400   5.606   6.587   3.044 -0.5389 -0.3787 -0.2250
11662TIP3    H156401   5.691   6.623   3.019  0.3415 -0.4756  2.3212
11662TIP3    H256402   5.558   6.661   3.080 -0.6864 -0.7328  0.3274
11663TIP3   OH256403   1.035   1.662  13.255  0.0395 -0.2320  0.3830
11663TIP3    H156404   1.084   1.694  13.179 -2.2201 -0.4670 -1.2596
11663TIP3    H256405   1.069   1.714  13.328  2.8524 -0.5452 -0.5693
11664TIP3   OH256406   4.582   4.593   4.016  0.6100  0.0428  0.0916
11664TIP3    H156407   4.625   4.678   4.016  1.9429 -0.6169 -0.3840
11664TIP3    H256408   4.563   4.576   4.108  1.1442  0.4507  0.2804
11665TIP3   OH256409   4.404   4.814  14.717 -0.6331 -0.5473  0.2243
11665TIP3    H156410   4.484   4.792  14.668  0.5745  1.1651  1.3230
11665TIP3    H256411   4.387   4.736  14.770 -0.2465 -1.2782 -0.6854
11666TIP3   OH256412   1.808   4.034   5.663 -0.8406  0.2980  0.5711
11666TIP3    H156413   1.792   4.128   5.667  1.1445  0.7877 -1.0278
11666TIP3    H256414   1.726   3.997   5.632 -0.9691  1.8141 -1.0782
11667TIP3   OH256415   3.032   1.335  15.082  0.3061  0.1571 -0.4621
11667TIP3    H156416   3.080   1.258  15.112  0.1505 -0.4677 -1.7172
11667TIP3    H256417   3.081   1.409  15.116  0.1094 -0.4785  1.3259
11668TIP3   OH256418   4.639   2.032  16.690  0.0097 -0.3382  0.3565
11668TIP3    H156419   4.630   1.949  16.642 -0.9838 -0.0432 -0.0054
11668TIP3    H256420   4.549   2.062  16.701  0.2490 -0.0895  1.8953
11669TIP3   OH256421   4.737   2.375   4.712  0.2154 -0.1022 -0.4933
11669TIP3    H156422   4.766   2.383   4.621  2.1742 -0.6507  0.0348
11669TIP3    H256423   4.818   2.384   4.763 -0.9235  0.7903  1.2330
11670TIP3   OH256424   2.974   6.122   4.024  0.5611  0.1361  0.1236
11670TIP3    H156425   2.965   6.147   4.116 -0.1840 -4.1897  1.4651
11670TIP3    H256426   2.887   6.139   3.986  1.0648  2.5980 -0.1087
11671TIP3   OH256427   3.918   1.303   2.432 -0.2868  0.2284 -0.5582
11671TIP3    H156428   3.823   1.308   2.426 -0.4430 -0.2151  0.9932
11671TIP3    H256429   3.943   1.233   2.373 -0.9056  0.4220 -1.0608
11672TIP3   OH256430   6.226   5.158   5.093 -0.0491  0.2651  0.0973
11672TIP3    H156431   6.133   5.149   5.111  0.0215  0.4156  0.5439
11672TIP3    H256432   6.236   5.126   5.003 -0.9012  2.5316 -0.8634
11673TIP3   OH256433   1.965   2.153  12.499 -0.1764 -0.4236  0.1467
11673TIP3    H156434   1.953   2.207  12.577  0.5213 -1.5433  1.0652
11673TIP3    H256435   1.878   2.115  12.482 -0.4479  0.2191  0.0513
11674TIP3   OH256436   4.471   1.956  14.084  0.0433  0.1859 -0.0668
11674TIP3    H156437   4.415   1.897  14.135  1.3346 -0.2816  0.8727
11674TIP3    H256438   4.498   1.905  14.009  1.3638 -0.5624  0.8751
11675TIP3   OH256439   2.402   6.487   5.244 -0.1795  0.1050 -0.1012
11675TIP3    H156440   2.473   6.548   5.265  0.3059 -0.5908  0.3206
11675TIP3    H256441   2.324   6.542   5.238  0.1744  0.7072  0.7139
11676TIP3   OH256442   5.270   6.081  13.996  0.4710  0.2624 -0.0547
11676TIP3    H156443   5.176   6.093  13.983 -0.1703 -1.4415  2.3015
11676TIP3    H256444   5.301   6.165  14.030 -0.4406  0.4400  0.3487
11677TIP3   OH256445   3.762   1.160  13.119  0.2331  0.0446  0.8219
11677TIP3    H156446   3.777   1.175  13.026 -2.7118 -0.4088  0.1796
11677TIP3    H256447   3.715   1.238  13.149 -2.1112 -1.3338  0.9722
11678TIP3   OH256448   6.012   6.366  12.530  0.4145  0.0932 -0.2217
11678TIP3    H156449   6.011   6.459  12.551 -1.2634  0.1644 -0.4693
11678TIP3    H256450   6.036   6.323  12.612 -4.1648  0.4730  1.6663
11679TIP3   OH256451   0.153   4.788  15.849  0.0534  0.2640  0.1429
11679TIP3    H156452   0.216   4.804  15.779 -1.3869 -1.1885 -1.5896
11679TIP3    H256453   0.080   4.847  15.830 -1.6272 -2.1609 -1.3964
11680TIP3   OH256454   0.358   2.821  12.003  0.5408  0.3583  0.0571
11680TIP3    H156455   0.358   2.742  12.057 -0.7225  0.3326  0.0550
11680TIP3    H256456   0.285   2.873  12.036 -0.9724 -0.1282 -2.2279
11681TIP3   OH256457   4.284   5.628   5.348  0.2051  0.8360  0.2820
11681TIP3    H156458   4.265   5.720   5.365  0.0460  0.5925  1.5067
11681TIP3    H256459   4.354   5.606   5.410 -0.0092  0.0336  0.2514
11682TIP3   OH256460   6.103   5.913  12.704 -0.0609 -0.0294  0.3470
11682TIP3    H156461   6.070   5.861  12.630  0.7967 -0.6252  0.3662
11682TIP3    H256462   6.185   5.870  12.728  0.2601  0.8706  0.8871
11683TIP3   OH256463   3.932   0.376  11.811  0.3182 -0.0039 -0.3634
11683TIP3    H156464   3.952   0.466  11.785 -1.3353  0.9144  1.2729
11683TIP3    H256465   4.017   0.334  11.821  1.1332  1.4143 -1.0221
11684TIP3   OH256466   2.438   5.022   1.132 -0.1817 -0.8143 -0.3726
11684TIP3    H156467   2.425   4.950   1.194  0.2099 -1.3959 -0.9411
11684TIP3    H256468   2.533   5.037   1.134 -0.3065 -0.0521  0.0206
11685TIP3   OH256469   6.554   1.995  11.434 -0.5952  0.3229  0.4066
11685TIP3    H156470   6.463   1.992  11.403 -1.3063  0.1462  2.3727
11685TIP3    H256471   6.548   2.031  11.523  1.2509  0.1845  0.6191
11686TIP3   OH256472   4.013   3.041  17.089  0.4919 -0.6335 -0.0223
11686TIP3    H156473   4.097   2.996  17.080  1.3181  0.7543  0.4337
11686TIP3    H256474   4.036   3.132  17.106 -1.1112 -0.0299 -0.7957
11687TIP3   OH256475   4.344   2.752  11.160  0.3593  0.8850  0.5578
11687TIP3    H156476   4.430   2.730  11.124 -0.1055  1.1535 -0.7943
11687TIP3    H256477   4.324   2.681  11.220 -0.0168 -1.1481 -1.8163
11688TIP3   OH256478   0.556   5.673   4.942  0.3133  0.1666  0.2244
11688TIP3    H156479   0.579   5.615   5.015 -1.6729 -1.5095 -0.3636
11688TIP3    H256480   0.637   5.718   4.921  1.4980 -0.9957  1.9724
11689TIP3   OH256481   2.512   1.580  12.893 -0.7255 -0.2909  0.1204
11689TIP3    H156482   2.474   1.507  12.843 -0.3756 -0.0971 -0.4341
11689TIP3    H256483   2.603   1.583  12.866 -0.5770 -0.0483  0.6272
11690TIP3   OH256484   0.143   6.500  15.569  0.0688 -0.6560  0.5346
11690TIP3    H156485   0.187   6.416  15.558  1.8671  0.4233 -1.2881
11690TIP3    H256486   0.189   6.542  15.642  0.1512 -0.6865  0.5015
11691TIP3   OH256487   3.122   1.644   2.074 -0.1698 -0.3814 -0.0984
11691TIP3    H156488   3.173   1.682   2.002  1.3480 -2.7931 -0.3888
11691TIP3    H256489   3.049   1.599   2.031 -0.6866  0.2472  0.0927
11692TIP3   OH256490   4.270   6.341  11.855  0.2868 -0.5761 -0.3709
11692TIP3    H156491   4.207   6.339  11.927  2.2622  0.4497  1.4876
11692TIP3    H256492   4.258   6.428  11.816 -0.7463 -1.1120 -1.2999
11693TIP3   OH256493   5.919   2.337  13.415  0.3650  0.3983 -1.0026
11693TIP3    H156494   5.901   2.408  13.476  0.8584  0.4997 -0.9705
11693TIP3    H256495   5.833   2.311  13.382  0.1843  1.0233 -1.0339
11694TIP3   OH256496   5.502   0.159  11.635 -0.1281  0.5909 -0.0614
11694TIP3    H156497   5.443   0.182  11.706 -0.6900 -0.8065 -0.0594
11694TIP3    H256498   5.445   0.136  11.562  0.4035 -0.1911 -0.2441
11695TIP3   OH256499   5.430   4.291   0.365  0.4446  0.5256  0.7938
11695TIP3    H156500   5.485   4.368   0.350 -0.6019  1.4351  1.3909
11695TIP3    H256501   5.361   4.323   0.423 -0.1095 -0.8393  0.9193
11696TIP3   OH256502   1.493   6.133   5.974  0.4031 -0.1214  0.1082
11696TIP3    H156503   1.493   6.203   6.039  0.3520 -0.0054 -0.0171
11696TIP3    H256504   1.500   6.052   6.025  1.1215  0.0048  0.2233
11697TIP3   OH256505   1.293   1.759  15.857 -0.0863 -0.0056 -0.3327
11697TIP3    H156506   1.332   1.731  15.775 -2.8260 -1.0573 -1.4049
11697TIP3    H256507   1.237   1.833  15.833  0.0498  0.4969  0.8358
11698TIP3   OH256508   3.013   6.060  14.802  0.6102 -0.4200 -0.2296
11698TIP3    H156509   3.050   6.109  14.876  0.7458 -2.0384  0.8332
11698TIP3    H256510   2.933   6.108  14.779 -0.9148 -1.2800  2.7420
11699TIP3   OH256511   5.202   5.080  12.205 -0.6122 -0.3108  0.0137
11699TIP3    H156512   5.214   5.169  12.238 -1.2404 -0.1304 -0.2213
11699TIP3    H256513   5.242   5.081  12.118 -1.5274  0.0436 -0.4163
11700TIP3   OH256514   6.076   5.545   5.798  0.6737 -0.3515  0.4821
11700TIP3    H156515   6.063   5.547   5.893 -0.9813 -1.8608  0.3434
11700TIP3    H256516   6.100   5.454   5.779 -0.9986 -0.5922 -0.7205
11701TIP3   OH256517   4.869   0.086  14.431 -0.4628  0.1317  0.3527
11701TIP3    H156518   4.811   0.031  14.377  0.1516 -1.4299  1.1960
11701TIP3    H256519   4.920   0.023  14.481  2.1088  1.4411 -0.4634
11702TIP3   OH256520   5.252   6.588   0.556 -0.0776 -0.4922 -0.1215
11702TIP3    H156521   5.254   6.496   0.581  0.1284 -1.3189 -2.8581
11702TIP3    H256522   5.171   6.597   0.507  1.4591 -0.1220 -2.7660
11703TIP3   OH256523   0.497   3.728   0.845 -0.3984 -0.0675 -0.0051
11703TIP3    H156524   0.509   3.783   0.923  0.2328  0.8395 -0.7132
11703TIP3    H256525   0.586   3.703   0.820 -0.6790 -1.4182  0.2916
11704TIP3   OH256526   6.296   4.962  14.175  0.2061 -0.3331 -0.2435
11704TIP3    H156527   6.262   4.926  14.257 -0.9967  1.9242  0.3470
11704TIP3    H256528   6.278   4.894  14.109 -0.7490 -1.3182  0.9952
11705TIP3   OH256529   2.240   0.815   0.780  0.5532 -0.4067 -0.9058
11705TIP3    H156530   2.179   0.836   0.709  0.4933 -0.7084 -0.9459
11705TIP3    H256531   2.302   0.887   0.780 -0.4045  0.4438 -0.1824
11706TIP3   OH256532   3.556   3.972   1.371 -0.3758  0.4488 -0.1589
11706TIP3    H156533   3.637   4.005   1.331  0.9350 -1.5620  0.6948
11706TIP3    H256534   3.532   4.040   1.434  1.4508  0.4831  0.5798
11707TIP3   OH256535   0.353   0.366   6.153 -0.2754  0.3452 -0.2439
11707TIP3    H156536   0.403   0.448   6.155 -1.2208  1.0187 -1.9727
11707TIP3    H256537   0.271   0.389   6.110 -1.3898 -1.1180  0.9802
11708TIP3   OH256538   6.639   0.776  14.335  0.2531 -0.1600 -0.4640
11708TIP3    H156539   6.600   0.776  14.422  1.2921 -1.8565  0.0607
11708TIP3    H256540   6.594   0.706  14.288  1.8703 -1.4443 -0.1822
11709TIP3   OH256541   4.955   0.257  15.112  0.6748 -0.4141  0.7580
11709TIP3    H156542   4.962   0.313  15.189  0.8784  0.6021  0.0211
11709TIP3    H256543   5.045   0.252  15.078  0.2412  1.2228 -0.8086
11710TIP3   OH256544   2.084   3.593   0.813  0.3635 -0.2995 -0.0955
11710TIP3    H156545   1.991   3.615   0.817  0.8194  1.7679  0.4967
11710TIP3    H256546   2.114   3.630   0.731  0.5400 -1.6714 -0.6808
11711TIP3   OH256547   5.068   5.566   5.916 -0.2459 -0.0485  0.0415
11711TIP3    H156548   5.004   5.524   5.974  0.8798  0.6778  1.8758
11711TIP3    H256549   5.076   5.504   5.843  0.4697 -2.5350  2.0596
11712TIP3   OH256550   1.803   1.021  14.710 -0.2703 -0.6636  0.3550
11712TIP3    H156551   1.711   1.043  14.722 -0.6823 -1.8510 -0.4068
11712TIP3    H256552   1.815   0.940  14.759  0.5312 -0.1855  0.9643
11713TIP3   OH256553   4.350   2.018  13.360 -0.3479  0.4863 -0.2456
11713TIP3    H156554   4.267   1.971  13.368 -0.9877  1.7138  0.6864
11713TIP3    H256555   4.406   1.979  13.427  0.1305 -0.8852 -1.4019
11714TIP3   OH256556   1.022   5.250  15.605 -0.0538  0.0981  0.1471
11714TIP3    H156557   0.984   5.212  15.684  0.9016  0.1054  0.6229
11714TIP3    H256558   1.020   5.178  15.542  1.8456 -0.8525  1.0790
11715TIP3   OH256559   2.063   1.248   1.772  0.1140  0.2815 -1.1485
11715TIP3    H156560   2.116   1.292   1.706 -1.3578 -0.2109 -2.7375
11715TIP3    H256561   1.984   1.302   1.778 -0.0202 -0.0092 -0.2125
11716TIP3   OH256562   0.664   5.852   3.131 -0.0086 -0.1453  0.0435
11716TIP3    H156563   0.650   5.844   3.036  1.3415 -3.2425 -0.0102
11716TIP3    H256564   0.747   5.807   3.147 -0.5008 -0.2413  2.7888
11717TIP3   OH256565   1.569   6.024   1.177 -0.2467  0.1141  0.0405
11717TIP3    H156566   1.537   6.011   1.267  0.9697  0.0338  0.4781
11717TIP3    H256567   1.501   6.077   1.135 -0.1863  1.3488  1.4272
11718TIP3   OH256568   4.707   6.241   1.212  0.4750 -0.1572 -0.3607
11718TIP3    H156569   4.624   6.244   1.259  0.7702 -3.1815  0.5767
11718TIP3    H256570   4.760   6.310   1.253 -0.6537 -0.0077  0.9328
11719TIP3   OH256571   0.996   2.697  13.528 -0.1189 -0.3451 -0.1956
11719TIP3    H156572   0.947   2.778  13.537 -0.2472 -0.4483  0.0495
11719TIP3    H256573   0.987   2.654  13.613  1.6686  0.3422  0.3940
11720TIP3   OH256574   0.687   6.699  12.413 -0.6912  0.4197 -0.2778
11720TIP3    H156575   0.676   6.785  12.454  0.4894  0.9624 -1.0184
11720TIP3    H256576   0.719   6.720  12.325 -0.4393 -0.7764 -0.4783
11721TIP3   OH256577   5.689   5.094   4.737 -0.4329  0.5231 -0.3688
11721TIP3    H156578   5.677   5.004   4.704 -1.9789  0.0344  1.3476
11721TIP3    H256579   5.778   5.095   4.770  0.6814  0.5977 -3.0655
11722TIP3   OH256580   3.317   4.786  14.034  0.3969  0.1541  0.6676
11722TIP3    H156581   3.361   4.726  14.095  0.7718 -0.1534  0.0993
11722TIP3    H256582   3.284   4.729  13.965  0.4504  0.5693  0.3018
11723TIP3   OH256583   2.294   6.162  14.066 -0.4617  0.1428  0.2855
11723TIP3    H156584   2.318   6.223  13.997  0.0839 -1.3962 -0.9234
11723TIP3    H256585   2.352   6.184  14.139  0.7501  0.1144 -0.6468
11724TIP3   OH256586   1.749   2.455  16.652  0.1952  0.1659  0.1212
11724TIP3    H156587   1.792   2.536  16.625  0.5494 -0.8082 -2.5348
11724TIP3    H256588   1.777   2.390  16.587 -0.5598 -1.9657  1.7974
11725TIP3   OH256589   0.753   5.558  15.093  0.2020 -0.7898  0.2650
11725TIP3    H156590   0.795   5.535  15.176  1.0589 -3.0593 -0.7041
11725TIP3    H256591   0.680   5.496  15.086 -1.8844  1.4796  0.7587
11726TIP3   OH256592   3.566   4.774   5.547 -0.4673  0.0780 -0.1991
11726TIP3    H156593   3.600   4.738   5.629  0.4864  1.9295  0.2715
11726TIP3    H256594   3.644   4.800   5.498 -1.0719  0.1431 -1.1522
11727TIP3   OH256595   6.379   3.201   4.366 -0.5126  0.1523 -0.0520
11727TIP3    H156596   6.462   3.232   4.329 -0.4068  0.9624  0.8149
11727TIP3    H256597   6.339   3.149   4.296  1.3821 -1.4895  0.0237
11728TIP3   OH256598   5.865   2.888  16.307  0.0037  0.2903  0.5926
11728TIP3    H156599   5.860   2.792  16.312  1.3012 -0.1064 -2.9775
11728TIP3    H256600   5.793   2.913  16.250  2.0027  0.8865 -1.8418
11729TIP3   OH256601   6.323   4.663  15.115  0.2546  0.1456  0.8803
11729TIP3    H156602   6.395   4.603  15.095 -0.0649 -0.1580  0.6316
11729TIP3    H256603   6.363   4.731  15.168  0.2856 -1.2210  2.7165
11730TIP3   OH256604   2.392   1.011   5.214  0.2957 -0.8360  0.1464
11730TIP3    H156605   2.307   1.042   5.244  1.0555  1.2478  0.3260
11730TIP3    H256606   2.440   0.992   5.295  0.3573 -0.9694  0.0780
11731TIP3   OH256607   0.417   0.271  15.364  0.2918 -0.2490  0.1420
11731TIP3    H156608   0.426   0.364  15.384 -0.0527  0.2798 -1.9058
11731TIP3    H256609   0.400   0.230  15.448 -0.4014  1.6607  1.0017
11732TIP3   OH256610   4.076   5.699  13.889  0.0055  0.0804  0.4381
11732TIP3    H156611   4.159   5.729  13.852  0.0589 -0.1550  0.3636
11732TIP3    H256612   4.021   5.777  13.891  0.5689  0.4704  1.4461
11733TIP3   OH256613   5.956   0.117  12.621  0.9030 -0.5723 -0.7314
11733TIP3    H156614   5.974   0.105  12.715 -0.3531  0.6312 -0.2999
11733TIP3    H256615   5.905   0.040  12.596  0.6300 -0.5469 -0.2563
11734TIP3   OH256616   5.258   6.022   5.387  0.0843 -0.2984 -0.5136
11734TIP3    H156617   5.266   6.008   5.481 -1.1655  0.4914 -0.2692
11734TIP3    H256618   5.226   5.939   5.353 -1.6073  0.0751  0.0937
11735TIP3   OH256619   6.282   4.101   5.825 -0.1227 -1.1172 -0.2349
11735TIP3    H156620   6.204   4.156   5.824  1.3197  1.0807 -1.5493
11735TIP3    H256621   6.310   4.098   5.733  1.6471 -1.3082  0.2703
11736TIP3   OH256622   3.302   5.901   0.601 -0.0304 -0.3097  0.1857
11736TIP3    H156623   3.347   5.979   0.633  0.7568 -0.8923  0.5241
11736TIP3    H256624   3.295   5.844   0.677 -0.3366 -0.6908 -0.1239
11737TIP3   OH256625   5.191   3.451   2.947  0.2080 -0.0985 -0.1566
11737TIP3    H156626   5.137   3.409   3.013  0.9647 -0.2678  0.3733
11737TIP3    H256627   5.251   3.507   2.997  0.7140 -0.1397 -0.7064
11738TIP3   OH256628   0.174   3.218  15.765 -0.2132 -0.1363  0.1823
11738TIP3    H156629   0.134   3.169  15.694 -2.2528  0.1069  1.0935
11738TIP3    H256630   0.111   3.212  15.837  1.5091  0.1055  1.7917
11739TIP3   OH256631   5.821   3.714   4.459  0.3979 -0.5240  0.3584
11739TIP3    H156632   5.910   3.742   4.481  0.0234 -0.5124  1.9581
11739TIP3    H256633   5.818   3.622   4.484 -0.6086 -0.0315  2.2346
11740TIP3   OH256634   3.979   1.947  11.953 -0.5881  0.1627 -0.0874
11740TIP3    H156635   3.950   1.872  12.005  1.3545 -0.5910  0.0112
11740TIP3    H256636   4.020   1.909  11.876 -0.4836  1.1649 -0.5502
11741TIP3   OH256637   5.195   3.084   2.671  0.3779  0.3670  0.0499
11741TIP3    H156638   5.210   3.169   2.630  1.1203  0.1496 -0.1465
11741TIP3    H256639   5.280   3.041   2.669 -0.1166 -0.6364 -0.4384
11742TIP3   OH256640   0.486   1.175   5.072 -0.1828  0.3505 -0.2820
11742TIP3    H156641   0.401   1.192   5.031 -0.2604  0.2547 -0.1628
11742TIP3    H256642   0.475   1.202   5.163 -0.2813 -0.2431 -0.1125
11743TIP3   OH256643   4.517   0.993   4.975 -0.0628 -0.2563 -0.3181
11743TIP3    H156644   4.553   1.040   5.050 -1.6065  1.2263 -0.4361
11743TIP3    H256645   4.476   0.916   5.013 -1.0056  0.5761  0.4352
11744TIP3   OH256646   2.540   1.352   4.574  0.0693 -0.6676  0.2385
11744TIP3    H156647   2.459   1.375   4.529  0.0040 -1.1893  0.0776
11744TIP3    H256648   2.523   1.265   4.611  0.3263 -0.4960  0.7630
11745TIP3   OH256649   3.302   1.473   4.885 -0.8861  0.0450  0.6706
11745TIP3    H156650   3.296   1.529   4.962  0.1801 -0.4571  1.1334
11745TIP3    H256651   3.260   1.391   4.911 -2.0026  0.4361  0.1566
11746TIP3   OH256652   6.057   5.753  16.357  0.3748 -0.1439  0.2439
11746TIP3    H156653   5.962   5.764  16.363  0.4561  0.8383 -0.0948
11746TIP3    H256654   6.073   5.736  16.264  0.4302 -1.5831  0.4798
11747TIP3   OH256655   2.038   4.490   1.896 -0.0939 -0.4489  0.3158
11747TIP3    H156656   2.099   4.416   1.896  0.6800  0.1801  0.4889
11747TIP3    H256657   1.959   4.455   1.853 -0.2125 -1.7418  1.4906
11748TIP3   OH256658   4.950   5.637   3.515  0.3795  0.4252  0.0278
11748TIP3    H156659   5.025   5.692   3.537 -0.4691  1.0760  1.3818
11748TIP3    H256660   4.899   5.690   3.453 -0.5662  1.3154  1.5200
11749TIP3   OH256661   5.094   5.692  16.066 -0.0637 -0.4545  0.1523
11749TIP3    H156662   5.079   5.612  16.016 -0.2845  0.4297 -1.2329
11749TIP3    H256663   5.161   5.739  16.017 -1.1995  1.0330 -0.0426
11750TIP3   OH256664   6.724   6.529   4.523 -0.2344  0.3538  0.5716
11750TIP3    H156665   6.694   6.556   4.436  0.2213  0.2138  0.3707
11750TIP3    H256666   6.815   6.558   4.527  0.9403 -2.7704 -0.4109
11751TIP3   OH256667   4.693   5.315  14.472 -0.3177 -0.1832  0.9887
11751TIP3    H156668   4.681   5.226  14.503  1.0303 -0.3215  1.2034
11751TIP3    H256669   4.718   5.364  14.551 -1.5824  0.5097  0.9771
11752TIP3   OH256670   0.371   5.601   5.654  0.5749  0.1086 -0.7017
11752TIP3    H156671   0.455   5.647   5.666  1.4253 -1.2122 -1.3161
11752TIP3    H256672   0.392   5.509   5.669 -0.9650 -0.1657 -0.0656
11753TIP3   OH256673   3.286   0.276  16.711  0.6201  0.2078 -0.0569
11753TIP3    H156674   3.367   0.226  16.713  0.8642  0.5405 -1.1045
11753TIP3    H256675   3.219   0.215  16.740  1.4175  0.3118  2.1749
11754TIP3   OH256676   3.360   3.363  10.823 -0.5493  0.5726 -0.2634
11754TIP3    H156677   3.346   3.453  10.795  1.9949  0.9712 -0.4578
11754TIP3    H256678   3.301   3.311  10.768  0.9126  1.7726 -3.1579
11755TIP3   OH256679   3.296   3.686  14.737  0.3325 -0.4396  0.0460
11755TIP3    H156680   3.319   3.689  14.644 -0.4859 -1.6280 -0.2038
11755TIP3    H256681   3.238   3.761  14.749 -0.6810 -1.0827 -0.7223
11756TIP3   OH256682   2.192   2.693   5.951  0.2878 -0.4314 -0.1148
11756TIP3    H156683   2.122   2.630   5.966 -0.2267 -0.1694 -1.2755
11756TIP3    H256684   2.186   2.754   6.024  1.0602 -1.9270  1.2560
11757TIP3   OH256685   5.083   6.590   1.707 -0.2739  0.0013 -0.3631
11757TIP3    H156686   5.059   6.501   1.679  3.2691 -1.1598 -0.2272
11757TIP3    H256687   5.103   6.581   1.800 -1.8558  1.5183  0.1932
11758TIP3   OH256688   3.413   0.530  11.172 -0.6441 -0.4081  0.8553
11758TIP3    H156689   3.466   0.460  11.210 -0.1458 -0.3134  0.3586
11758TIP3    H256690   3.467   0.564  11.100 -1.4806 -0.4674  0.1872
11759TIP3   OH256691   1.121   5.161  16.266 -0.0507 -0.2584  0.5744
11759TIP3    H156692   1.169   5.214  16.330 -1.8895  0.3644  1.5318
11759TIP3    H256693   1.143   5.071  16.289  0.0846 -0.0143  1.4686
11760TIP3   OH256694   4.511   3.925  15.275  0.4336 -0.1712  0.3191
11760TIP3    H156695   4.484   3.847  15.324  1.9434 -2.0241 -1.5675
11760TIP3    H256696   4.594   3.950  15.315 -0.5835  1.2287  1.6452
11761TIP3   OH256697   0.502   1.749  12.172  0.4568 -0.6004 -0.4209
11761TIP3    H156698   0.537   1.686  12.236  1.0970 -1.9987 -2.0684
11761TIP3    H256699   0.522   1.710  12.087  0.0984  1.4576 -1.5030
11762TIP3   OH256700   3.153   2.623   5.524 -0.1367 -0.7870  0.0240
11762TIP3    H156701   3.127   2.566   5.596 -1.4054  2.3698  2.2798
11762TIP3    H256702   3.071   2.641   5.478 -0.3392  1.3138  1.0808
11763TIP3   OH256703   0.490   2.549   2.997  0.3662 -0.5868  0.4438
11763TIP3    H156704   0.495   2.628   3.052  0.0655 -1.3291  1.5711
11763TIP3    H256705   0.451   2.483   3.054  1.1900 -1.7276 -0.2805
11764TIP3   OH256706   5.386   1.076  10.850 -0.2203  0.3192 -0.1019
11764TIP3    H156707   5.329   1.010  10.809  1.1464 -2.2006  1.7709
11764TIP3    H256708   5.370   1.066  10.944  3.9391 -1.3439  0.6406
11765TIP3   OH256709   0.752   1.213   1.001  0.4360 -0.1533  0.1609
11765TIP3    H156710   0.722   1.304   1.005  0.8973  0.1333 -1.8571
11765TIP3    H256711   0.715   1.179   0.920  2.1208 -1.0417 -0.2854
11766TIP3   OH256712   4.355   5.952  11.922 -0.5806  0.2862 -0.3342
11766TIP3    H156713   4.335   6.025  11.864 -0.1173  0.2130 -0.5922
11766TIP3    H256714   4.296   5.882  11.893 -0.5781  0.3542 -0.5041
11767TIP3   OH256715   5.229   0.149  11.553  0.6148  0.3961  0.4720
11767TIP3    H156716   5.214   0.063  11.592  0.1028  0.9363  1.5101
11767TIP3    H256717   5.160   0.159  11.488  0.2897  0.2838  0.7993
11768TIP3   OH256718   2.286   0.642  16.442 -0.3209 -0.0453 -0.1518
11768TIP3    H156719   2.208   0.669  16.395  0.2666 -0.0191 -1.1364
11768TIP3    H256720   2.316   0.563  16.396  0.0923 -0.2026  0.3683
11769TIP3   OH256721   2.542   6.640  11.133  0.8452 -0.2268 -0.0534
11769TIP3    H156722   2.533   6.556  11.087  0.3022  0.5709 -1.4599
11769TIP3    H256723   2.506   6.623  11.220  3.1053 -2.1393  0.6279
11770TIP3   OH256724   3.397   0.960  14.468 -0.3176  0.6101 -0.1052
11770TIP3    H156725   3.453   0.882  14.472  0.3715  1.1399  1.3989
11770TIP3    H256726   3.434   1.012  14.396  0.7155  0.6125  0.4010
11771TIP3   OH256727   0.478   2.502  12.511 -0.0838 -0.9450  0.6695
11771TIP3    H156728   0.389   2.531  12.531  0.0558  0.0773 -0.0784
11771TIP3    H256729   0.467   2.418  12.467 -0.6470 -1.0826  1.0638
11772TIP3   OH256730   6.052   0.392   5.673  0.4078  0.4070  0.0530
11772TIP3    H156731   6.133   0.416   5.717  0.6871  1.0700 -0.7850
11772TIP3    H256732   6.079   0.350   5.592 -0.1011 -1.4055  0.7817
11773TIP3   OH256733   5.033   1.146   0.307 -0.4140 -0.3598  0.2618
11773TIP3    H156734   5.099   1.079   0.324  0.5528  0.6634  0.6576
11773TIP3    H256735   5.007   1.177   0.393  0.0092  0.5739  0.0674
11774TIP3   OH256736   2.358   4.919  15.139 -0.1538  0.6662  0.5750
11774TIP3    H156737   2.360   4.952  15.229  0.5254  0.2143  0.7421
11774TIP3    H256738   2.298   4.977  15.093  1.2485  2.3568  0.7643
11775TIP3   OH256739   6.667   0.490   1.286  0.1284  0.0031 -0.0824
11775TIP3    H156740   6.626   0.475   1.371 -2.0283  2.5934 -0.5595
11775TIP3    H256741   6.661   0.584   1.272  1.7964 -0.1490 -2.4881
11776TIP3   OH256742   5.785   3.160  12.443  0.1762  0.2661  0.0207
11776TIP3    H156743   5.715   3.226  12.444  0.6342  0.7656  0.7767
11776TIP3    H256744   5.834   3.176  12.524 -0.7135 -2.1162  1.1326
11777TIP3   OH256745   5.472   1.011   5.101 -0.4998 -0.2558  0.5622
11777TIP3    H156746   5.563   1.038   5.093 -1.1557  2.3628  1.0636
11777TIP3    H256747   5.450   0.972   5.016  0.5967  0.7060 -0.1831
11778TIP3   OH256748   4.432   4.529   5.227  0.0523  0.1103  0.2179
11778TIP3    H156749   4.368   4.472   5.184  0.8347  0.2968 -1.2931
11778TIP3    H256750   4.467   4.583   5.156  1.5869  0.2909  1.0527
11779TIP3   OH256751   6.768   0.618  14.620  0.0516 -0.1938  0.0888
11779TIP3    H156752   6.844   0.676  14.627  0.1895 -0.2416 -0.9003
11779TIP3    H256753   6.798   0.545  14.567 -1.2139  0.7382 -2.0548
11780TIP3   OH256754   0.073   0.499   0.983 -0.6827 -0.5473  0.7151
11780TIP3    H156755   0.066   0.486   0.888  1.1969  0.2395  0.4262
11780TIP3    H256756   0.084   0.593   0.993 -0.9107 -0.6226  1.7393
11781TIP3   OH256757   1.004   5.903  15.853  0.1142  0.3229 -0.7153
11781TIP3    H156758   1.097   5.886  15.864 -0.0562 -0.2766 -0.0896
11781TIP3    H256759   0.997   5.948  15.769  0.8730 -0.4528 -1.2112
11782TIP3   OH256760   1.897   4.614  10.496  0.0238  0.3436  0.1445
11782TIP3    H156761   1.815   4.578  10.529  0.6144  1.2517  2.8837
11782TIP3    H256762   1.880   4.708  10.487  0.5146  0.4093 -0.1196
11783TIP3   OH256763   5.628   4.724  15.494 -0.3011  0.0785 -0.0116
11783TIP3    H156764   5.593   4.637  15.511 -4.3231  1.2072 -1.2419
11783TIP3    H256765   5.696   4.711  15.428 -2.9562 -2.0027 -2.6142
11784TIP3   OH256766   5.337   6.771   1.186  0.8250 -0.0912  0.4243
11784TIP3    H156767   5.332   6.790   1.092  1.1213 -0.5344  0.3191
11784TIP3    H256768   5.268   6.706   1.201  0.0566  0.7578  0.7203
11785TIP3   OH256769   6.013   1.659  14.359 -0.6695 -0.1336 -0.1017
11785TIP3    H156770   6.063   1.736  14.335 -2.2400  0.8473 -0.3712
11785TIP3    H256771   6.079   1.594  14.382  0.7475  0.6591 -1.6926
11786TIP3   OH256772   2.041   2.054  15.607 -0.1377 -0.1192  0.0778
11786TIP3    H156773   2.042   2.131  15.551 -0.1924 -0.6572 -0.6853
11786TIP3    H256774   2.128   2.051  15.647 -0.4552  0.8694  0.8878
11787TIP3   OH256775   3.270   2.457  16.639 -0.1342  0.5275 -0.2044
11787TIP3    H156776   3.178   2.473  16.621 -0.0148  2.3395  0.6700
11787TIP3    H256777   3.300   2.534  16.686  1.7534 -0.1814 -0.1491
11788TIP3   OH256778   4.337   0.237   2.153  0.5445  0.0773  0.3697
11788TIP3    H156779   4.386   0.309   2.114 -1.1436  0.5071 -1.1051
11788TIP3    H256780   4.319   0.265   2.242  2.3855  0.1675  0.7513
11789TIP3   OH256781   5.395   2.986   3.732 -0.3191  0.1606  0.3371
11789TIP3    H156782   5.398   2.900   3.773  0.9363 -0.3895 -0.8139
11789TIP3    H256783   5.411   3.047   3.804 -1.2878 -0.5373  1.1779
11790TIP3   OH256784   1.553   4.238  15.440 -0.7389  0.2973  0.2645
11790TIP3    H156785   1.619   4.300  15.411  0.0412 -0.3831  0.5550
11790TIP3    H256786   1.488   4.239  15.370  0.4171 -0.2687 -0.8554
11791TIP3   OH256787   6.616   5.593  12.438 -0.0945  0.1481 -0.0560
11791TIP3    H156788   6.670   5.618  12.363 -0.8514  0.3316 -0.5469
11791TIP3    H256789   6.679   5.581  12.509  0.5722  0.5859 -0.5546
11792TIP3   OH256790   5.320   5.390  13.868 -0.0445  0.2858 -0.0879
11792TIP3    H156791   5.240   5.375  13.917 -1.3366 -2.4074 -2.6717
11792TIP3    H256792   5.389   5.349  13.921 -1.3661 -2.3892 -0.2473
11793TIP3   OH256793   1.809   1.920  14.892  0.0734  0.2701  0.0614
11793TIP3    H156794   1.785   1.849  14.952  0.7623 -0.0208  0.0080
11793TIP3    H256795   1.900   1.940  14.915  0.1029  0.6627 -0.3928
11794TIP3   OH256796   6.406   5.311  11.785 -0.2558  0.0351  0.0968
11794TIP3    H156797   6.434   5.333  11.874 -1.2878 -0.0238  0.4506
11794TIP3    H256798   6.487   5.289  11.739  0.2385 -0.3909  1.1453
11795TIP3   OH256799   0.693   5.913  14.459  0.0817 -0.4754 -0.1049
11795TIP3    H156800   0.683   5.954  14.545 -1.1871 -0.3994 -0.2611
11795TIP3    H256801   0.616   5.943  14.410  0.6689 -0.7030 -1.1912
11796TIP3   OH256802   3.895   4.807  14.275 -0.5014 -0.0676 -0.0238
11796TIP3    H156803   3.819   4.859  14.300  1.3352  1.2082  3.6543
11796TIP3    H256804   3.955   4.871  14.236 -0.8427 -0.8788 -1.9906
11797TIP3   OH256805   6.489   1.039   2.948 -0.5561 -0.5559  0.2817
11797TIP3    H156806   6.450   1.097   3.014 -2.0527 -0.8815 -0.2879
11797TIP3    H256807   6.524   1.098   2.882 -1.4695 -0.2756  0.0388
11798TIP3   OH256808   1.085   3.337   4.417  0.4463 -0.0058  0.6553
11798TIP3    H156809   0.994   3.363   4.407  0.7814  0.3574 -2.2956
11798TIP3    H256810   1.130   3.418   4.443  0.6524  1.2607 -3.1500
11799TIP3   OH256811   0.810   3.664  15.955 -0.1505 -0.6537  0.0583
11799TIP3    H156812   0.816   3.759  15.965  1.4718 -0.7653  0.5147
11799TIP3    H256813   0.770   3.651  15.869 -0.4481  0.4387  0.0227
11800TIP3   OH256814   3.337   3.000  10.227  0.7715  0.4935 -0.4225
11800TIP3    H156815   3.399   2.999  10.300  2.7505  0.7981 -2.0054
11800TIP3    H256816   3.264   3.052  10.258  1.4517  0.4210  1.4167
11801TIP3   OH256817   4.577   6.572   3.535  0.0877  0.2022 -0.4195
11801TIP3    H156818   4.582   6.626   3.614 -1.3079 -1.8892  1.2330
11801TIP3    H256819   4.664   6.576   3.498  1.2236  0.1789  2.0221
11802TIP3   OH256820   3.975   5.973   4.902  0.4181  0.4947 -0.7420
11802TIP3    H156821   3.885   6.006   4.907  0.8717  1.5650  1.7300
11802TIP3    H256822   3.965   5.882   4.875 -1.4099  0.6138 -0.6019
11803TIP3   OH256823   4.947   4.866   2.770  0.8938 -0.6691 -0.1708
11803TIP3    H156824   4.974   4.918   2.694  1.9523  0.4174  0.8905
11803TIP3    H256825   4.852   4.856   2.760  1.1071 -1.3479 -2.0775
11804TIP3   OH256826   5.991   5.360  16.949  0.5768  0.1213  0.0769
11804TIP3    H156827   5.971   5.452  16.965  0.1826  0.0862 -0.1947
11804TIP3    H256828   5.908   5.322  16.920  1.2176  0.2006 -2.0664
11805TIP3   OH256829   0.671   1.592   3.883 -0.0620  0.1482 -0.7542
11805TIP3    H156830   0.759   1.607   3.848  0.6154  0.0610  0.8123
11805TIP3    H256831   0.653   1.671   3.935 -0.1636 -0.5998  0.3686
11806TIP3   OH256832   5.006   3.546   0.366  0.1687  0.1759 -0.0998
11806TIP3    H156833   5.009   3.520   0.273 -0.5247 -1.3036  0.2508
11806TIP3    H256834   4.997   3.463   0.413  0.4890  0.9143  1.2968
11807TIP3   OH256835   2.899   5.730  13.933  0.2218  0.3162 -0.1957
11807TIP3    H156836   2.823   5.738  13.876  1.0263  1.7135 -1.1241
11807TIP3    H256837   2.914   5.819  13.966  1.2654  0.0087  0.2211
11808TIP3   OH256838   1.187   3.475  14.023 -0.4430 -0.1458  0.1194
11808TIP3    H156839   1.273   3.516  14.014 -0.8471  0.3976 -1.5269
11808TIP3    H256840   1.191   3.430  14.107  1.2948  0.2274  0.2715
11809TIP3   OH256841   4.803   1.360   5.977 -0.1868 -0.5674 -0.0467
11809TIP3    H156842   4.770   1.375   6.066  1.0257  0.1299  0.3162
11809TIP3    H256843   4.840   1.272   5.981  1.5896  0.1648  0.7369
11810TIP3   OH256844   5.130   4.118  11.431 -0.0691 -0.6928  0.0496
11810TIP3    H156845   5.063   4.122  11.499  0.4238  2.3498  0.4797
11810TIP3    H256846   5.200   4.063  11.468 -0.3553 -0.1144  1.4853
11811TIP3   OH256847   4.208   0.495  14.391 -0.1224 -0.5208 -0.5513
11811TIP3    H156848   4.145   0.537  14.331 -0.8644  0.1841  0.6752
11811TIP3    H256849   4.293   0.508  14.349 -0.6734 -0.5062 -1.7056
11812TIP3   OH256850   5.822   1.628   4.239  0.2309  0.0556  0.0613
11812TIP3    H156851   5.820   1.576   4.320  1.2135 -2.1425 -1.2316
11812TIP3    H256852   5.913   1.655   4.231 -0.0008  0.8324  0.0047
11813TIP3   OH256853   4.098   3.316   0.205 -0.5030  0.2010 -0.4506
11813TIP3    H156854   4.060   3.344   0.289 -2.5016  0.8900 -1.5044
11813TIP3    H256855   4.031   3.339   0.141  0.9799 -0.3140 -2.2493
11814TIP3   OH256856   5.765   5.569   0.842  0.9237  0.6841  0.1640
11814TIP3    H156857   5.757   5.631   0.770 -0.4950  0.4643  0.1040
11814TIP3    H256858   5.859   5.556   0.852  1.2111  2.1811 -0.3749
11815TIP3   OH256859   5.130   3.130   4.612 -0.0160  0.0072 -0.7871
11815TIP3    H156860   5.107   3.175   4.693  1.7822 -0.3417 -0.0309
11815TIP3    H256861   5.088   3.044   4.620 -1.3299  0.6118 -1.0648
11816TIP3   OH256862   6.107   2.512  11.179  0.3485 -0.1407  0.0701
11816TIP3    H156863   6.100   2.532  11.085 -0.1259  0.6858  0.2683
11816TIP3    H256864   6.037   2.564  11.219  1.9460  1.2794  1.1370
11817TIP3   OH256865   3.377   0.154  17.078 -0.3203 -0.2376 -0.1705
11817TIP3    H156866   3.298   0.141  17.131  0.3283 -2.0945  0.4034
11817TIP3    H256867   3.364   0.100  17.001  0.5108 -0.7989  0.0737
11818TIP3   OH256868   1.064   0.472  16.467  0.6958 -0.0118 -0.2029
11818TIP3    H156869   1.128   0.419  16.420  2.6688  1.1419  1.0255
11818TIP3    H256870   1.103   0.485  16.554 -2.3277 -1.2367  1.4840
11819TIP3   OH256871   0.441   3.441   6.259  0.2157 -0.4914  1.5081
11819TIP3    H156872   0.387   3.502   6.309  1.2335  1.0256  0.8176
11819TIP3    H256873   0.383   3.367   6.243 -3.3313  2.6339 -2.7337
11820TIP3   OH256874   5.284   2.098  14.035  0.4119 -0.8553 -0.0091
11820TIP3    H156875   5.272   2.177  13.983 -0.2271 -3.1183 -3.6113
11820TIP3    H256876   5.204   2.047  14.021  1.2448 -2.6507  1.2816
11821TIP3   OH256877   5.782   5.682   2.961 -0.3040  0.3599  0.1269
11821TIP3    H156878   5.805   5.594   2.991 -0.3429  0.1296 -0.5023
11821TIP3    H256879   5.815   5.686   2.871  0.1676  1.1734  0.3221
11822TIP3   OH256880   2.546   3.303   3.505  0.5122 -0.5871  0.3298
11822TIP3    H156881   2.520   3.232   3.446  0.8711 -0.1404 -0.3863
11822TIP3    H256882   2.492   3.290   3.583 -1.6991  0.1259 -0.9775
11823TIP3   OH256883   4.696   3.734   4.289 -0.4830 -0.0433  0.0658
11823TIP3    H156884   4.601   3.733   4.298 -0.4919 -1.4374  0.0591
11823TIP3    H256885   4.728   3.757   4.376 -0.8229  0.8971 -0.0470
11824TIP3   OH256886   1.886   6.332  12.035  0.0489  0.3316 -0.1138
11824TIP3    H156887   1.812   6.330  11.973 -0.0760 -0.0896  0.0437
11824TIP3    H256888   1.958   6.371  11.985 -0.5295  1.6184  0.0151
11825TIP3   OH256889   2.357   4.373   2.118 -0.6273 -0.1442 -0.5607
11825TIP3    H156890   2.293   4.325   2.066 -1.0408  1.0664 -1.1879
11825TIP3    H256891   2.436   4.375   2.063 -0.3138 -0.8660 -0.1558
11826TIP3   OH256892   4.872   6.008   0.246  1.1545 -0.8194  0.2447
11826TIP3    H156893   4.957   6.015   0.203 -0.1063 -0.6456 -2.4652
11826TIP3    H256894   4.887   5.952   0.322  3.1283 -3.5431 -1.9366
11827TIP3   OH256895   2.679   1.833   4.259 -0.1348 -0.4554  0.4271
11827TIP3    H156896   2.662   1.765   4.325 -1.5590 -0.4883  0.0515
11827TIP3    H256897   2.654   1.792   4.176  1.6752 -0.4268 -0.1780
11828TIP3   OH256898   2.081   0.347   4.085 -0.0480  0.2854 -0.1218
11828TIP3    H156899   1.999   0.374   4.044 -0.6332 -2.5484 -1.0266
11828TIP3    H256900   2.056   0.323   4.175  0.0899  0.8674  0.0730
11829TIP3   OH256901   3.620   3.613   3.827  0.2858  0.5377  0.1327
11829TIP3    H156902   3.544   3.640   3.775 -0.4590 -0.2349  0.7899
11829TIP3    H256903   3.618   3.670   3.904 -0.8611 -0.8252  1.1615
11830TIP3   OH256904   1.086   2.241   6.301 -0.1819  0.0084 -0.5487
11830TIP3    H156905   1.091   2.154   6.262  0.1983 -0.3565  0.2846
11830TIP3    H256906   1.130   2.232   6.386  0.9735  1.3188 -0.9741
11831TIP3   OH256907   6.273   0.667  12.997 -0.2603 -0.3887 -0.1644
11831TIP3    H156908   6.277   0.652  12.902 -2.2637  0.3469 -0.4257
11831TIP3    H256909   6.342   0.731  13.014  0.0678 -0.4589 -1.1427
11832TIP3   OH256910   0.382   1.516  16.829 -0.4062 -0.3816 -0.4043
11832TIP3    H156911   0.313   1.486  16.889 -1.0434  1.0089 -0.4170
11832TIP3    H256912   0.390   1.445  16.766 -1.3961 -0.8335 -0.0478
11833TIP3   OH256913   0.500   5.946  12.585 -0.0691  0.2545  0.2461
11833TIP3    H156914   0.550   5.995  12.651 -1.6099  2.3925 -0.0900
11833TIP3    H256915   0.463   6.013  12.528 -1.5570 -1.3772 -0.7950
11834TIP3   OH256916   0.992   6.290  16.767  0.2292  0.2026 -0.7022
11834TIP3    H156917   1.048   6.303  16.844 -0.7915  0.8046 -0.0368
11834TIP3    H256918   0.950   6.205  16.782 -0.9833  0.9091  0.0995
11835TIP3   OH256919   1.953   0.186   3.782 -0.5354 -0.0694 -0.4925
11835TIP3    H156920   1.921   0.189   3.691 -0.2913 -0.0936 -0.5791
11835TIP3    H256921   2.042   0.221   3.777 -1.1479  1.6408  0.0083
11836TIP3   OH256922   1.570   2.037  11.895 -0.4906  0.0971  0.1434
11836TIP3    H156923   1.592   2.108  11.954 -0.7326 -0.3322  0.7581
11836TIP3    H256924   1.594   1.957  11.943 -1.2362 -0.2773 -0.0934
11837TIP3   OH256925   5.423   2.367   3.779  0.2879 -0.0156 -0.3109
11837TIP3    H156926   5.430   2.455   3.743 -0.2407 -0.1234 -0.6928
11837TIP3    H256927   5.457   2.374   3.868  1.6196  0.2519 -0.8232
11838TIP3   OH256928   1.781   6.033  14.919  0.6827 -0.4565 -0.1432
11838TIP3    H156929   1.798   5.946  14.883  0.3872 -0.6841  0.2568
11838TIP3    H256930   1.837   6.038  14.997 -0.4645 -0.9022  0.7313
11839TIP3   OH256931   3.493   1.384  16.887  0.3671  0.3747  0.2860
11839TIP3    H156932   3.493   1.436  16.967 -0.4370  0.4862  0.2178
11839TIP3    H256933   3.410   1.405  16.844  0.6294  0.0451 -0.3994
11840TIP3   OH256934   0.553   1.074  13.116  0.2898  0.2918 -0.3171
11840TIP3    H156935   0.554   0.982  13.090 -0.9982  0.4525 -1.0229
11840TIP3    H256936   0.547   1.072  13.211  0.0453 -0.3629 -0.3410
11841TIP3   OH256937   3.694   4.683  12.751  0.0232 -0.3157 -0.7584
11841TIP3    H156938   3.702   4.636  12.834 -0.6048 -0.7274 -0.9189
11841TIP3    H256939   3.755   4.638  12.692  0.2413 -0.2205 -0.6041
11842TIP3   OH256940   0.628   3.275   0.769 -0.0791  0.4948  0.1350
11842TIP3    H156941   0.578   3.218   0.827  0.4979 -0.4489 -0.2704
11842TIP3    H256942   0.652   3.350   0.824 -0.2329  0.0090  0.8804
11843TIP3   OH256943   3.325   2.697  11.644  0.2101  1.2673 -0.4907
11843TIP3    H156944   3.415   2.679  11.617  0.3562  0.6761  0.3489
11843TIP3    H256945   3.304   2.782  11.605  1.1563  1.4391 -0.6379
11844TIP3   OH256946   3.462   1.576  17.087 -0.0143 -0.5261  0.4432
11844TIP3    H156947   3.377   1.576  17.132 -1.3876 -2.9661 -1.8832
11844TIP3    H256948   3.455   1.649  17.025 -0.1899 -0.3941  0.6135
11845TIP3   OH256949   4.665   0.151   3.525  0.0826 -0.3467 -0.3809
11845TIP3    H156950   4.619   0.217   3.576  0.2963  1.1707 -2.0349
11845TIP3    H256951   4.646   0.068   3.568 -2.2475  0.5060  0.3393
11846TIP3   OH256952   1.903   0.392   2.841  0.7878  0.2150  0.4993
11846TIP3    H156953   1.934   0.364   2.755  0.2925 -0.0991  0.4160
11846TIP3    H256954   1.871   0.481   2.827  2.3346  0.8399  0.7556
11847TIP3   OH256955   5.026   2.884  14.815 -0.2488 -0.0010  0.3802
11847TIP3    H156956   4.974   2.965  14.816 -0.8971 -0.4149  0.2818
11847TIP3    H256957   5.089   2.896  14.886 -0.2383  0.6584  0.2703
11848TIP3   OH256958   1.511   2.597   4.952  0.2817 -0.2911 -0.4034
11848TIP3    H156959   1.490   2.580   5.044  1.1906 -2.8651 -0.5681
11848TIP3    H256960   1.576   2.530   4.930  0.2263  0.3614 -2.8794
11849TIP3   OH256961   5.109   4.388  12.815 -0.2271 -0.5559  0.0505
11849TIP3    H156962   5.135   4.464  12.868 -0.4088 -0.0224 -0.6057
11849TIP3    H256963   5.030   4.355  12.857 -0.5721  0.0811 -0.0781
11850TIP3   OH256964   4.271   1.358  11.049  0.1784  0.1883  0.0849
11850TIP3    H156965   4.215   1.336  11.123 -0.5858 -2.5543 -1.1827
11850TIP3    H256966   4.219   1.419  10.997 -0.0918  0.5479  0.7659
11851TIP3   OH256967   2.504   1.335   3.754 -0.5284  0.1909  0.0718
11851TIP3    H156968   2.469   1.400   3.693  0.1365 -0.9621 -1.6210
11851TIP3    H256969   2.430   1.311   3.810 -1.1724  1.2513 -0.3037
11852TIP3   OH256970   0.938   0.206  14.795  0.7647  0.7544 -0.3580
11852TIP3    H156971   1.026   0.199  14.760  0.1117  0.5497 -2.0453
11852TIP3    H256972   0.900   0.119  14.785 -0.5745  1.4971 -2.3984
11853TIP3   OH256973   5.245   1.859   5.171 -0.2644  0.1573 -0.1498
11853TIP3    H156974   5.273   1.790   5.232  3.8205  0.4123 -1.4304
11853TIP3    H256975   5.207   1.926   5.228 -0.5777 -1.3971  1.5986
11854TIP3   OH256976   4.766   1.016  16.543 -0.0332  0.0488  0.3582
11854TIP3    H156977   4.837   1.079  16.528 -2.0294  2.2064 -0.7680
11854TIP3    H256978   4.720   1.049  16.620  0.1363 -1.3251  1.0787
11855TIP3   OH256979   6.302   6.334  17.016  0.3050  0.2841  0.6089
11855TIP3    H156980   6.326   6.377  17.099  1.1412 -0.3758  0.7255
11855TIP3    H256981   6.213   6.303  17.030  0.5282 -0.0403  1.3667
11856TIP3   OH256982   0.896   2.110  16.108  0.2093 -0.1411 -0.3617
11856TIP3    H156983   0.985   2.145  16.103 -0.1059  0.7407 -0.0153
11856TIP3    H256984   0.845   2.168  16.052  0.2003 -1.8968 -2.2790
11857TIP3   OH256985   2.737   3.291   4.367 -0.4300 -0.3167  0.5529
11857TIP3    H156986   2.761   3.272   4.276  0.3465 -0.7509  0.8363
11857TIP3    H256987   2.819   3.318   4.408 -0.6149 -0.9016  1.3228
11858TIP3   OH256988   1.359   2.842   0.640 -0.1565  0.1789  0.0820
11858TIP3    H156989   1.355   2.746   0.638  1.4225  0.0604  1.2452
11858TIP3    H256990   1.430   2.865   0.580 -0.7389  0.6669 -0.4425
11859TIP3   OH256991   3.353   5.072   4.066  0.1602  0.5562  0.2262
11859TIP3    H156992   3.337   5.164   4.088 -0.8280  0.3484  0.3949
11859TIP3    H256993   3.267   5.030   4.072  0.9466 -0.9176  2.6104
11860TIP3   OH256994   3.936   1.411  16.472  0.2091 -0.6308  0.5187
11860TIP3    H156995   3.964   1.325  16.504  0.8113 -1.1474 -1.2817
11860TIP3    H256996   3.842   1.402  16.457  0.4673 -1.4114 -0.8258
11861TIP3   OH256997   5.563   4.365   0.638  1.3213  0.7788  0.6556
11861TIP3    H156998   5.568   4.377   0.543 -2.6639  1.0883  0.3344
11861TIP3    H256999   5.575   4.271   0.652  3.9498  0.9517  0.1870
11862TIP3   OH257000   0.971   0.604  13.656  0.1418 -0.0888 -0.3613
11862TIP3    H157001   1.029   0.679  13.645  1.6204 -1.0910  0.3835
11862TIP3    H257002   0.883   0.643  13.660  0.7686  1.4957 -1.0347
11863TIP3   OH257003   3.380   5.808  11.304 -0.1007 -0.5534  0.6080
11863TIP3    H157004   3.289   5.781  11.315 -0.5949  0.6043 -0.3512
11863TIP3    H257005   3.391   5.879  11.368 -0.0306 -0.3423  0.3600
11864TIP3   OH257006   4.100   4.882   4.626 -0.1147  0.1440  0.2957
11864TIP3    H157007   4.130   4.793   4.608  0.3340  0.0538  1.4102
11864TIP3    H257008   4.102   4.889   4.721 -0.7236  1.1546  0.2474
11865TIP3   OH257009   2.567   5.882   3.353 -0.3753  0.5116  0.3752
11865TIP3    H157010   2.532   5.971   3.343  0.6690  0.9148  0.2017
11865TIP3    H257011   2.518   5.830   3.289  1.4173  1.6872 -2.1258
11866TIP3   OH257012   5.991   2.056   3.282  0.0150  0.0865 -0.5191
11866TIP3    H157013   6.033   2.137   3.311 -1.1793  0.6091 -0.1826
11866TIP3    H257014   5.898   2.070   3.298 -0.2039 -1.4256 -0.2937
11867TIP3   OH257015   2.333   0.967  10.910 -0.1075 -0.1952 -0.1499
11867TIP3    H157016   2.391   1.043  10.921 -1.1063  0.5701 -0.0014
11867TIP3    H257017   2.374   0.898  10.962  0.2736  0.5519  0.5646
11868TIP3   OH257018   6.012   1.162  14.037 -0.1581 -0.1394 -0.6002
11868TIP3    H157019   6.029   1.228  13.969 -0.3407 -0.9335 -1.4326
11868TIP3    H257020   6.013   1.079  13.990  0.7666 -0.8105  0.5534
11869TIP3   OH257021   3.711   2.830   3.963 -0.1623 -0.0753  0.2271
11869TIP3    H157022   3.775   2.862   4.027  1.0431  1.6240 -1.7009
11869TIP3    H257023   3.762   2.814   3.884 -1.8325 -0.5990 -0.8015
11870TIP3   OH257024   0.506   4.225  12.333 -0.0300 -0.3143  0.4298
11870TIP3    H157025   0.531   4.214  12.241 -2.0819  1.8804 -0.5005
11870TIP3    H257026   0.562   4.295  12.365  0.0714 -0.4678  0.5892
11871TIP3   OH257027   2.570   2.445  12.409  0.2082 -0.5270 -0.2117
11871TIP3    H157028   2.561   2.440  12.504 -0.7317 -1.8655 -0.3232
11871TIP3    H257029   2.655   2.485  12.394  0.6412 -0.8584  1.2067
11872TIP3   OH257030   4.764   5.019  16.555  0.2210 -0.2197  0.2184
11872TIP3    H157031   4.727   5.086  16.613 -1.9349 -0.5385 -0.6928
11872TIP3    H257032   4.723   5.036  16.470  0.7090 -1.8522 -0.3801
11873TIP3   OH257033   2.817   0.205  12.236 -0.1184  0.3622  0.4480
11873TIP3    H157034   2.824   0.295  12.205 -1.5963 -0.1515 -1.5950
11873TIP3    H257035   2.885   0.157  12.188  0.5289  0.3332  1.3735
11874TIP3   OH257036   2.706   5.571   4.174  0.1794 -0.2032  0.3193
11874TIP3    H157037   2.708   5.589   4.268 -0.1948  0.8272  0.1453
11874TIP3    H257038   2.772   5.630   4.137  0.0105 -0.2806 -0.1107
11875TIP3   OH257039   2.556   6.725  12.481 -0.2130 -0.1015 -0.3225
11875TIP3    H157040   2.564   6.775  12.400  0.9075  0.1312 -0.0812
11875TIP3    H257041   2.536   6.636  12.452 -1.0387  0.2233 -0.7956
11876TIP3   OH257042   3.540   5.930  14.016 -1.0162  0.0483 -0.4234
11876TIP3    H157043   3.618   5.890  14.053  0.1350 -0.9063 -3.5613
11876TIP3    H257044   3.479   5.858  14.004 -1.6978  0.4844  0.3636
11877TIP3   OH257045   1.519   6.740  15.973  0.4096  0.0815  0.3665
11877TIP3    H157046   1.608   6.738  15.938  0.9431 -1.1857  1.7034
11877TIP3    H257047   1.530   6.765  16.065 -0.7539  1.1585  0.2485
11878TIP3   OH257048   5.892   0.202   0.627 -0.3111  0.1096  0.4783
11878TIP3    H157049   5.847   0.186   0.544  2.8103 -1.9357 -1.0337
11878TIP3    H257050   5.937   0.286   0.614  2.3452 -1.4130 -1.1739
11879TIP3   OH257051   1.065   6.515   6.703  0.6767  0.0791  0.3027
11879TIP3    H157052   0.985   6.471   6.734 -0.5205  1.6528 -0.4136
11879TIP3    H257053   1.136   6.464   6.742 -0.6521 -1.4548  0.8780
11880TIP3   OH257054   1.160   2.825   1.534  0.4537  0.1887 -0.3727
11880TIP3    H157055   1.213   2.817   1.613  0.1138  0.0137 -0.1608
11880TIP3    H257056   1.221   2.809   1.462  0.8730  0.8520 -0.1698
11881TIP3   OH257057   5.112   3.610  17.091 -0.1217  0.5421  0.5077
11881TIP3    H157058   5.164   3.531  17.098 -0.3251  0.2249 -1.0937
11881TIP3    H257059   5.032   3.592  17.140 -0.6166 -0.6712 -0.6800
11882TIP3   OH257060   4.852   2.063   1.228  0.9204 -0.1312 -0.0971
11882TIP3    H157061   4.852   2.054   1.133  2.3432  1.5634 -0.3157
11882TIP3    H257062   4.943   2.053   1.254  0.9818  1.9597  0.7458
11883TIP3   OH257063   0.077   2.234   1.093 -0.1058  0.0077 -0.3128
11883TIP3    H157064   0.061   2.141   1.080 -0.1770 -0.2077  1.1626
11883TIP3    H257065   0.077   2.271   1.005  0.6491 -1.4971 -0.9703
11884TIP3   OH257066   5.127   4.823   1.388 -1.0687 -0.4161  0.1318
11884TIP3    H157067   5.204   4.782   1.349 -1.2770  1.2091 -2.2358
11884TIP3    H257068   5.152   4.914   1.401 -1.9684 -0.2957  1.1952
11885TIP3   OH257069   2.692   0.345  11.257 -0.4386  0.5473 -0.3699
11885TIP3    H157070   2.624   0.328  11.321 -0.0236  0.2351 -0.0024
11885TIP3    H257071   2.669   0.291  11.182 -0.1645 -0.2039  0.0654
11886TIP3   OH257072   0.280   2.420   0.142  0.5783 -0.1511 -0.1180
11886TIP3    H157073   0.226   2.354   0.098  1.1333 -0.4820 -0.3163
11886TIP3    H257074   0.217   2.480   0.181  0.0213 -1.4540  1.1029
11887TIP3   OH257075   1.464   3.955  16.614 -0.3278  0.5362 -0.1009
11887TIP3    H157076   1.379   3.913  16.601  0.1976 -1.8658  3.0788
11887TIP3    H257077   1.454   4.005  16.695  0.8487  1.6856 -0.6203
11888TIP3   OH257078   5.209   3.981  16.327  0.0184  0.0705  0.1163
11888TIP3    H157079   5.249   4.017  16.406  0.1222 -1.5931  0.8749
11888TIP3    H257080   5.119   4.014  16.329  0.3180  0.9022  0.3485
11889TIP3   OH257081   5.353   5.727   0.040  0.0700  0.3559  0.0837
11889TIP3    H157082   5.387   5.778  -0.034  1.2799  0.8948  0.9995
11889TIP3    H257083   5.354   5.787   0.114  3.4393 -1.4083  1.7019
11890TIP3   OH257084   6.610   3.871   4.749  0.1191 -0.4681 -0.0579
11890TIP3    H157085   6.601   3.814   4.673 -1.4960 -0.2853 -0.0254
11890TIP3    H257086   6.621   3.959   4.712  0.1400 -0.4801 -0.0802
11891TIP3   OH257087   4.571   4.862   2.429  0.3670  0.0959  0.3935
11891TIP3    H157088   4.529   4.807   2.363  2.6513 -1.5256  0.1835
11891TIP3    H257089   4.554   4.951   2.401 -0.9168 -0.5186 -0.9101
11892TIP3   OH257090   6.111   1.575  16.133 -0.2619  0.5092 -0.4195
11892TIP3    H157091   6.078   1.575  16.043  0.4256 -1.6857 -0.7215
11892TIP3    H257092   6.205   1.564  16.125 -0.1211  0.8181  0.5839
11893TIP3   OH257093   5.124   6.575   1.102 -0.6484 -0.7383 -0.9759
11893TIP3    H157094   5.070   6.527   1.165 -0.6464  0.4257 -0.0528
11893TIP3    H257095   5.171   6.507   1.054 -1.8639 -1.7140 -0.8296
11894TIP3   OH257096   3.852   1.472  12.711 -0.1094  0.4351  0.2407
11894TIP3    H157097   3.758   1.484  12.726 -0.2013  0.1642 -0.1078
11894TIP3    H257098   3.894   1.519  12.783 -0.5111  0.6084  0.3649
11895TIP3   OH257099   3.005   1.540   3.768 -0.1387 -0.0346  0.4781
11895TIP3    H157100   2.987   1.564   3.859  0.5598 -1.8224  1.1464
11895TIP3    H257101   3.036   1.620   3.727 -0.3822  0.7876  1.8351
11896TIP3   OH257102   6.798   1.754  12.828 -0.8059  0.2573  0.1508
11896TIP3    H157103   6.876   1.706  12.857 -0.6962 -0.1720 -0.8211
11896TIP3    H257104   6.750   1.692  12.773 -0.9712  1.0563 -0.6273
11897TIP3   OH257105   3.979   4.900  11.377  0.0481 -0.0810  0.2995
11897TIP3    H157106   3.921   4.914  11.451  1.4615 -1.6923  1.8019
11897TIP3    H257107   3.934   4.940  11.303 -1.7284  0.9824  1.8807
11898TIP3   OH257108   0.844   4.128  16.195 -0.1123  0.1088  0.1269
11898TIP3    H157109   0.886   4.205  16.156  1.2762 -1.0507 -0.7541
11898TIP3    H257110   0.915   4.082  16.239 -0.3892 -1.9120 -1.4126
11899TIP3   OH257111   4.703   2.479  13.576  0.0882 -0.8305  0.0252
11899TIP3    H157112   4.637   2.422  13.616 -0.2293  0.0854  0.8204
11899TIP3    H257113   4.720   2.546  13.641  0.1301  0.2514 -1.0684
11900TIP3   OH257114   6.632   0.936  12.203  0.4707  0.6115 -0.1467
11900TIP3    H157115   6.562   0.999  12.217  0.7149  0.8273  0.1185
11900TIP3    H257116   6.703   0.966  12.260  0.9877  0.7231 -0.8333
11901TIP3   OH257117   0.418   1.867  16.447 -0.5990  0.1994 -0.2906
11901TIP3    H157118   0.488   1.819  16.402 -1.0016 -0.2993 -0.4040
11901TIP3    H257119   0.395   1.812  16.522 -0.6354  0.5243 -0.0619
11902TIP3   OH257120   1.824   6.770  11.732  0.0363  0.3894  0.2183
11902TIP3    H157121   1.864   6.815  11.807  1.7463 -1.2736  0.3790
11902TIP3    H257122   1.750   6.826  11.707 -0.6431  0.9536  3.1680
11903TIP3   OH257123   6.464   0.247   5.101  0.1125 -0.0937 -0.6337
11903TIP3    H157124   6.459   0.157   5.071 -0.4038 -0.1490 -0.4038
11903TIP3    H257125   6.454   0.241   5.196  2.0920  0.0460 -0.3795
11904TIP3   OH257126   6.374   5.056   5.822  0.2936  0.0817 -0.0379
11904TIP3    H157127   6.356   5.135   5.872 -0.8713 -0.2208  0.0352
11904TIP3    H257128   6.435   5.085   5.754  1.7795  0.5308  1.4180
11905TIP3   OH257129   0.223   1.460   2.765  0.6123 -0.2103  0.0332
11905TIP3    H157130   0.200   1.413   2.846 -2.1164 -0.2999 -0.7055
11905TIP3    H257131   0.248   1.548   2.795  1.8962 -0.8903  1.1066
11906TIP3   OH257132   0.880   1.026   3.635  0.3086 -0.2572  0.8358
11906TIP3    H157133   0.841   1.053   3.552  0.6023 -0.0058  0.7764
11906TIP3    H257134   0.883   1.106   3.687  0.8604 -0.2443  0.7890
11907TIP3   OH257135   6.530   0.285   2.165  0.0154  0.3653  0.6558
11907TIP3    H157136   6.440   0.259   2.185  0.1615 -0.6245  0.0871
11907TIP3    H257137   6.536   0.376   2.195 -1.2677  0.5473  0.4130
11908TIP3   OH257138   1.197   4.636  16.906  0.4232 -0.4481  0.0580
11908TIP3    H157139   1.283   4.663  16.873  0.3274 -1.9290 -1.5082
11908TIP3    H257140   1.181   4.551  16.866 -2.1128  0.1172 -0.2994
11909TIP3   OH257141   2.805   1.762  12.906  0.2321  0.1977  0.0318
11909TIP3    H157142   2.879   1.714  12.943  0.0011 -0.0548  0.1697
11909TIP3    H257143   2.775   1.707  12.834  1.7018  1.4522 -1.6215
11910TIP3   OH257144   3.177   6.003  15.801 -0.8496  0.0752 -0.4049
11910TIP3    H157145   3.170   5.907  15.795  0.9494 -0.1344  0.3314
11910TIP3    H257146   3.118   6.035  15.732 -0.7385 -1.5745 -1.3292
11911TIP3   OH257147   0.665   1.795   4.038  0.2359 -0.1079 -0.3330
11911TIP3    H157148   0.602   1.864   4.058  0.6272  0.1863 -0.1068
11911TIP3    H257149   0.736   1.807   4.101 -0.2274 -1.4505  0.5020
11912TIP3   OH257150   6.723   2.617   4.769 -0.5852  0.3872  0.5573
11912TIP3    H157151   6.783   2.559   4.817 -2.0085 -1.3539  0.3487
11912TIP3    H257152   6.779   2.686   4.734  1.2661 -1.0173  0.5804
11913TIP3   OH257153   2.565   2.173   1.003  0.3118 -0.3670 -0.4884
11913TIP3    H157154   2.597   2.262   1.018 -1.8768  0.3337  0.4711
11913TIP3    H257155   2.520   2.177   0.919 -0.2383 -0.4117 -0.2031
11914TIP3   OH257156   1.982   4.622  13.109  0.5098  0.2786 -0.8690
11914TIP3    H157157   1.940   4.655  13.030  0.2882  1.2786 -0.3449
11914TIP3    H257158   2.000   4.530  13.089 -0.2001  0.3222 -1.8032
11915TIP3   OH257159   2.763   2.968  15.554 -0.5272 -0.2139  0.8804
11915TIP3    H157160   2.840   2.946  15.502 -0.8693 -2.0582  1.1067
11915TIP3    H257161   2.798   2.989  15.641 -0.2701 -0.8869  0.9388
11916TIP3   OH257162   4.555   6.305   3.628  0.3130 -0.0498 -0.5178
11916TIP3    H157163   4.612   6.285   3.703  0.4073 -0.1669 -0.6179
11916TIP3    H257164   4.574   6.396   3.606  0.1548  0.0384 -0.2880
11917TIP3   OH257165   4.195   2.229   5.657 -0.4025  0.3364  0.1373
11917TIP3    H157166   4.285   2.209   5.631 -0.4820 -2.8324  1.8401
11917TIP3    H257167   4.141   2.165   5.611 -1.3323 -0.3081  2.0276
11918TIP3   OH257168   0.018   3.243   5.395  0.4956 -0.5265 -0.3182
11918TIP3    H157169  -0.021   3.173   5.344  1.6832 -2.0098  0.7121
11918TIP3    H257170   0.106   3.212   5.415  0.0988 -0.0732  2.6202
11919TIP3   OH257171   5.972   2.518  13.090 -0.5929  0.0356 -0.4156
11919TIP3    H157172   5.889   2.564  13.086 -1.6629 -1.8397 -1.2761
11919TIP3    H257173   5.948   2.429  13.117  1.0204 -0.7572 -1.4575
11920TIP3   OH257174   4.652   1.367  13.271  0.7046 -0.0075 -0.3209
11920TIP3    H157175   4.682   1.455  13.247  0.8463  0.3731  1.1614
11920TIP3    H257176   4.569   1.356  13.224 -0.2655  1.6821  0.8840
11921TIP3   OH257177   2.363   4.461  15.658  0.7822  0.2535 -0.2602
11921TIP3    H157178   2.312   4.398  15.607  1.4364 -0.5210  0.0222
11921TIP3    H257179   2.339   4.443  15.749  2.3444 -0.8887 -0.0251
11922TIP3   OH257180   4.872   0.006   5.230  0.8884 -0.0785  0.0999
11922TIP3    H157181   4.809   0.076   5.247  2.0250  1.0414 -0.1183
11922TIP3    H257182   4.839  -0.069   5.279 -1.6273 -0.1430 -1.5155
11923TIP3   OH257183   3.922   0.562  15.729 -0.0912 -0.4120 -0.0174
11923TIP3    H157184   3.860   0.508  15.778 -0.2606  0.8245  1.1838
11923TIP3    H257185   3.935   0.640  15.783  1.3669  0.0458 -0.9559
11924TIP3   OH257186   4.081   6.669   2.370 -0.6027  0.2960  0.2010
11924TIP3    H157187   4.144   6.618   2.421 -0.7016 -0.9580 -0.9025
11924TIP3    H257188   4.074   6.623   2.286 -1.8231  1.2908 -0.2740
11925TIP3   OH257189   3.107   2.405  11.405  0.0232  0.1859  0.6617
11925TIP3    H157190   3.155   2.432  11.483 -1.1576 -0.2689  1.5651
11925TIP3    H257191   3.034   2.352  11.438 -0.9312  0.6029 -0.6760
11926TIP3   OH257192   4.778   6.747   4.157  0.0290 -0.3987  0.3391
11926TIP3    H157193   4.855   6.706   4.196 -0.1080 -0.8881  0.0947
11926TIP3    H257194   4.734   6.677   4.110  0.0039  0.1065 -0.4088
11927TIP3   OH257195   6.556   5.660  17.049 -0.1082  0.2035  0.1407
11927TIP3    H157196   6.606   5.741  17.059 -0.0170  0.2257 -0.4864
11927TIP3    H257197   6.472   5.688  17.012  0.2628 -0.0839 -0.9505
11928TIP3   OH257198   1.402   5.642  16.271 -0.0411  0.7783  0.0775
11928TIP3    H157199   1.425   5.581  16.341 -1.1433  1.0083  0.6486
11928TIP3    H257200   1.382   5.724  16.316  1.6686  1.6764 -0.6944
11929TIP3   OH257201   3.736   3.886   1.659  0.2890  0.4359  0.2942
11929TIP3    H157202   3.699   3.961   1.706  1.0662  2.4529 -2.0685
11929TIP3    H257203   3.661   3.847   1.614  0.0411  0.3736  0.7481
11930TIP3   OH257204   5.817   3.335  14.680 -0.0277  0.3606  0.1707
11930TIP3    H157205   5.774   3.266  14.631  0.1322  0.6056 -0.3234
11930TIP3    H257206   5.753   3.361  14.746 -0.4440  0.3776 -0.2339
11931TIP3   OH257207   5.685   1.714  11.337  0.0580 -0.0729 -0.2846
11931TIP3    H157208   5.684   1.638  11.279  1.7266  0.2009 -0.7331
11931TIP3    H257209   5.695   1.677  11.425 -3.1499 -0.5285  0.0107
11932TIP3   OH257210   6.212   3.312   0.136  0.7604  0.0947 -0.3670
11932TIP3    H157211   6.251   3.371   0.072  0.5460 -0.5152 -1.0780
11932TIP3    H257212   6.276   3.242   0.148  0.0902 -0.6891 -1.2201
11933TIP3   OH257213   3.925   2.689  11.714 -0.1455  0.3643 -0.0044
11933TIP3    H157214   3.881   2.752  11.771  1.8597  0.3340  1.6996
11933TIP3    H257215   3.957   2.621  11.773 -1.0788 -1.6021 -1.6427
11934TIP3   OH257216   0.245   4.779   0.425 -0.0556 -0.1365 -0.7124
11934TIP3    H157217   0.204   4.765   0.510  1.1735 -1.2521 -0.2790
11934TIP3    H257218   0.240   4.873   0.411 -0.3800  0.0405  0.5288
11935TIP3   OH257219   2.063   2.957  16.864 -0.0925  0.7306  0.0995
11935TIP3    H157220   2.052   2.862  16.855 -1.1362  0.8587 -0.0362
11935TIP3    H257221   2.109   2.984  16.785  1.1670  0.2067  0.6131
11936TIP3   OH257222   4.693   4.696  13.930 -0.3384 -0.5010  0.5828
11936TIP3    H157223   4.623   4.630  13.933  0.1257 -0.9788  0.8701
11936TIP3    H257224   4.756   4.661  13.867  0.4307 -0.8415  1.5376
11937TIP3   OH257225   2.744   1.652  13.533 -0.0528  0.0000 -0.5504
11937TIP3    H157226   2.656   1.621  13.514 -1.2436  2.5641  0.3794
11937TIP3    H257227   2.763   1.618  13.620 -0.6417  0.4513 -0.2411
11938TIP3   OH257228   3.298   0.059   0.356  0.3012 -0.2205  0.6765
11938TIP3    H157229   3.233   0.072   0.286 -0.4844  0.3907  1.4991
11938TIP3    H257230   3.353  -0.013   0.324  2.0377  2.1146 -2.0790
11939TIP3   OH257231   3.607   1.740   5.875 -0.4793 -0.2157  0.1246
11939TIP3    H157232   3.585   1.650   5.855 -0.3206 -0.0982 -0.6179
11939TIP3    H257233   3.566   1.757   5.959 -0.1968 -1.0916  0.4502
11940TIP3   OH257234   0.075   1.030   2.456 -0.1552  0.2794  0.1772
11940TIP3    H157235   0.097   1.111   2.502 -0.9222  0.7123 -0.1988
11940TIP3    H257236   0.051   1.058   2.368 -2.7695 -0.0608  0.7049
11941TIP3   OH257237   6.323   1.210  14.696  0.3985  0.1738 -0.5238
11941TIP3    H157238   6.230   1.199  14.673  0.2145  1.9213 -0.7767
11941TIP3    H257239   6.363   1.126  14.672 -1.3789 -1.2641  1.1782
11942TIP3   OH257240   2.514   6.267  16.540  0.2371  0.5628 -0.1158
11942TIP3    H157241   2.445   6.238  16.599  0.8696  1.2381  0.9881
11942TIP3    H257242   2.468   6.297  16.462 -0.5159 -2.4342 -0.9487
11943TIP3   OH257243   0.399   3.136  12.406  0.0252  0.2434  0.4769
11943TIP3    H157244   0.476   3.100  12.362 -0.6482 -0.6317 -0.0335
11943TIP3    H257245   0.357   3.060  12.446 -1.0116  0.5723  0.0495
11944TIP3   OH257246   2.046   3.891   1.280  0.1168 -0.3105  0.6552
11944TIP3    H157247   2.018   3.886   1.189 -0.3507 -2.3605  0.8737
11944TIP3    H257248   2.084   3.806   1.299  0.7104  0.2647  2.2396
11945TIP3   OH257249   0.141   0.128   5.587  0.5117  0.4132  0.1486
11945TIP3    H157250   0.105   0.213   5.562 -1.0572  0.1779  1.4162
11945TIP3    H257251   0.118   0.118   5.679 -0.9973 -2.1701 -0.4029
11946TIP3   OH257252   2.848   3.957   0.388  0.1451  0.5308  0.2802
11946TIP3    H157253   2.879   3.868   0.377 -0.1573  0.6234 -1.6089
11946TIP3    H257254   2.873   3.980   0.478  0.8886 -1.1720  0.5467
11947TIP3   OH257255   6.339   5.987   5.488 -0.1540  0.0072 -0.3027
11947TIP3    H157256   6.298   6.060   5.440  0.9750  1.6253  1.0576
11947TIP3    H257257   6.286   5.978   5.568 -0.8710 -1.3632 -0.9044
11948TIP3   OH257258   5.412   5.561  14.706  0.1571 -0.2408  0.1703
11948TIP3    H157259   5.370   5.545  14.622  1.8127  1.0488 -0.9698
11948TIP3    H257260   5.503   5.534  14.692  0.0062 -2.1061  2.2672
11949TIP3   OH257261   1.373   2.555   5.180  1.1500  0.2605  0.3592
11949TIP3    H157262   1.290   2.579   5.138  1.7233 -0.0706 -1.0073
11949TIP3    H257263   1.363   2.585   5.271 -1.1068 -1.1872  0.6883
11950TIP3   OH257264   1.146   1.093   5.080  0.1381 -0.1333  0.7389
11950TIP3    H157265   1.203   1.166   5.055  0.2320  0.1554  1.7531
11950TIP3    H257266   1.202   1.016   5.073  0.3781  0.0335  0.8198
11951TIP3   OH257267   2.070   3.950   5.541  0.1919  0.5437  0.1096
11951TIP3    H157268   1.996   3.930   5.482  1.2766  2.9663 -2.3106
11951TIP3    H257269   2.031   4.002   5.610 -0.5552  0.9843 -0.6171
11952TIP3   OH257270   1.222   5.702  11.883  0.0926  0.1009 -0.3709
11952TIP3    H157271   1.237   5.754  11.804  0.0346 -2.1662 -1.9736
11952TIP3    H257272   1.192   5.766  11.948 -1.3212  1.8767 -2.5807
11953TIP3   OH257273   6.562   0.769  16.333 -0.2409  0.0124 -0.0950
11953TIP3    H157274   6.516   0.852  16.352 -0.1046  0.4226 -1.4733
11953TIP3    H257275   6.655   0.792  16.338 -0.1973  0.1568 -1.2547
11954TIP3   OH257276   4.261   1.873   4.434 -0.0202 -0.5907  0.5932
11954TIP3    H157277   4.354   1.851   4.443  0.1846  0.4954  1.3943
11954TIP3    H257278   4.232   1.893   4.523 -1.0906 -1.1124  0.3800
11955TIP3   OH257279   1.558   6.564  15.400 -0.2416 -0.2355 -0.3713
11955TIP3    H157280   1.520   6.480  15.428  0.9692 -0.4144  0.8103
11955TIP3    H257281   1.634   6.576  15.456  0.3453  1.0532 -1.3934
11956TIP3   OH257282   0.426   1.367  12.830 -0.5222 -0.7633  0.6001
11956TIP3    H157283   0.508   1.323  12.808 -0.8603 -0.9324 -0.3635
11956TIP3    H257284   0.452   1.456  12.854 -0.1198 -0.5058 -0.6780
11957TIP3   OH257285   5.680   0.693  13.221  0.9476 -0.3568 -0.0344
11957TIP3    H157286   5.756   0.697  13.163  1.7244  1.4013  1.0256
11957TIP3    H257287   5.616   0.752  13.181  1.7291  1.3743  1.1442
11958TIP3   OH257288   5.827   0.532  11.725  0.2712 -0.3292 -0.3303
11958TIP3    H157289   5.854   0.548  11.815 -1.3661  2.4115 -0.2207
11958TIP3    H257290   5.733   0.514  11.730 -0.0721  0.9207 -1.5311
11959TIP3   OH257291   0.756   5.996   0.391  0.0681  0.3641 -0.5626
11959TIP3    H157292   0.690   5.973   0.327 -1.3361  0.1216  0.9089
11959TIP3    H257293   0.801   5.914   0.410  0.2512  0.3702 -0.9597
11960TIP3   OH257294   1.936   6.595  12.790  0.1822  0.1077  0.5303
11960TIP3    H157295   1.983   6.679  12.784  0.7183 -0.1894  0.5004
11960TIP3    H257296   1.850   6.618  12.825 -1.3551  1.3274 -3.4451
11961TIP3   OH257297   4.330   0.709  13.089 -0.0995  0.5867 -0.0278
11961TIP3    H157298   4.258   0.657  13.054 -0.2787  1.6884 -1.3837
11961TIP3    H257299   4.292   0.758  13.162 -0.5610  0.6281 -0.2923
11962TIP3   OH257300   5.614   4.017   1.275  0.2365  0.3186  0.5673
11962TIP3    H157301   5.683   3.970   1.228  0.5056 -0.7728  1.9654
11962TIP3    H257302   5.569   4.068   1.208  1.8189  0.3390 -0.5275
11963TIP3   OH257303   0.995   0.789   0.977 -0.1323  0.4869 -0.6434
11963TIP3    H157304   0.992   0.880   1.007  1.3454  0.3123  0.1034
11963TIP3    H257305   1.079   0.781   0.932  0.5624 -0.9434  0.8166
11964TIP3   OH257306   2.341   1.993   1.001  0.1153  0.1398  0.1454
11964TIP3    H157307   2.266   2.045   1.029 -0.5118 -0.2092 -0.8377
11964TIP3    H257308   2.416   2.034   1.045 -0.3187  1.9989 -0.7204
11965TIP3   OH257309   0.795   6.489  14.686 -0.0415  0.1799 -0.7441
11965TIP3    H157310   0.811   6.508  14.593 -1.0449 -3.6316 -1.9171
11965TIP3    H257311   0.866   6.430  14.711  1.2225  2.5174  1.5684
11966TIP3   OH257312   1.992   1.762   1.125 -0.3136  0.3678 -0.0991
11966TIP3    H157313   1.935   1.803   1.190 -0.9449 -0.5569 -0.0460
11966TIP3    H257314   2.080   1.772   1.161 -0.3547  2.2631 -0.4226
11967TIP3   OH257315   6.188   1.679   0.071 -0.1209 -0.0678  0.0555
11967TIP3    H157316   6.163   1.661   0.161  1.1140  0.1462  0.4651
11967TIP3    H257317   6.204   1.593   0.032  1.4296 -0.0947  0.6926
11968TIP3   OH257318   2.085   1.456  15.362  0.2754 -0.6523 -0.0940
11968TIP3    H157319   2.156   1.412  15.315  1.2826  0.7145  0.0641
11968TIP3    H257320   2.118   1.465  15.451  0.0125  0.2070 -0.0748
11969TIP3   OH257321   3.643   1.565   1.286  0.0328 -0.5694 -0.4474
11969TIP3    H157322   3.580   1.631   1.257 -1.0387 -1.4902 -0.2939
11969TIP3    H257323   3.624   1.554   1.379  1.2730  0.0268 -0.0950
11970TIP3   OH257324   1.308   5.393   2.520 -0.4019 -0.0508  0.1199
11970TIP3    H157325   1.314   5.366   2.428 -0.4182  1.1563 -0.2525
11970TIP3    H257326   1.214   5.396   2.538 -0.4663  1.2518 -0.3223
11971TIP3   OH257327   3.527   5.140   2.721  0.0138  0.6500 -0.2933
11971TIP3    H157328   3.611   5.096   2.706 -0.0165  0.6159 -0.3643
11971TIP3    H257329   3.461   5.074   2.700 -0.0464  1.0846 -1.5357
11972TIP3   OH257330   6.024   4.475  16.720 -0.4244 -0.0318  0.0905
11972TIP3    H157331   6.019   4.526  16.639  0.8996  1.0363  0.6249
11972TIP3    H257332   6.101   4.510  16.765  0.8527 -2.8369  0.3114
11973TIP3   OH257333   5.956   2.623  15.015 -0.4323  0.6138 -0.0611
11973TIP3    H157334   5.973   2.593  14.926  0.3674  1.4152 -0.1915
11973TIP3    H257335   5.892   2.693  15.005 -0.0523  0.9687 -0.0564
11974TIP3   OH257336   2.549   3.236   6.208  0.5695  0.4299  0.5703
11974TIP3    H157337   2.629   3.205   6.166 -0.2870 -1.4676  0.2652
11974TIP3    H257338   2.572   3.323   6.242  2.6158  0.0985  0.1376
11975TIP3   OH257339   1.021   2.209   1.515  0.2992 -0.1721  0.4086
11975TIP3    H157340   0.998   2.287   1.464 -0.0615  0.0587  0.9262
11975TIP3    H257341   0.982   2.136   1.467  1.8350 -0.2151 -0.8729
11976TIP3   OH257342   3.554   5.889   1.813 -0.6368  0.2493 -0.0174
11976TIP3    H157343   3.640   5.851   1.830 -0.3678  0.0210 -1.7031
11976TIP3    H257344   3.559   5.978   1.845  0.2925  0.2803 -0.2395
11977TIP3   OH257345   5.242   4.369   3.385  0.1378 -0.0819  0.2727
11977TIP3    H157346   5.332   4.351   3.358 -0.6270 -2.7239 -0.8636
11977TIP3    H257347   5.245   4.374   3.480  1.3911 -0.7879  0.2799
11978TIP3   OH257348   2.935   2.110   0.773  0.2682 -0.2454  0.2976
11978TIP3    H157349   2.934   2.206   0.767  0.5915 -0.3315 -2.7409
11978TIP3    H257350   2.848   2.084   0.742  0.7286 -0.9320 -0.4637
11979TIP3   OH257351   5.393   2.261   0.267 -0.0630 -0.2208 -0.3031
11979TIP3    H157352   5.384   2.328   0.199 -0.0032  1.3588  1.1938
11979TIP3    H257353   5.474   2.215   0.245  0.4811  0.9132 -0.7594
11980TIP3   OH257354   0.387   5.540  16.534 -0.2227 -0.1574  0.8264
11980TIP3    H157355   0.363   5.570  16.621 -0.6560  1.2037  0.2620
11980TIP3    H257356   0.477   5.506  16.544  0.2110  1.1343  1.5504
11981TIP3   OH257357   4.551   2.840  12.740 -0.5659  0.5320 -0.4547
11981TIP3    H157358   4.528   2.755  12.703 -1.1296  1.1804 -1.6312
11981TIP3    H257359   4.487   2.900  12.703  0.6547  1.7077 -0.7029
11982TIP3   OH257360   5.943   0.006   2.461 -0.6712 -0.3781 -0.9005
11982TIP3    H157361   6.030   0.036   2.435 -0.4385  0.7428  0.9832
11982TIP3    H257362   5.888   0.022   2.384  0.4262  0.5788 -1.5139
11983TIP3   OH257363   6.150   0.875   2.647  0.7491 -0.1860  0.2486
11983TIP3    H157364   6.133   0.801   2.588 -0.0392 -1.4555  1.9793
11983TIP3    H257365   6.229   0.851   2.695  0.2694 -0.1075  1.1004
11984TIP3   OH257366   5.220   5.644  15.502  0.5592  0.2864  0.3433
11984TIP3    H157367   5.170   5.682  15.430 -1.4282 -1.3553  0.7513
11984TIP3    H257368   5.159   5.643  15.575  1.8599 -0.0146  1.4674
11985TIP3   OH257369   2.732   2.823   6.072 -0.7925 -0.1666  0.2399
11985TIP3    H157370   2.743   2.731   6.093  0.0882 -0.0578  0.2765
11985TIP3    H257371   2.795   2.868   6.128 -1.5602  0.5069  0.5925
11986TIP3   OH257372   5.722   4.050  12.355 -0.1085 -0.4324  0.6310
11986TIP3    H157373   5.785   3.987  12.390 -0.5604  0.5872  3.5200
11986TIP3    H257374   5.776   4.126  12.330  0.1961 -1.1088 -0.9206
11987TIP3   OH257375   2.456   5.613   1.902  0.5465 -0.0820 -0.2985
11987TIP3    H157376   2.382   5.555   1.920 -0.0120  1.6773  4.3539
11987TIP3    H257377   2.534   5.558   1.917  0.0441 -0.2005  2.2352
11988TIP3   OH257378   2.276   0.206  14.519  0.1189 -0.3391  0.2403
11988TIP3    H157379   2.355   0.210  14.574 -0.2340  0.9390  0.6840
11988TIP3    H257380   2.309   0.183  14.432  1.0782  0.8583  0.2600
11989TIP3   OH257381   0.992   3.443   5.197 -0.3098 -0.2499 -0.2469
11989TIP3    H157382   1.010   3.404   5.112  1.7205  2.0611 -0.9812
11989TIP3    H257383   1.076   3.440   5.243 -1.1110 -0.4518  1.2514
11990TIP3   OH257384   2.755   1.041   1.354  0.3401 -0.0434 -0.3014
11990TIP3    H157385   2.833   1.030   1.409 -2.3281 -1.5793  3.7085
11990TIP3    H257386   2.740   0.954   1.316 -1.6626 -1.2010  2.7132
11991TIP3   OH257387   1.662   2.671  16.875  0.2275 -0.2217  0.5642
11991TIP3    H157388   1.746   2.660  16.831  0.1736  1.3630 -0.0043
11991TIP3    H257389   1.597   2.665  16.804  0.1339  2.2990  0.3414
11992TIP3   OH257390   4.103   3.712   3.884  0.3078 -0.3181 -0.1525
11992TIP3    H157391   4.018   3.756   3.881  1.0094  1.2149  1.0345
11992TIP3    H257392   4.145   3.735   3.801 -0.1172 -0.4430 -0.4066
11993TIP3   OH257393   6.616   2.688  13.253 -0.1121  0.0014  0.2033
11993TIP3    H157394   6.574   2.657  13.333  0.0240  1.1121  0.7283
11993TIP3    H257395   6.560   2.760  13.223 -0.7741 -1.1053 -1.3280
11994TIP3   OH257396   2.783   6.275   1.391 -0.2583  0.5400 -0.5844
11994TIP3    H157397   2.823   6.253   1.476 -0.9306 -1.3952 -0.7053
11994TIP3    H257398   2.824   6.357   1.365 -0.4695  1.5146  1.8913
11995TIP3   OH257399   3.158   5.990   3.850  0.5273  0.4813  0.1337
11995TIP3    H157400   3.108   6.039   3.915  0.9378  1.2044 -0.0751
11995TIP3    H257401   3.140   5.898   3.869  0.0834  0.7018  0.8137
11996TIP3   OH257402   2.261   3.276   1.609  0.1464 -0.0540  0.1814
11996TIP3    H157403   2.206   3.347   1.579 -0.4130 -0.7320 -0.4280
11996TIP3    H257404   2.271   3.219   1.533 -0.4743 -1.2856  0.9881
11997TIP3   OH257405   0.370   0.134   2.645  0.4933 -1.0346  0.6483
11997TIP3    H157406   0.335   0.189   2.575  1.9996  0.1456  0.7887
11997TIP3    H257407   0.447   0.093   2.607  1.3447 -0.3511  1.5950
11998TIP3   OH257408   4.063   6.430  14.899 -0.1247  0.2554  0.3494
11998TIP3    H157409   4.134   6.491  14.921 -0.4058  0.4398  0.7579
11998TIP3    H257410   3.987   6.463  14.946 -0.3292 -0.3028  0.4236
11999TIP3   OH257411   4.238   4.028   4.986  0.6153  0.2193  0.6379
11999TIP3    H157412   4.221   4.120   5.007  0.8674  0.6519 -0.8977
11999TIP3    H257413   4.296   3.998   5.056 -0.6161  0.7814  1.9652
12000TIP3   OH257414   0.366   5.394  14.619 -0.1302  0.5824  0.7965
12000TIP3    H157415   0.291   5.335  14.613  0.1059  0.3924 -3.2134
12000TIP3    H257416   0.438   5.338  14.647 -0.4615 -0.5403 -0.4389
12001TIP3   OH257417   4.959   4.323   3.870  0.3704 -0.0505 -0.1263
12001TIP3    H157418   4.875   4.361   3.895  0.0120  0.2870 -1.7544
12001TIP3    H257419   5.014   4.335   3.947 -0.5456  1.3207  0.3548
12002TIP3   OH257420   5.279   4.122  15.431  0.2209  0.5958 -0.4452
12002TIP3    H157421   5.340   4.145  15.500  0.8611  0.6724 -1.0282
12002TIP3    H257422   5.255   4.205  15.391  1.5245  0.4106 -1.7005
12003TIP3   OH257423   3.691   6.640   3.069 -0.0813  0.4135  1.0462
12003TIP3    H157424   3.777   6.681   3.073 -0.3771  1.0938  0.5896
12003TIP3    H257425   3.695   6.571   3.135  0.8885  0.2816  0.8739
12004TIP3   OH257426   0.955   1.734  15.696  0.1448  0.8664 -0.6401
12004TIP3    H157427   1.024   1.668  15.689  2.5973  3.2528 -0.4001
12004TIP3    H257428   0.909   1.730  15.612 -0.6717 -1.9517 -0.1662
12005TIP3   OH257429   4.305   5.798   1.805  0.5345  0.0039  0.3358
12005TIP3    H157430   4.339   5.708   1.811 -0.4541 -0.3326  1.4458
12005TIP3    H257431   4.307   5.818   1.712  1.4909 -0.8845  0.1405
12006TIP3   OH257432   6.250   6.204  12.472  0.0787  0.1041 -0.0516
12006TIP3    H157433   6.163   6.210  12.512  0.1754  0.6693  0.0876
12006TIP3    H257434   6.303   6.266  12.521  0.3527  0.3592 -0.6567
12007TIP3   OH257435   6.694   4.695  14.604 -0.3988  0.0451  0.0195
12007TIP3    H157436   6.701   4.788  14.583 -0.3620 -0.6190 -3.4917
12007TIP3    H257437   6.769   4.676  14.660  0.2670  1.8686 -0.2119
12008TIP3   OH257438   5.691   5.967   4.916  0.3123 -0.3982  0.2764
12008TIP3    H157439   5.665   5.876   4.922 -0.6872 -0.0976  0.6876
12008TIP3    H257440   5.674   6.004   5.002  1.2436  0.0515  0.2877
12009TIP3   OH257441   2.985   1.324  11.834 -0.2938  0.1286  0.2704
12009TIP3    H157442   2.994   1.250  11.894  0.6067 -0.7680 -0.9221
12009TIP3    H257443   3.065   1.376  11.848  0.0062 -0.1794 -0.2500
12010TIP3   OH257444   3.005   2.748  16.207  0.3502  0.0992 -0.1470
12010TIP3    H157445   2.930   2.733  16.151  0.9727 -1.2709 -0.6568
12010TIP3    H257446   3.055   2.816  16.163 -1.1564  1.9178  0.8099
12011TIP3   OH257447   0.501   5.789   2.529  0.5546  0.1585 -0.9395
12011TIP3    H157448   0.406   5.784   2.521  0.6855  0.2595 -3.2569
12011TIP3    H257449   0.517   5.801   2.622 -1.8161  2.6910 -0.7442
12012TIP3   OH257450   6.610   4.464  14.096 -0.0376  0.5818  0.0050
12012TIP3    H157451   6.613   4.538  14.156  0.0674  0.9286 -0.4221
12012TIP3    H257452   6.523   4.425  14.110 -0.3940  1.2421 -0.3052
12013TIP3   OH257453   4.461   2.434  14.221  0.2153 -0.3671 -0.2626
12013TIP3    H157454   4.385   2.388  14.186 -0.1405  1.4366 -2.0580
12013TIP3    H257455   4.532   2.371  14.217  0.2708 -0.3128 -4.6946
12014TIP3   OH257456   4.551   5.214  12.931 -0.2932 -0.2029 -0.1460
12014TIP3    H157457   4.538   5.142  12.993  0.5834 -1.8414 -1.7520
12014TIP3    H257458   4.470   5.215  12.879 -0.4761  0.2584  0.1467
12015TIP3   OH257459   1.518   2.586  14.268  0.0867 -0.4499  0.2999
12015TIP3    H157460   1.486   2.666  14.310 -0.4597  0.9264 -2.4455
12015TIP3    H257461   1.614   2.592  14.276 -0.0204 -1.0407  2.5661
12016TIP3   OH257462   5.411   5.712  11.032  0.1040 -0.0017  0.2988
12016TIP3    H157463   5.382   5.794  10.992 -1.3822 -0.9762 -0.6806
12016TIP3    H257464   5.414   5.731  11.126 -2.0304  0.6675  0.2806
12017TIP3   OH257465   0.725   2.504  11.272  0.1497  0.0686 -0.5396
12017TIP3    H157466   0.697   2.510  11.364  0.1015  2.4186 -0.6490
12017TIP3    H257467   0.786   2.430  11.270  0.0732 -0.0972  1.3589
12018TIP3   OH257468   6.404   5.288   3.047 -0.2062  0.1474 -0.4427
12018TIP3    H157469   6.418   5.208   2.996 -1.7044 -0.9395  0.7740
12018TIP3    H257470   6.315   5.279   3.082 -0.7602  2.7395 -0.9471
12019TIP3   OH257471   2.243   5.089  13.402 -0.1366 -0.2211  0.4648
12019TIP3    H157472   2.188   5.069  13.326 -0.6544  1.7998  0.2457
12019TIP3    H257473   2.194   5.054  13.476  0.1637 -1.8205 -0.0441
12020TIP3   OH257474   2.063   0.573  16.608  0.1348  0.5513 -0.3706
12020TIP3    H157475   2.137   0.632  16.590 -1.0020  2.3351  0.4904
12020TIP3    H257476   2.045   0.532  16.523  1.3130  1.0372 -0.8834
12021TIP3   OH257477   0.179   2.747   0.112  0.4802  0.0252  0.6869
12021TIP3    H157478   0.090   2.737   0.079  1.0634 -3.4555 -0.1626
12021TIP3    H257479   0.177   2.711   0.200  1.2406 -1.2184  0.2268
12022TIP3   OH257480   3.434   4.992  12.840  0.4359  0.0838 -0.3028
12022TIP3    H157481   3.472   5.020  12.923 -1.5519  2.6314 -0.1262
12022TIP3    H257482   3.358   4.939  12.865  0.3333  0.1289 -0.5100
12023TIP3   OH257483   3.470   2.411  11.411 -0.3505  0.0289  0.6059
12023TIP3    H157484   3.555   2.431  11.372 -0.4342 -2.1818 -0.8778
12023TIP3    H257485   3.490   2.389  11.502  0.4994  0.5747  0.5642
12024TIP3   OH257486   4.135   3.912  16.354  0.5811  0.3545  0.1622
12024TIP3    H157487   4.225   3.924  16.325  0.6906  1.8543  0.9991
12024TIP3    H257488   4.142   3.897  16.448  0.1777 -3.6224 -0.2607
12025TIP3   OH257489   5.750   6.288  15.477 -0.6999 -0.2923 -0.0336
12025TIP3    H157490   5.722   6.363  15.425 -2.9001 -0.6080  0.5892
12025TIP3    H257491   5.728   6.212  15.422  1.2129 -0.5340 -0.5244
12026TIP3   OH257492   0.554   5.132   2.386  0.5129 -0.5032  0.2205
12026TIP3    H157493   0.599   5.144   2.303 -1.7779 -0.1830 -1.0573
12026TIP3    H257494   0.496   5.209   2.393 -2.8215 -2.7544 -0.3040
12027TIP3   OH257495   2.703   3.528  11.797 -0.2004  0.5012 -0.0622
12027TIP3    H157496   2.621   3.563  11.762 -0.5057  0.0795  0.2283
12027TIP3    H257497   2.767   3.544  11.728 -1.2995 -2.7082 -2.0412
12028TIP3   OH257498   3.063   5.066  11.004 -0.3497  0.1340  0.5264
12028TIP3    H157499   3.039   4.975  10.983  0.7517 -0.3228  1.1447
12028TIP3    H257500   3.144   5.058  11.054 -1.2919  1.3425  2.3601
12029TIP3   OH257501   1.663   3.351  12.833 -0.6604 -0.0793  0.7426
12029TIP3    H157502   1.582   3.360  12.783  1.6942  1.4548 -3.1769
12029TIP3    H257503   1.705   3.273  12.798  1.3466  1.3763 -0.3320
12030TIP3   OH257504   5.199   3.366  12.092 -0.4501  0.4730 -0.8208
12030TIP3    H157505   5.126   3.308  12.073 -0.0147 -0.1940 -0.4708
12030TIP3    H257506   5.213   3.358  12.186  0.3247  0.2874 -0.9444
12031TIP3   OH257507   0.783   5.901   0.759  0.1659 -0.0221 -0.7631
12031TIP3    H157508   0.731   5.976   0.732 -1.2563 -0.0981  1.5430
12031TIP3    H257509   0.738   5.825   0.722  1.1733  0.1553 -2.4453
12032TIP3   OH257510   0.033   3.345   1.495 -0.5823  0.2823 -0.2979
12032TIP3    H157511  -0.044   3.295   1.468  0.1578 -0.8737 -0.3441
12032TIP3    H257512   0.073   3.293   1.564 -0.6214  1.5819  0.7502
12033TIP3   OH257513   2.513   5.386   5.175 -0.0547  0.1667 -0.4988
12033TIP3    H157514   2.527   5.480   5.177  0.4240  0.0820  0.8581
12033TIP3    H257515   2.601   5.348   5.168 -0.2921 -0.1938 -2.2013
12034TIP3   OH257516   4.439   1.402   1.627 -0.2547 -0.1991  0.5660
12034TIP3    H157517   4.372   1.470   1.617  0.1909  0.0807 -0.7938
12034TIP3    H257518   4.389   1.321   1.640 -0.9033 -0.0062 -0.5374
12035TIP3   OH257519   2.788   5.704  15.976  0.2054 -0.2034 -0.1313
12035TIP3    H157520   2.854   5.692  15.908  1.3519  0.3637  0.8468
12035TIP3    H257521   2.711   5.657  15.943  1.9812 -3.4920  0.0034
12036TIP3   OH257522   2.514   5.746  11.815 -0.1181 -0.0114  0.2359
12036TIP3    H157523   2.581   5.768  11.880 -0.3524  0.1890  0.4126
12036TIP3    H257524   2.431   5.759  11.861 -0.4946  3.8290 -1.1220
12037TIP3   OH257525   4.564   0.054   5.043 -0.7171  0.1432 -0.0901
12037TIP3    H157526   4.632   0.102   4.997 -0.9676 -2.1442 -3.1449
12037TIP3    H257527   4.495   0.041   4.978 -2.2420 -1.1871  1.6691
12038TIP3   OH257528   3.904   0.617   0.808  0.2155 -0.5276  0.3135
12038TIP3    H157529   3.854   0.542   0.775  0.5576 -0.0409 -1.4070
12038TIP3    H257530   3.856   0.646   0.885 -2.8455  0.5859 -1.8005
12039TIP3   OH257531   4.346   0.019   4.831  0.8733  0.3840 -0.2850
12039TIP3    H157532   4.393  -0.047   4.779 -1.5118 -0.3075 -1.7326
12039TIP3    H257533   4.378   0.103   4.797  1.6250 -0.0436 -0.6760
12040TIP3   OH257534   4.624   4.275   1.453  0.1247  0.3300 -0.3043
12040TIP3    H157535   4.584   4.188   1.457 -0.1737  0.5171  1.3119
12040TIP3    H257536   4.664   4.287   1.539  0.0605  1.8320 -0.4680
12041TIP3   OH257537   3.264   4.489   3.662  0.0253  0.8806  0.5324
12041TIP3    H157538   3.252   4.510   3.570  2.4026 -0.5179 -0.1877
12041TIP3    H257539   3.220   4.561   3.709 -2.6370  0.8035 -1.5852
12042TIP3   OH257540   3.678   6.606  17.081  0.3629  0.3187 -0.1988
12042TIP3    H157541   3.596   6.647  17.109  0.2389  0.3832 -0.6327
12042TIP3    H257542   3.720   6.672  17.026  2.2550  1.5404  2.5078
12043TIP3   OH257543   6.209   5.388  15.569 -0.3253 -0.1450  0.0981
12043TIP3    H157544   6.152   5.384  15.492 -0.0311  0.3913 -0.1550
12043TIP3    H257545   6.170   5.455  15.624 -0.5273 -0.5195  0.4156
12044TIP3   OH257546   4.308   4.854   1.286  0.8500 -1.0305  0.4408
12044TIP3    H157547   4.261   4.783   1.330  1.4907 -0.7405  1.6166
12044TIP3    H257548   4.317   4.824   1.195 -0.3914 -1.6850  0.5143
12045TIP3   OH257549   6.310   0.017   0.863 -0.7639 -0.1032  0.2440
12045TIP3    H157550   6.231   0.042   0.813 -1.7295 -1.7964  0.8390
12045TIP3    H257551   6.371   0.089   0.849 -2.8980  1.9249  0.8425
12046TIP3   OH257552   5.311   6.100  13.167  0.1732 -0.2924  0.4239
12046TIP3    H157553   5.310   6.038  13.240 -0.1944  0.6066  1.2047
12046TIP3    H257554   5.303   6.045  13.088 -0.4703 -1.2037  1.1080
12047TIP3   OH257555   2.333   6.661  11.692  0.0644 -0.3238  0.1588
12047TIP3    H157556   2.344   6.687  11.784 -1.1630 -1.7903  0.7426
12047TIP3    H257557   2.409   6.607  11.673  0.3143 -0.0268  0.2982
12048TIP3   OH257558   2.745   5.519   3.535  0.5962  0.0759  0.1142
12048TIP3    H157559   2.663   5.539   3.580 -1.5511 -0.9312 -2.9849
12048TIP3    H257560   2.757   5.425   3.549  1.3455  0.2553  0.7028
12049TIP3   OH257561   1.439   1.502   1.216 -0.2519 -0.0717  0.1563
12049TIP3    H157562   1.380   1.428   1.203 -0.9724  0.3620  0.8486
12049TIP3    H257563   1.482   1.514   1.132 -1.5068 -0.0976 -0.5087
12050TIP3   OH257564   6.123   5.656  12.161  0.1158  0.7494 -0.2150
12050TIP3    H157565   6.201   5.704  12.133  0.0155  0.2299 -1.4495
12050TIP3    H257566   6.141   5.565  12.137 -0.5356  0.5004  0.2333
12051TIP3   OH257567   2.105   5.954   1.893  0.0461 -0.1864 -0.6621
12051TIP3    H157568   2.019   5.968   1.931  0.1389 -2.5474  0.6304
12051TIP3    H257569   2.120   5.859   1.902  1.9496 -0.1564 -2.6561
12052TIP3   OH257570   3.334   2.136  11.640  0.1103 -0.4193 -0.1633
12052TIP3    H157571   3.304   2.227  11.642 -0.1233 -0.5190  1.3543
12052TIP3    H257572   3.412   2.138  11.585  1.7709  1.2313  2.1046
12053TIP3   OH257573   4.954   0.256   4.717 -0.7921  0.4328  0.1199
12053TIP3    H157574   4.943   0.325   4.652  0.4030  0.7048  0.1710
12053TIP3    H257575   5.045   0.227   4.706 -1.0261 -0.5599  0.6571
12054TIP3   OH257576   2.244   4.514  14.021 -0.6593  0.2467  0.5574
12054TIP3    H157577   2.259   4.552  14.107 -0.0785 -0.0167  0.5769
12054TIP3    H257578   2.187   4.439  14.037 -0.7138  0.3159  0.6851
12055TIP3   OH257579   2.796   1.986  12.567  0.5528 -0.5031 -0.0496
12055TIP3    H157580   2.821   2.017  12.479 -1.0984  1.1036 -0.0219
12055TIP3    H257581   2.750   1.904  12.551  0.7064 -0.4814 -0.6442
12056TIP3   OH257582   4.238   4.601  11.750  0.0726 -0.3576 -0.1272
12056TIP3    H157583   4.322   4.583  11.710 -0.1705  0.4137 -1.0134
12056TIP3    H257584   4.184   4.635  11.679 -1.0364 -0.9762  0.3904
12057TIP3   OH257585   3.105   1.389  16.198  0.5203  0.4496 -0.0516
12057TIP3    H157586   3.012   1.370  16.186  0.4918  0.5241  0.0477
12057TIP3    H257587   3.107   1.458  16.265  0.5397  1.9628 -1.5378
12058TIP3   OH257588   3.894   3.700  12.041  0.5021 -0.3364  0.1644
12058TIP3    H157589   3.894   3.794  12.057 -1.1327 -0.1654 -0.6457
12058TIP3    H257590   3.869   3.661  12.125 -1.4797  0.1457 -0.1500
12059TIP3   OH257591   4.472   1.418   0.023  0.4381  0.0910  0.5009
12059TIP3    H157592   4.562   1.430  -0.008  0.0505 -0.2045 -0.8267
12059TIP3    H257593   4.433   1.505   0.016  0.1842 -0.0840 -0.4760
12060TIP3   OH257594   6.091   4.446   5.430 -0.4829  0.5607 -0.2283
12060TIP3    H157595   6.130   4.359   5.427 -1.3504  0.1576  0.0397
12060TIP3    H257596   6.154   4.498   5.480 -0.5614 -0.2358  0.7316
12061TIP3   OH257597   0.166   2.194  11.330  0.4972 -0.2160  0.9359
12061TIP3    H157598   0.200   2.249  11.401 -0.2600  0.6414  0.6623
12061TIP3    H257599   0.091   2.243  11.297  1.9024  0.3761 -1.6878
12062TIP3   OH257600   1.721   2.572  14.599 -0.5724  0.1785  0.3193
12062TIP3    H157601   1.703   2.493  14.549  0.3085 -0.4245  0.9243
12062TIP3    H257602   1.710   2.547  14.690 -0.6831  0.8645  0.5019
12063TIP3   OH257603   3.887   0.030  10.925 -0.0794  0.5791 -0.1679
12063TIP3    H157604   3.816   0.090  10.949 -0.9243 -0.0900 -0.9265
12063TIP3    H257605   3.842  -0.046  10.888  1.0605  0.4730 -1.3937
12064TIP3   OH257606   2.229   6.609  16.841  0.0685 -0.0222  0.5158
12064TIP3    H157607   2.298   6.644  16.785  0.6348  1.3675  1.9860
12064TIP3    H257608   2.276   6.573  16.917 -0.7255 -0.9241  0.6046
12065TIP3   OH257609   0.277   1.936  16.202  0.8328 -0.1274  0.3265
12065TIP3    H157610   0.317   1.933  16.289  0.8322 -1.1897  0.3036
12065TIP3    H257611   0.327   1.873  16.150 -0.1102 -0.6188 -0.0237
12066TIP3   OH257612   0.593   1.445   3.335  0.0801  0.1031  0.6975
12066TIP3    H157613   0.568   1.354   3.353  1.5942 -0.6630 -0.8191
12066TIP3    H257614   0.679   1.454   3.375  0.5507  0.4239 -0.3626
12067TIP3   OH257615   3.253   2.293   2.011 -0.3525 -0.3538  0.2794
12067TIP3    H157616   3.311   2.342   2.070 -1.1360  0.1892  0.6279
12067TIP3    H257617   3.293   2.206   2.004  1.3591  0.4822 -0.7789
12068TIP3   OH257618   6.293   2.672   0.961 -0.0435  0.3361  0.3646
12068TIP3    H157619   6.201   2.680   0.986 -0.3788 -0.0543 -0.7038
12068TIP3    H257620   6.342   2.693   1.041 -1.0539 -2.7199  1.9474
12069TIP3   OH257621   2.483   3.102   1.632  0.0837  0.0599 -0.3338
12069TIP3    H157622   2.449   3.180   1.675 -1.1919 -0.4167 -0.4262
12069TIP3    H257623   2.568   3.128   1.598 -0.8683  1.8173 -1.5097
12070TIP3   OH257624   0.327   1.353  10.648 -0.0795  0.1338 -0.0514
12070TIP3    H157625   0.295   1.264  10.635  1.2848 -0.6684  1.6987
12070TIP3    H257626   0.279   1.405  10.584 -1.3627 -1.7452 -0.7032
12071TIP3   OH257627   6.666   2.030  11.976 -0.3224  0.5861 -0.1313
12071TIP3    H157628   6.638   2.043  12.067 -2.2049  0.0491 -0.5791
12071TIP3    H257629   6.758   2.054  11.975  0.7384 -2.6488  2.6708
12072TIP3   OH257630   1.681   6.755  13.654  0.6667  0.5010  0.2243
12072TIP3    H157631   1.612   6.808  13.614 -0.6051 -0.3742  1.1657
12072TIP3    H257632   1.651   6.665  13.642  3.0814 -0.1448 -1.9078
12073TIP3   OH257633   2.945   1.655   4.363  0.0320 -0.1084 -0.1938
12073TIP3    H157634   2.957   1.568   4.401 -1.6151 -0.2818  0.0389
12073TIP3    H257635   3.017   1.707   4.399  0.7810 -1.2540  0.0230
12074TIP3   OH257636   0.912   3.693  14.927  0.2307  0.5132  0.8156
12074TIP3    H157637   0.940   3.652  14.845 -1.4222  0.9890 -0.0168
12074TIP3    H257638   0.989   3.686  14.984  0.0196 -4.0401  0.9081
12075TIP3   OH257639   5.942   1.182  11.084  0.4123  0.2954  0.4074
12075TIP3    H157640   5.850   1.182  11.057  0.5841  1.7340 -0.2730
12075TIP3    H257641   5.978   1.263  11.047  1.3694  0.9966  2.6812
12076TIP3   OH257642   1.894   5.374  14.867  0.9087  0.2717  0.0130
12076TIP3    H157643   1.907   5.418  14.783  1.2550  0.2339  0.0430
12076TIP3    H257644   1.800   5.360  14.873  1.1004 -2.8396 -1.9682
12077TIP3   OH257645   1.761   6.375   4.392  0.5233 -0.2777 -0.1739
12077TIP3    H157646   1.813   6.327   4.328  1.0493  0.5092 -0.3526
12077TIP3    H257647   1.758   6.317   4.469  1.6427 -0.3538 -0.1665
12078TIP3   OH257648   0.789   1.985  16.390  0.8368 -0.8195 -0.0845
12078TIP3    H157649   0.864   2.043  16.379 -0.2537  1.3712  2.6534
12078TIP3    H257650   0.766   1.992  16.483 -2.3404 -1.8915 -0.6398
12079TIP3   OH257651   2.395   4.714  10.764 -0.1561  0.5279 -0.1549
12079TIP3    H157652   2.310   4.675  10.743 -0.9140  1.3338  1.2313
12079TIP3    H257653   2.452   4.640  10.781 -1.1912 -0.0289  1.0636
12080TIP3   OH257654   0.850   0.944  16.052 -1.1114  0.0692  0.5311
12080TIP3    H157655   0.883   0.891  15.979  2.1893  0.4275  1.5823
12080TIP3    H257656   0.850   0.884  16.127  0.3019  0.8668  1.2120
12081TIP3   OH257657   5.604   3.573   5.509 -0.0742 -0.2582 -0.3510
12081TIP3    H157658   5.511   3.562   5.528  0.0825 -2.6880 -0.7473
12081TIP3    H257659   5.606   3.622   5.427 -0.9182  1.7098  0.7381
12082TIP3   OH257660   3.350   1.856   6.356 -0.0186 -0.5455 -0.3612
12082TIP3    H157661   3.258   1.857   6.327  0.3092  0.8706 -1.4276
12082TIP3    H257662   3.370   1.763   6.366 -1.5882 -0.8812 -0.0399
12083TIP3   OH257663   4.447   4.698  12.672  0.1818  0.3939  0.3630
12083TIP3    H157664   4.368   4.733  12.631  0.6655  0.9128 -0.1346
12083TIP3    H257665   4.416   4.660  12.755 -0.6819  0.0320 -0.1144
12084TIP3   OH257666   2.883   3.168  12.822  0.1463  0.0240  0.2520
12084TIP3    H157667   2.797   3.210  12.821 -0.7635 -1.7550 -0.3852
12084TIP3    H257668   2.944   3.238  12.798 -1.1032  1.3331  0.7793
12085TIP3   OH257669   0.132   1.197  11.450  0.3778 -0.0136 -0.3174
12085TIP3    H157670   0.175   1.142  11.516  0.7369 -0.0467 -0.5772
12085TIP3    H257671   0.133   1.144  11.370  0.6686  0.3453 -0.5524
12086TIP3   OH257672   1.091   3.880   3.358 -0.2488  0.2590 -0.1273
12086TIP3    H157673   1.048   3.804   3.319  0.1072  0.4387 -0.8862
12086TIP3    H257674   1.045   3.893   3.442 -0.7689 -0.3640 -0.3057
12087TIP3   OH257675   0.164   0.818   2.105 -0.2113  0.4853  0.0967
12087TIP3    H157676   0.077   0.806   2.067  0.5530 -0.1699 -1.5312
12087TIP3    H257677   0.223   0.826   2.030  1.4233 -1.1063  1.1259
12088TIP3   OH257678   0.421   0.238  13.348  0.0966 -0.2749  0.4680
12088TIP3    H157679   0.386   0.327  13.348 -3.3710 -1.4347  1.7751
12088TIP3    H257680   0.382   0.197  13.271 -0.1751 -1.2298  1.0965
12089TIP3   OH257681   1.199   4.365  15.513 -0.2458 -0.5678  0.2325
12089TIP3    H157682   1.256   4.422  15.565 -0.0650 -1.0721  0.5957
12089TIP3    H257683   1.260   4.316  15.458 -0.4374 -0.0015 -0.5073
12090TIP3   OH257684   6.084   1.104  10.776 -0.4486  0.5808  0.8456
12090TIP3    H157685   6.035   1.022  10.786  1.1281 -0.4175  0.5935
12090TIP3    H257686   6.108   1.106  10.683  0.5303  0.7334  1.0952
12091TIP3   OH257687   2.290   5.766   6.371  0.3470  0.2725  0.1402
12091TIP3    H157688   2.322   5.699   6.311 -0.9663  0.9576 -1.4108
12091TIP3    H257689   2.199   5.740   6.389  0.9781 -0.4523  2.6818
12092TIP3   OH257690   3.050   5.751   4.640  0.2175  0.2665  0.5358
12092TIP3    H157691   3.036   5.826   4.699 -1.9827 -0.6098  1.1994
12092TIP3    H257692   3.108   5.693   4.690  1.5124  1.2264  0.2247
12093TIP3   OH257693   1.957   0.070   4.863 -0.0435 -0.5079  0.0897
12093TIP3    H157694   2.034   0.031   4.822  0.8949  0.6759  0.6501
12093TIP3    H257695   1.991   0.149   4.906 -1.7733  0.7368 -0.7297
12094TIP3   OH257696   0.525   0.742   2.664  0.2298 -0.5729 -0.1761
12094TIP3    H157697   0.536   0.711   2.575 -0.5840 -2.3115  0.2924
12094TIP3    H257698   0.520   0.663   2.717 -2.4860  0.2815  1.0356
12095TIP3   OH257699   1.908   3.347  13.845 -0.7335  0.1798 -0.0764
12095TIP3    H157700   1.848   3.390  13.783  0.6478  0.8444 -1.0055
12095TIP3    H257701   1.923   3.413  13.913 -1.0701 -0.0044  0.1819
12096TIP3   OH257702   0.425   3.009  14.951  0.2710 -0.1678  0.2517
12096TIP3    H157703   0.378   3.083  14.989  1.7447  0.8518  0.1941
12096TIP3    H257704   0.483   2.980  15.022  0.5520 -0.4842 -0.1064
12097TIP3   OH257705   2.319   2.163   1.279  0.0828  0.7432 -0.2694
12097TIP3    H157706   2.307   2.250   1.317 -0.1348  0.5908  0.0109
12097TIP3    H257707   2.240   2.148   1.228  0.0621  0.6578 -0.2129
12098TIP3   OH257708   4.989   3.644   1.006 -0.4904  0.3459 -1.0885
12098TIP3    H157709   4.913   3.592   0.979 -0.7478 -0.3031  0.7461
12098TIP3    H257710   5.064   3.588   0.988 -0.7027 -0.3233  0.0005
12099TIP3   OH257711   5.563   4.268  13.800  0.6601  0.8119  0.2342
12099TIP3    H157712   5.568   4.358  13.834  0.2069  1.1146 -0.4810
12099TIP3    H257713   5.650   4.231  13.817  0.3122  0.7622  2.2153
12100TIP3   OH257714   1.141   4.074   3.136  0.2262 -0.3108  0.0789
12100TIP3    H157715   1.216   4.015   3.127  1.1417  0.9853 -1.1045
12100TIP3    H257716   1.126   4.080   3.230  1.0522 -1.2570  0.2896
12101TIP3   OH257717   0.392   2.638  12.205  0.2138  0.5215  0.4451
12101TIP3    H157718   0.438   2.554  12.207 -0.0402  0.3960  0.9421
12101TIP3    H257719   0.306   2.620  12.243 -1.0709  0.2665 -2.3293
12102TIP3   OH257720   6.651   5.918  11.494 -0.3786 -0.4807 -0.2820
12102TIP3    H157721   6.741   5.926  11.526  0.2659  0.3298 -2.1535
12102TIP3    H257722   6.654   5.845  11.432 -1.4691 -1.6563  0.9889
12103TIP3   OH257723   2.254   2.315  14.503  0.3530  0.1481 -0.1815
12103TIP3    H157724   2.253   2.226  14.468  1.0655  0.3369 -0.7156
12103TIP3    H257725   2.281   2.304  14.594  0.7077 -0.1666 -0.3193
12104TIP3   OH257726   0.070   3.823  16.759  0.3905  0.3934 -0.3970
12104TIP3    H157727   0.095   3.914  16.775  0.2309  0.5295 -0.8928
12104TIP3    H257728   0.121   3.798  16.681  0.1114  0.1975 -0.5189
12105TIP3   OH257729   2.801   0.193  11.837 -0.4703  0.0649 -0.5713
12105TIP3    H157730   2.855   0.234  11.904 -0.5588  0.3589 -0.6819
12105TIP3    H257731   2.864   0.153  11.777 -0.3927 -0.3227 -0.2397
12106TIP3   OH257732   5.452   6.467   1.818  0.1728  0.0439  0.1619
12106TIP3    H157733   5.445   6.439   1.727  1.8964 -1.5690  0.4568
12106TIP3    H257734   5.413   6.555   1.820 -2.0896 -0.8313 -1.6014
12107TIP3   OH257735   2.047   6.170  16.825  0.2425 -0.4434  0.1838
12107TIP3    H157736   2.016   6.215  16.904  0.5597 -0.0555  0.0877
12107TIP3    H257737   2.050   6.077  16.850  2.5217 -0.1266  1.3848
12108TIP3   OH257738   2.270   0.483   0.209 -0.4163  0.6722 -0.5366
12108TIP3    H157739   2.353   0.437   0.208 -0.2136  1.0340 -0.5012
12108TIP3    H257740   2.293   0.576   0.211 -0.7502  0.8094  2.6501
12109TIP3   OH257741   0.201   0.703  11.724 -0.6368 -0.2546  0.2505
12109TIP3    H157742   0.220   0.765  11.794  0.0178 -0.0428 -0.1146
12109TIP3    H257743   0.277   0.646  11.721 -0.8121 -0.4725 -0.0711
12110TIP3   OH257744   2.351   5.027   0.224 -0.4736  0.0556 -0.3988
12110TIP3    H157745   2.446   5.036   0.233 -0.1629 -0.5745 -2.4617
12110TIP3    H257746   2.320   5.005   0.311  1.0178  2.2139  0.7632
12111TIP3   OH257747   0.408   0.955   2.561 -0.3866 -0.5901  0.3537
12111TIP3    H157748   0.455   0.889   2.612  1.7533  1.7104  1.5487
12111TIP3    H257749   0.346   0.994   2.623 -0.0006  0.0934  0.3088
12112TIP3   OH257750   6.367   5.330   3.773 -0.0270 -0.4292 -0.3992
12112TIP3    H157751   6.393   5.422   3.767  1.4529 -0.7095  0.9349
12112TIP3    H257752   6.286   5.331   3.824  0.1363  0.1109 -0.1398
12113TIP3   OH257753   2.421   1.057  14.055  0.3069  0.6581  0.5078
12113TIP3    H157754   2.468   1.041  14.137 -1.0189 -0.4424  1.0803
12113TIP3    H257755   2.405   0.970  14.019 -1.8858  0.9526  0.6707
12114TIP3   OH257756   5.279   2.082   4.186 -0.1182 -0.0216  0.4030
12114TIP3    H157757   5.354   2.079   4.246 -0.7912 -1.1358  1.2062
12114TIP3    H257758   5.318   2.107   4.102  0.8905  1.2235  1.1995
12115TIP3   OH257759   3.131   1.714  13.160 -0.4517  0.3323  0.1502
12115TIP3    H157760   3.157   1.638  13.212 -1.1366  1.1882  1.8450
12115TIP3    H257761   3.092   1.677  13.081 -1.5272 -1.1311  1.2891
12116TIP3   OH257762   5.987   1.989   0.739  0.6316 -0.2525  0.4731
12116TIP3    H157763   5.977   2.000   0.834 -0.6018 -1.4881  0.5205
12116TIP3    H257764   5.941   2.064   0.702  1.2074  0.2953  0.8300
12117TIP3   OH257765   4.408   0.912   3.941 -0.2506  0.3913  0.5813
12117TIP3    H157766   4.444   0.827   3.967  0.9534  0.3186 -1.1568
12117TIP3    H257767   4.382   0.900   3.850  1.3100  2.2474 -0.1743
12118TIP3   OH257768   6.486   3.174  13.105 -0.4416 -0.1953 -0.4230
12118TIP3    H157769   6.576   3.200  13.123 -0.6322 -0.4224  1.0229
12118TIP3    H257770   6.475   3.092  13.152 -1.5016  0.0162 -0.2807
12119TIP3   OH257771   5.949   4.062  16.756 -0.1516  0.3505  0.2670
12119TIP3    H157772   5.890   4.066  16.832  1.7716  1.6048  1.8083
12119TIP3    H257773   5.932   4.144  16.709  1.6794  1.7816  1.8896
12120TIP3   OH257774   6.573   0.084  16.105 -0.2130  0.2742 -0.3680
12120TIP3    H157775   6.605   0.127  16.185  1.2150 -0.3048 -0.5850
12120TIP3    H257776   6.479   0.098  16.106 -0.1429  0.8535  1.0815
12121TIP3   OH257777   0.386   3.106  16.672  0.1813 -0.4220  0.4804
12121TIP3    H157778   0.338   3.071  16.597 -1.4097 -1.5289  1.9588
12121TIP3    H257779   0.326   3.099  16.745  2.4007 -1.3678  2.3403
12122TIP3   OH257780   0.199   4.549  16.870  0.2587  0.5517  0.1441
12122TIP3    H157781   0.281   4.598  16.877  0.0969  0.5787  2.6295
12122TIP3    H257782   0.132   4.617  16.857  0.5792  0.5154 -2.1113
12123TIP3   OH257783   4.050   1.257  11.228 -0.1073 -0.3683 -0.1494
12123TIP3    H157784   3.969   1.275  11.276 -0.1292 -1.2010  0.1437
12123TIP3    H257785   4.118   1.258  11.295  0.0936  0.1256 -0.3644
12124TIP3   OH257786   2.219   3.570   3.726 -0.0586  0.1300  0.6269
12124TIP3    H157787   2.239   3.492   3.779 -1.6566 -0.1534  0.8707
12124TIP3    H257788   2.289   3.572   3.660 -0.1834 -1.7517  0.3590
12125TIP3   OH257789   5.562   2.655   3.008  0.3237 -0.1784 -0.5636
12125TIP3    H157790   5.653   2.660   2.979  0.4791  2.0131  0.0851
12125TIP3    H257791   5.539   2.746   3.028 -1.5402 -0.8774  0.7038
12126TIP3   OH257792   5.839   4.630  11.107  0.4345  0.3162  0.5640
12126TIP3    H157793   5.760   4.678  11.084  1.5436  1.2695 -1.6094
12126TIP3    H257794   5.868   4.669  11.189 -1.1870  0.1136  1.2592
12127TIP3   OH257795   5.097   0.948   2.301 -0.3626  0.9022  0.5146
12127TIP3    H157796   5.159   0.882   2.333 -0.8485 -0.2410 -0.8064
12127TIP3    H257797   5.146   0.995   2.233 -0.8169  0.2020 -0.3135
12128TIP3   OH257798   3.218   3.580  15.863 -0.2097  0.1211 -0.4154
12128TIP3    H157799   3.133   3.624  15.862  0.8401  2.3717 -2.3285
12128TIP3    H257800   3.267   3.621  15.791  2.4264 -1.2270  0.4673
12129TIP3   OH257801   3.851   2.806   1.752  0.3176  0.4266 -0.1688
12129TIP3    H157802   3.927   2.856   1.720 -0.9448  2.6419  0.0584
12129TIP3    H257803   3.803   2.782   1.673  1.2563 -1.0842 -0.3212
12130TIP3   OH257804   4.858   3.394   3.654  0.0494 -0.0570  0.2308
12130TIP3    H157805   4.812   3.352   3.727 -0.9321  0.1638 -0.2310
12130TIP3    H257806   4.942   3.421   3.690 -0.1486 -0.5578  1.0903
12131TIP3   OH257807   0.344   0.166   3.354  0.1538  0.1167 -0.4331
12131TIP3    H157808   0.284   0.238   3.333  1.0977  0.1706 -3.4280
12131TIP3    H257809   0.293   0.087   3.338 -0.0236  0.1240  0.0716
12132TIP3   OH257810   2.840   3.287   2.820 -0.0855  0.2703 -0.0643
12132TIP3    H157811   2.908   3.352   2.838  0.9489 -0.1920 -2.0887
12132TIP3    H257812   2.759   3.338   2.813  0.0724  0.8767  1.8924
12133TIP3   OH257813   4.900   1.369  13.459  0.5244  0.2171  0.5156
12133TIP3    H157814   4.915   1.284  13.501 -1.2435 -0.2612  0.2929
12133TIP3    H257815   4.809   1.365  13.430  0.2295  2.3856  0.9496
12134TIP3   OH257816   0.446   6.701   5.628 -0.2209 -0.3181 -0.2372
12134TIP3    H157817   0.356   6.668   5.628 -1.0895  1.5600 -3.2461
12134TIP3    H257818   0.437   6.792   5.659  1.0005 -0.7204  1.3746
12135TIP3   OH257819   4.872   3.003  13.804 -0.2886  0.3006  0.2907
12135TIP3    H157820   4.844   3.095  13.804  0.7303  0.6322  1.1026
12135TIP3    H257821   4.961   3.005  13.840 -0.1096 -0.9704 -0.0240
12136TIP3   OH257822   4.823   2.604   1.307 -0.2833  0.2292 -0.6633
12136TIP3    H157823   4.845   2.643   1.223 -0.1467  1.9284  0.1258
12136TIP3    H257824   4.899   2.621   1.363  0.0646 -1.7674 -0.4375
12137TIP3   OH257825   4.797   0.216   1.941 -0.0107 -0.7317 -0.0812
12137TIP3    H157826   4.891   0.231   1.945 -0.3461  1.3511  1.6328
12137TIP3    H257827   4.784   0.131   1.983  0.9652 -0.1211  1.5412
12138TIP3   OH257828   2.378   4.865  14.409 -0.2958 -0.1479 -0.2592
12138TIP3    H157829   2.328   4.800  14.459  0.6225  1.0782  2.4757
12138TIP3    H257830   2.463   4.825  14.395  0.3323  0.4086  1.5856
12139TIP3   OH257831   6.763   5.751   2.169 -0.1089  0.2859  0.7090
12139TIP3    H157832   6.756   5.807   2.246 -0.4392 -0.1083  0.9703
12139TIP3    H257833   6.686   5.774   2.116 -0.0577  0.3236  0.6515
12140TIP3   OH257834   3.263   2.218   3.362  0.5284  0.0689 -0.3230
12140TIP3    H157835   3.221   2.295   3.402  0.2802  0.7711 -1.8619
12140TIP3    H257836   3.355   2.226   3.385  0.0635 -0.8964  2.1691
12141TIP3   OH257837   4.461   4.824  11.639  0.2649  0.1720  0.0192
12141TIP3    H157838   4.521   4.791  11.706  0.8307  1.7194  0.3345
12141TIP3    H257839   4.381   4.848  11.688 -0.4358 -1.3821 -0.3192
12142TIP3   OH257840   1.435   6.782  10.777 -0.0971  0.1957 -0.2126
12142TIP3    H157841   1.341   6.770  10.794 -0.1000 -1.0685 -0.9437
12142TIP3    H257842   1.439   6.852  10.712 -0.5282  0.3825 -0.0397
12143TIP3   OH257843   3.194   2.564   3.743 -0.3140 -0.1429 -0.2216
12143TIP3    H157844   3.279   2.579   3.702 -0.1761  0.2233  0.1954
12143TIP3    H257845   3.154   2.652   3.748 -0.3952 -0.2077  0.2860
12144TIP3   OH257846   2.614   5.132   3.950  0.4721  0.4156  0.3254
12144TIP3    H157847   2.539   5.077   3.931 -0.1286  1.5631 -0.8255
12144TIP3    H257848   2.677   5.074   3.993 -1.2419 -0.4610  1.7885
12145TIP3   OH257849   0.591   2.197   4.482  0.6393  0.1713  0.7689
12145TIP3    H157850   0.669   2.243   4.451  0.5242 -0.7816 -1.1105
12145TIP3    H257851   0.626   2.121   4.529  0.8213  0.5575  1.2722
12146TIP3   OH257852   5.781   1.489  16.564 -0.1771 -0.0546 -0.0705
12146TIP3    H157853   5.832   1.491  16.483 -0.6646  1.2644 -0.3738
12146TIP3    H257854   5.724   1.566  16.558 -1.5111 -0.9493  0.6999
12147TIP3   OH257855   4.043   0.316  16.031 -0.1341  0.1020  0.7645
12147TIP3    H157856   4.079   0.314  15.943 -0.0037 -0.9031  0.8378
12147TIP3    H257857   4.047   0.409  16.056  0.6453  0.2707  0.0580
12148TIP3   OH257858   6.640   4.878   4.224 -0.3032  0.4035  0.1452
12148TIP3    H157859   6.717   4.821   4.224 -0.6250 -0.0435 -0.3048
12148TIP3    H257860   6.661   4.947   4.288  0.2213 -0.0392  0.4618
12149TIP3   OH257861   5.189   4.989  11.447 -0.0054  0.3525  0.3482
12149TIP3    H157862   5.218   5.072  11.409 -2.2317  1.5553  1.0802
12149TIP3    H257863   5.182   4.929  11.373 -2.0904  1.9995 -0.8972
12150TIP3   OH257864   6.123   6.559   6.466 -0.1110 -0.2056  0.3681
12150TIP3    H157865   6.050   6.602   6.510 -1.4138 -4.3775  2.8712
12150TIP3    H257866   6.128   6.472   6.507  2.9910 -2.0504 -3.2807
12151TIP3   OH257867   1.754   6.312  16.900  0.6856 -0.4147  0.1371
12151TIP3    H157868   1.760   6.407  16.896  2.2677 -0.5058 -0.9539
12151TIP3    H257869   1.807   6.288  16.976  1.4632 -0.4728 -0.4106
12152TIP3   OH257870   2.148   4.268  16.689  0.4366 -0.2891  0.1018
12152TIP3    H157871   2.124   4.356  16.661  1.8014  0.2609  0.5542
12152TIP3    H257872   2.092   4.210  16.637 -0.2466  0.8275 -0.4492
12153TIP3   OH257873   0.971   5.092   4.253  0.2602 -0.4848 -0.1563
12153TIP3    H157874   0.881   5.111   4.279  0.5801  1.2314 -0.2283
12153TIP3    H257875   0.966   5.075   4.159  0.0976  0.3178 -0.3025
12154TIP3   OH257876   1.277   3.764   0.993 -0.5436 -0.1018 -0.1954
12154TIP3    H157877   1.191   3.745   0.955  0.1088 -0.2191 -1.6925
12154TIP3    H257878   1.280   3.860   1.000 -0.4397 -0.0280 -1.0868
12155TIP3   OH257879   2.424   2.874  13.300  0.2846 -0.1330 -0.3021
12155TIP3    H157880   2.360   2.897  13.233 -1.2157 -2.8292  0.0959
12155TIP3    H257881   2.509   2.886  13.257 -0.5314  0.9430 -1.7132
12156TIP3   OH257882   2.542   1.909   6.174 -0.8680  0.0955 -0.4335
12156TIP3    H157883   2.587   1.977   6.224  1.1118 -1.0926 -0.5111
12156TIP3    H257884   2.525   1.840   6.237 -1.2961 -0.0678 -0.7237
12157TIP3   OH257885   4.024   4.105   0.726 -0.4942  0.7966  0.1215
12157TIP3    H157886   3.994   4.168   0.660  0.3405  0.9475 -0.1172
12157TIP3    H257887   4.103   4.066   0.688 -0.6687  0.0380  0.5309
12158TIP3   OH257888   5.489   4.873   4.826  0.0467 -0.2151 -0.6171
12158TIP3    H157889   5.498   4.920   4.909 -2.4386  1.3584 -1.1139
12158TIP3    H257890   5.560   4.809   4.827  1.5906  1.3428  1.6127
12159TIP3   OH257891   4.968   5.988   3.893 -0.1675  0.8827 -0.5745
12159TIP3    H157892   4.985   5.900   3.859 -0.5637  0.7783 -0.5073
12159TIP3    H257893   4.892   6.018   3.845 -0.1325  1.1260 -0.4805
12160TIP3   OH257894   3.465   2.648  13.911 -0.1391 -0.0642  0.0040
12160TIP3    H157895   3.561   2.647  13.909 -0.1569 -0.7826 -0.7163
12160TIP3    H257896   3.442   2.608  13.995  0.1813 -1.6364 -0.6248
12161TIP3   OH257897   0.541   1.010  11.902  0.8128 -0.0935 -0.2031
12161TIP3    H157898   0.624   1.045  11.869  0.4270  0.5966 -0.4761
12161TIP3    H257899   0.563   0.923  11.935  1.4121 -0.4296 -1.4148
12162TIP3   OH257900   3.708   3.520   4.939 -0.1318 -0.4840 -0.4222
12162TIP3    H157901   3.773   3.590   4.933 -0.4664 -0.2327 -1.1935
12162TIP3    H257902   3.707   3.481   4.852 -0.4792 -0.9785 -0.2008
12163TIP3   OH257903   1.502   6.249  10.561 -0.5576 -0.4489  0.1442
12163TIP3    H157904   1.480   6.241  10.654  0.0434 -0.3014  0.3007
12163TIP3    H257905   1.538   6.163  10.537  0.7053 -0.0169  0.4356
12164TIP3   OH257906   5.310   3.058  13.525 -0.1055  0.1035 -0.0846
12164TIP3    H157907   5.395   3.049  13.567 -1.0373 -0.4713  1.7587
12164TIP3    H257908   5.280   3.146  13.551 -0.7435 -0.3055  0.5979
12165TIP3   OH257909   2.715   0.534   0.588 -0.0977 -0.3691 -0.3011
12165TIP3    H157910   2.716   0.493   0.502 -0.5784  0.1083 -0.5352
12165TIP3    H257911   2.631   0.579   0.593 -0.5262 -1.2604  0.8342
12166TIP3   OH257912   2.522   0.047   1.253  0.7418 -0.2917  0.4361
12166TIP3    H157913   2.479   0.132   1.241  0.2598 -0.3803  1.3886
12166TIP3    H257914   2.573   0.058   1.334 -1.5452 -1.7106  2.2079
12167TIP3   OH257915   3.358   1.103   1.018  0.1744 -0.0050  0.3259
12167TIP3    H157916   3.433   1.097   0.958 -0.0578 -1.2409  0.1343
12167TIP3    H257917   3.357   1.194   1.046  2.1678 -0.0819  0.8492
12168TIP3   OH257918   5.531   6.491  17.053 -0.7412  0.0770  0.0845
12168TIP3    H157919   5.521   6.578  17.093  0.0406  0.2766 -0.1469
12168TIP3    H257920   5.481   6.433  17.111 -1.1769  0.6567  0.3028
12169TIP3   OH257921   1.290   6.792  15.517 -0.1643  0.4000  0.3808
12169TIP3    H157922   1.351   6.814  15.447 -0.9157 -2.4440 -1.2802
12169TIP3    H257923   1.339   6.811  15.598  2.5895 -0.8527 -0.8763
12170TIP3   OH257924   4.192   6.681  14.902  0.4055 -0.1009  0.6685
12170TIP3    H157925   4.199   6.747  14.970 -1.3287 -0.5523  1.3376
12170TIP3    H257926   4.123   6.713  14.844  0.6939 -0.5420  0.0678
12171TIP3   OH257927   4.220   2.777  13.642  0.6697  0.4065 -0.6125
12171TIP3    H157928   4.126   2.761  13.653  0.6439  0.4260 -0.8124
12171TIP3    H257929   4.247   2.719  13.571  0.7199  0.7190 -0.8515
12172TIP3   OH257930   2.577   5.999  13.119 -0.3583 -0.3109 -0.0934
12172TIP3    H157931   2.497   6.048  13.100 -1.5993 -2.0141  0.4205
12172TIP3    H257932   2.547   5.926  13.174  1.6458 -0.7120  0.5499
12173TIP3   OH257933   5.626   5.640   5.064 -0.5365 -0.2936 -0.4979
12173TIP3    H157934   5.636   5.680   5.151 -0.3053  0.8919 -1.0471
12173TIP3    H257935   5.685   5.565   5.065  1.6291  1.3071 -0.5561
12174TIP3   OH257936   5.297   0.694   1.050  0.0301  0.3105  0.0385
12174TIP3    H157937   5.322   0.659   0.965  0.2657  0.2410  0.1354
12174TIP3    H257938   5.309   0.789   1.041 -3.1913  0.7396 -1.1135
12175TIP3   OH257939   2.803   6.136   2.608 -0.6847  0.1430 -0.6179
12175TIP3    H157940   2.802   6.041   2.614 -1.1041  0.0969 -1.3053
12175TIP3    H257941   2.718   6.163   2.643  0.0309  0.3787  1.0328
12176TIP3   OH257942   2.529   4.696   1.139  0.5561 -0.6441  0.6025
12176TIP3    H157943   2.602   4.707   1.200  0.1208 -0.2288  1.0593
12176TIP3    H257944   2.464   4.645   1.189  0.8095 -1.6071 -0.0350
12177TIP3   OH257945   5.963   1.862  13.213 -0.0297 -0.2442 -0.8340
12177TIP3    H157946   6.051   1.890  13.236 -0.2767  0.5764 -0.8773
12177TIP3    H257947   5.957   1.873  13.118 -0.2841  0.0081 -0.7905
12178TIP3   OH257948   4.195   6.086   5.024  0.1933  0.4717  0.3537
12178TIP3    H157949   4.215   6.172   4.987  0.5209  0.1551 -0.2265
12178TIP3    H257950   4.108   6.065   4.991  1.1831 -0.5971 -1.7994
12179TIP3   OH257951   0.687   5.998   2.446  0.3280 -0.2121  0.3333
12179TIP3    H157952   0.621   5.929   2.448 -0.2122  0.2860  2.1305
12179TIP3    H257953   0.673   6.043   2.363  0.0588 -1.6485 -0.4212
12180TIP3   OH257954   1.047   2.861  14.540 -0.1382  0.8644  0.3660
12180TIP3    H157955   0.958   2.843  14.512  0.5280 -0.4767 -1.0713
12180TIP3    H257956   1.076   2.934  14.485  0.8192 -1.0961 -1.9233
12181TIP3   OH257957   1.223   4.940  16.687  0.3368  0.1181 -0.3613
12181TIP3    H157958   1.293   4.896  16.736 -0.4546  0.5082  1.1863
12181TIP3    H257959   1.143   4.916  16.733 -0.1936  2.6117  0.1520
12182TIP3   OH257960   0.945   3.139  14.319 -0.5140 -0.0291 -0.2732
12182TIP3    H157961   1.003   3.170  14.387  0.1898 -0.8215 -0.4917
12182TIP3    H257962   0.862   3.123  14.363  0.0114 -0.8026  0.4684
12183TIP3   OH257963   1.834   5.968   0.156 -0.6181 -0.0086  0.6603
12183TIP3    H157964   1.806   6.023   0.229  0.7608  1.6481  0.0149
12183TIP3    H257965   1.752   5.939   0.115 -1.4085  1.2412  1.2854
12184TIP3   OH257966   2.376   4.163   4.567 -0.6717  0.4305 -0.2844
12184TIP3    H157967   2.377   4.259   4.572  0.1521  0.4803 -1.1149
12184TIP3    H257968   2.285   4.139   4.584 -0.8371  1.3415  0.1955
12185TIP3   OH257969   0.971   0.347   4.076  0.1796 -0.1790 -0.2363
12185TIP3    H157970   0.986   0.382   4.164 -0.1996 -2.0927  0.6308
12185TIP3    H257971   0.930   0.419   4.028 -0.5199  0.5807  1.4379
12186TIP3   OH257972   2.772   1.637   6.340 -0.5159  0.3660 -0.4231
12186TIP3    H157973   2.725   1.588   6.407 -1.4966  0.2862 -1.1487
12186TIP3    H257974   2.861   1.603   6.343 -0.5212  0.4307  0.8953
12187TIP3   OH257975   6.420   5.603   3.740 -0.4307  0.0268 -0.1212
12187TIP3    H157976   6.420   5.594   3.644  2.0796  0.9128 -0.2891
12187TIP3    H257977   6.439   5.696   3.755  0.0641 -0.2704  1.2321
12188TIP3   OH257978   5.577   0.853  14.099  0.3122 -0.9861 -0.2309
12188TIP3    H157979   5.611   0.908  14.029  1.0698 -1.1488  0.0022
12188TIP3    H257980   5.566   0.766  14.059  0.9972 -1.1435 -0.0783
12189TIP3   OH257981   1.611   2.870  13.176  0.4603  0.0202  0.6153
12189TIP3    H157982   1.638   2.962  13.183  1.1820 -0.1703  0.4224
12189TIP3    H257983   1.533   2.864  13.231  0.2088  0.8240  0.3687
12190TIP3   OH257984   5.641   1.984   1.833 -0.7427 -0.0940  0.1979
12190TIP3    H157985   5.684   1.955   1.752 -0.1698 -0.1472  0.5134
12190TIP3    H257986   5.648   2.079   1.831 -0.3925 -0.1147  0.3630
12191TIP3   OH257987   4.933   5.736  11.420  0.8059  0.0725  0.2233
12191TIP3    H157988   4.845   5.724  11.386  1.5252  1.1344 -2.2127
12191TIP3    H257989   4.921   5.787  11.501 -0.7293  1.9551 -1.0998
12192TIP3   OH257990   1.020   5.773  14.753 -0.5705 -0.2825 -0.4607
12192TIP3    H157991   1.030   5.691  14.801  1.1654  0.5162  0.6584
12192TIP3    H257992   1.107   5.789  14.716 -1.0815  0.6804 -1.2917
12193TIP3   OH257993   6.011   3.188   3.002 -0.0904 -0.2338  0.2927
12193TIP3    H157994   6.105   3.182   3.019  0.0381  0.0835 -0.2638
12193TIP3    H257995   5.993   3.282   2.997  0.1250 -0.2515 -2.4328
12194TIP3   OH257996   2.384   1.051  11.300  0.1260  0.2753 -0.4262
12194TIP3    H157997   2.413   1.050  11.391 -1.7102  0.3080  0.2048
12194TIP3    H257998   2.426   0.975  11.261  1.5434  0.6881  0.2228
12195TIP3   OH257999   4.912   6.067  15.695 -0.1002 -0.0168 -0.1200
12195TIP3    H158000   4.949   6.127  15.759 -1.3108  1.9958 -1.2216
12195TIP3    H258001   4.848   6.119  15.646 -1.7823 -2.4071 -0.6476
12196TIP3   OH258002   0.964   1.278  16.767 -0.2948  0.1513 -0.5734
12196TIP3    H158003   0.962   1.196  16.816 -1.6687  0.3831 -0.1891
12196TIP3    H258004   1.019   1.336  16.819 -0.4679 -0.0942 -0.1078
12197TIP3   OH258005   5.827   3.452  14.220  0.2453 -0.5831 -0.5067
12197TIP3    H158006   5.789   3.432  14.134  0.7690 -0.8678 -0.6747
12197TIP3    H258007   5.786   3.534  14.246 -1.9732 -1.8372  0.2066
12198TIP3   OH258008   0.818   6.008   1.192 -0.0652  0.1897 -0.0344
12198TIP3    H158009   0.795   6.071   1.124  1.0884  0.9096  0.2050
12198TIP3    H258010   0.910   6.025   1.210  0.4596 -1.9844 -0.3711
12199TIP3   OH258011   2.221   5.605   3.965 -0.1025  0.6682  0.5564
12199TIP3    H158012   2.191   5.646   3.883 -0.6040  0.8962  0.8541
12199TIP3    H258013   2.261   5.677   4.014 -1.2672  0.8818  1.2190
12200TIP3   OH258014   1.835   0.357   3.968 -0.5677 -0.2989  0.2802
12200TIP3    H158015   1.742   0.364   3.945  0.0935 -0.0921 -2.7955
12200TIP3    H258016   1.864   0.276   3.927  1.1287  0.9379 -1.1439
12201TIP3   OH258017   0.384   0.559   3.880  0.0115 -0.7649 -0.0349
12201TIP3    H158018   0.478   0.560   3.865 -0.2264 -0.2677 -1.8391
12201TIP3    H258019   0.354   0.645   3.851 -0.9776 -0.8320  0.7369
12202TIP3   OH258020   0.451   2.163  14.443 -0.0547 -0.3924 -0.0117
12202TIP3    H158021   0.394   2.184  14.369 -0.3001  2.3297  0.8566
12202TIP3    H258022   0.539   2.163  14.406 -0.1217  1.5081 -0.2728
12203TIP3   OH258023   4.418   5.840   3.534  0.2955 -0.1875  0.0946
12203TIP3    H158024   4.461   5.854   3.449  0.9391  1.7215  0.6622
12203TIP3    H258025   4.470   5.772   3.577  1.7251  0.8443  0.0583
12204TIP3   OH258026   2.060   6.075  15.464 -0.5014 -0.2834  0.2213
12204TIP3    H158027   2.013   5.992  15.467 -1.0064  0.0175  1.0649
12204TIP3    H258028   2.141   6.058  15.512 -0.4735 -0.3656  0.1455
12205TIP3   OH258029   6.175   2.777  15.553  0.2233 -0.2171  0.9508
12205TIP3    H158030   6.081   2.783  15.537  0.5233  0.8071 -0.6942
12205TIP3    H258031   6.213   2.850  15.504  1.8482 -0.3759  1.8909
12206TIP3   OH258032   6.306   4.453  13.339 -0.0153  0.5005  0.2527
12206TIP3    H158033   6.380   4.467  13.399  1.4824 -0.8646 -1.1692
12206TIP3    H258034   6.321   4.366  13.303 -1.2849  0.9742 -1.5355
12207TIP3   OH258035   2.369   1.393   4.966  0.2123  0.1118 -0.1506
12207TIP3    H158036   2.408   1.451   5.031  1.3798 -0.9185  0.1113
12207TIP3    H258037   2.417   1.311   4.976 -0.1319 -0.3152 -1.7814
12208TIP3   OH258038   5.896   1.340  17.149 -0.3253  0.0198 -0.1493
12208TIP3    H158039   5.902   1.418  17.094 -0.4880 -1.2752 -2.0604
12208TIP3    H258040   5.838   1.366  17.221  3.3755  3.2169  2.1232
12209TIP3   OH258041   0.360   3.194  15.306 -0.2601  0.0498  0.4991
12209TIP3    H158042   0.404   3.116  15.340 -0.9262 -0.7585 -0.4452
12209TIP3    H258043   0.430   3.241  15.260  0.1266 -0.0392  0.9882
12210TIP3   OH258044   1.896   5.080  15.457 -0.5768  0.3004  0.2645
12210TIP3    H158045   1.840   5.147  15.495 -1.6145 -0.1263 -0.4543
12210TIP3    H258046   1.922   5.025  15.531 -0.6615  0.8211  0.6849
12211TIP3   OH258047   5.467   5.958  14.572 -0.2384 -0.0259  0.5959
12211TIP3    H158048   5.403   6.021  14.539  0.3111  0.4074  0.3386
12211TIP3    H258049   5.445   5.947  14.664  0.0358  1.0289  0.8017
12212TIP3   OH258050   6.326   3.030   4.150  0.1120 -0.5823 -0.4906
12212TIP3    H158051   6.285   2.976   4.218 -0.3077 -1.2013 -1.2194
12212TIP3    H258052   6.416   2.999   4.146  0.2821 -0.1976  0.1212
12213TIP3   OH258053   2.689   0.977  12.876  0.7998  1.1748 -0.0131
12213TIP3    H158054   2.675   1.071  12.884 -0.0856  1.0456  0.0347
12213TIP3    H258055   2.777   0.969  12.840  0.2558  2.0828 -1.6800
12214TIP3   OH258056   6.047   5.516   2.221  0.1173 -0.1313 -0.5289
12214TIP3    H158057   6.022   5.433   2.260 -1.7948  1.0384  0.9086
12214TIP3    H258058   5.989   5.526   2.145  1.3762 -0.7606 -1.6048
12215TIP3   OH258059   3.418   0.784   1.099 -0.2353  0.2461 -0.7163
12215TIP3    H158060   3.419   0.703   1.048 -0.4709 -0.8559  0.9624
12215TIP3    H258061   3.457   0.850   1.040  0.0563 -1.0861 -2.0726
12216TIP3   OH258062   5.950   6.424   2.646  0.5702  0.1665 -0.1193
12216TIP3    H158063   5.921   6.440   2.556 -1.2075 -0.3211  0.3281
12216TIP3    H258064   5.982   6.509   2.676  1.2708  0.3163 -1.2233
12217TIP3   OH258065   4.961   2.862   4.691  0.3474  0.0291 -0.0676
12217TIP3    H158066   4.866   2.872   4.696  0.1315 -0.0978 -2.6628
12217TIP3    H258067   4.989   2.856   4.783 -2.1018  0.2255  0.7752
12218TIP3   OH258068   0.870   4.616  15.925  0.1113 -0.3766 -0.1321
12218TIP3    H158069   0.944   4.616  15.985  0.7154 -0.9828 -0.8609
12218TIP3    H258070   0.872   4.703  15.884 -0.3916  0.0945  0.8055
12219TIP3   OH258071   6.185   4.851  15.769  0.5649  0.1000  0.5526
12219TIP3    H158072   6.205   4.893  15.685 -0.1181 -1.2828 -0.3313
12219TIP3    H258073   6.110   4.900  15.802 -1.1826 -1.2303 -1.1855
12220TIP3   OH258074   2.669   3.463  13.915  0.6880  0.2565  0.1690
12220TIP3    H158075   2.669   3.525  13.842  0.1100  0.5997  0.4546
12220TIP3    H258076   2.581   3.426  13.916  0.3897  0.9406  1.2553
12221TIP3   OH258077   5.137   5.554   2.221  0.2636 -0.2676 -0.3266
12221TIP3    H158078   5.130   5.459   2.237  0.0689 -0.1000  0.6953
12221TIP3    H258079   5.097   5.567   2.136  1.0602 -1.2184 -0.8739
12222TIP3   OH258080   2.827   3.432  16.881  0.3112  0.3866  0.2514
12222TIP3    H158081   2.772   3.354  16.869 -2.0773  1.6510  1.9083
12222TIP3    H258082   2.854   3.428  16.973  1.2334  0.8684  0.0097
12223TIP3   OH258083   4.321   2.826   2.119 -0.5478  0.6055 -0.2545
12223TIP3    H158084   4.405   2.856   2.085 -0.7451  1.6962  0.1779
12223TIP3    H258085   4.284   2.903   2.163 -2.1764  0.4272 -1.2186
12224TIP3   OH258086   2.382   3.479  11.961 -0.0876  0.1023 -0.2385
12224TIP3    H158087   2.325   3.550  11.991  0.5947  0.3407  0.5405
12224TIP3    H258088   2.334   3.439  11.888 -1.7076 -0.3469  1.0135
12225TIP3   OH258089   1.985   6.419  11.441  0.3756  0.6344 -0.4423
12225TIP3    H158090   1.914   6.381  11.492  0.9262  0.6770  0.3841
12225TIP3    H258091   2.012   6.497  11.491  0.1003  1.4011 -1.4504
12226TIP3   OH258092   0.584   0.755   3.814  0.1022 -0.2719 -0.6138
12226TIP3    H158093   0.577   0.815   3.740 -0.0813 -0.2011 -0.5433
12226TIP3    H258094   0.660   0.786   3.863 -0.6944  0.6903  0.0936
12227TIP3   OH258095   3.441   3.249   5.891 -0.1831 -0.3081 -0.0463
12227TIP3    H158096   3.497   3.254   5.968 -0.5806 -0.2622  0.2367
12227TIP3    H258097   3.360   3.208   5.922 -0.7475  0.6436 -0.2072
12228TIP3   OH258098   4.333   0.837  14.269 -0.7070 -0.1211  0.2438
12228TIP3    H158099   4.332   0.869  14.179 -0.2167  1.8609  0.8907
12228TIP3    H258100   4.242   0.813  14.287 -1.0252  0.5644 -0.4108
12229TIP3   OH258101   6.323   3.250  14.286 -0.2350  0.0030  0.6487
12229TIP3    H158102   6.235   3.216  14.301 -0.2611 -0.6488 -0.8498
12229TIP3    H258103   6.381   3.177  14.308 -0.0337  0.4499  1.6911
12230TIP3   OH258104   5.155   1.658  15.193  0.1687  0.3855  0.1913
12230TIP3    H158105   5.156   1.729  15.257 -2.3391  0.9637 -0.3042
12230TIP3    H258106   5.170   1.578  15.244  0.3102  1.0299  1.1675
12231TIP3   OH258107   1.763   3.621  12.867  0.4402 -0.1980 -0.2560
12231TIP3    H158108   1.764   3.685  12.938  2.2124 -0.2387 -0.1962
12231TIP3    H258109   1.697   3.557  12.892 -0.3699  0.8430  0.3662
12232TIP3   OH258110   2.263   1.144  12.974 -1.3623  0.0635 -0.3404
12232TIP3    H158111   2.307   1.068  12.935  0.4040  0.8581 -0.0146
12232TIP3    H258112   2.233   1.113  13.060 -0.2889 -0.1967 -0.0386
12233TIP3   OH258113   1.099   0.429   2.201  0.5142  0.0496  0.3131
12233TIP3    H158114   1.100   0.404   2.109  2.4240  1.0957  0.0091
12233TIP3    H258115   1.040   0.365   2.242 -0.7452 -0.1510 -1.6678
12234TIP3   OH258116   6.025   0.960  11.367 -0.3697  0.4702  0.3499
12234TIP3    H158117   6.002   0.882  11.418  2.1616 -1.2118 -0.8097
12234TIP3    H258118   6.117   0.976  11.389 -0.9293  3.4621  0.8490
12235TIP3   OH258119   1.421   1.518   2.563 -0.4561  0.0040  0.3079
12235TIP3    H158120   1.514   1.510   2.541 -0.6448 -2.1007  0.0705
12235TIP3    H258121   1.396   1.604   2.530  1.0614  0.0282 -0.9139
12236TIP3   OH258122   3.483   0.673   6.383 -0.7704 -0.1881  0.7795
12236TIP3    H158123   3.538   0.595   6.381 -1.1914 -0.4952 -0.8862
12236TIP3    H258124   3.409   0.649   6.438 -1.3768 -1.3554 -0.4888
12237TIP3   OH258125   3.561   2.738   0.962  0.1994  0.0436  0.1627
12237TIP3    H158126   3.560   2.722   0.868  0.4649  0.4038  0.0965
12237TIP3    H258127   3.566   2.651   1.001  0.2412 -0.0991 -0.1579
12238TIP3   OH258128   5.848   1.101  11.946 -0.1288  0.0068  0.8359
12238TIP3    H158129   5.899   1.061  11.875  0.5431  0.0284  1.2932
12238TIP3    H258130   5.852   1.036  12.017 -1.3756 -0.3195  0.6257
12239TIP3   OH258131   2.621   2.045   1.979 -0.0891  0.3822  0.3593
12239TIP3    H158132   2.598   2.043   1.886 -1.5761 -1.4436  0.6965
12239TIP3    H258133   2.699   1.991   1.986 -0.3471 -0.0105  0.2419
12240TIP3   OH258134   4.398   2.077  12.885  0.0568  0.2626 -0.3616
12240TIP3    H158135   4.406   2.160  12.932  0.8123 -0.8613  1.5847
12240TIP3    H258136   4.471   2.024  12.916 -0.2699 -1.0773 -1.7381
12241TIP3   OH258137   2.798   6.751   2.973 -0.0395  0.3973  0.4738
12241TIP3    H158138   2.721   6.764   2.917  0.5811  0.1330 -0.4671
12241TIP3    H258139   2.849   6.831   2.963 -0.0788  0.4811  0.9224
12242TIP3   OH258140   3.164   0.067  11.935 -0.3902  0.0860  0.3515
12242TIP3    H158141   3.116   0.054  11.853  0.9099 -1.6823 -0.1682
12242TIP3    H258142   3.111   0.021  12.001 -1.4183  1.4804  0.5585
12243TIP3   OH258143   0.203   5.560   5.099 -0.1171 -0.3462 -0.3171
12243TIP3    H158144   0.134   5.558   5.165  0.0251  0.2279 -0.1411
12243TIP3    H258145   0.170   5.622   5.033 -0.2088 -0.8281 -0.7336
12244TIP3   OH258146   5.308   1.733   2.556 -0.3043 -0.0209  0.0354
12244TIP3    H158147   5.256   1.678   2.614  0.7062 -0.0147  0.9666
12244TIP3    H258148   5.247   1.801   2.527 -0.7023  0.2718  1.4951
12245TIP3   OH258149   2.518   5.940  12.338 -0.7050  0.5940  0.2257
12245TIP3    H158150   2.497   5.858  12.383  0.3880 -0.1007 -0.4991
12245TIP3    H258151   2.585   5.981  12.392  0.1085  0.0895 -0.3749
12246TIP3   OH258152   1.707   1.216   3.084 -0.2921 -0.1145  0.4380
12246TIP3    H158153   1.644   1.273   3.128 -0.6980 -0.5652  0.4478
12246TIP3    H258154   1.723   1.146   3.147  1.1686  0.6237  0.9465
12247TIP3   OH258155   5.017   4.124   4.142  0.1730 -0.5527 -0.2170
12247TIP3    H158156   4.962   4.051   4.168 -1.6272  0.8092  0.0428
12247TIP3    H258157   5.024   4.177   4.222 -2.1782  1.6960 -1.3508
12248TIP3   OH258158   4.458   2.008  11.035 -0.5928  0.4045  0.4218
12248TIP3    H158159   4.440   2.021  11.128 -0.2095  0.8113  0.4375
12248TIP3    H258160   4.395   2.065  10.990 -0.2942  0.7587  0.4488
12249TIP3   OH258161   4.663   2.641  13.935 -0.2319 -0.3892  0.0675
12249TIP3    H158162   4.588   2.600  13.891  0.3225 -2.0071  0.5511
12249TIP3    H258163   4.711   2.567  13.974  0.2535  0.8352  1.8897
12250TIP3   OH258164   3.799   2.067  14.685 -0.4428  0.3929 -0.2188
12250TIP3    H158165   3.860   2.140  14.693 -0.1435  0.0834  0.4673
12250TIP3    H258166   3.719   2.098  14.726 -0.1199  0.1315  0.6271
12251TIP3   OH258167   5.969   3.718  13.985  0.1783  0.4279 -0.8155
12251TIP3    H158168   6.031   3.699  14.054 -1.4038 -0.6554  0.3838
12251TIP3    H258169   5.902   3.772  14.026 -1.0309 -0.6122 -1.3392
12252TIP3   OH258170   2.451   3.137   2.009 -0.1591  0.1398  0.1490
12252TIP3    H158171   2.396   3.178   2.075 -1.6971  0.7909 -1.4432
12252TIP3    H258172   2.446   3.197   1.934  0.1971 -1.3385 -1.1098
12253TIP3   OH258173   3.632   3.345   3.721  0.0888 -0.0729  0.1074
12253TIP3    H158174   3.655   3.436   3.741 -1.3393  0.3919 -0.2472
12253TIP3    H258175   3.713   3.307   3.688  0.2233  1.6833 -1.8048
12254TIP3   OH258176   2.844   5.006   4.606  0.0196  0.1951  0.5472
12254TIP3    H158177   2.887   5.088   4.581  0.1048  0.1835  0.6562
12254TIP3    H258178   2.906   4.963   4.665 -0.2247  0.2684  0.8580
12255TIP3   OH258179   1.308   1.859  12.112 -0.2027 -0.6348  0.6931
12255TIP3    H158180   1.222   1.825  12.138  0.4652 -2.0863  1.1238
12255TIP3    H258181   1.369   1.818  12.172  0.9862 -1.0521 -0.7412
12256TIP3   OH258182   0.471   2.377   4.296 -0.1246  0.0509 -0.5607
12256TIP3    H158183   0.558   2.385   4.257 -0.2995  0.5583 -0.8618
12256TIP3    H258184   0.472   2.293   4.341  0.1338 -0.4744 -1.5306
12257TIP3   OH258185   1.283   5.136  15.394  0.2319  0.1506  0.1343
12257TIP3    H158186   1.365   5.112  15.351  0.2239  1.8764 -0.9263
12257TIP3    H258187   1.277   5.076  15.468  2.5496  0.0960  0.3645
12258TIP3   OH258188   2.083   3.048   5.630  0.2295 -0.0908 -0.0267
12258TIP3    H158189   2.083   3.093   5.546 -0.0872 -1.7062 -0.9307
12258TIP3    H258190   2.137   2.970   5.617 -0.7320 -0.9611  0.9084
12259TIP3   OH258191   5.294   0.363  11.085 -0.0742  0.1656 -0.2366
12259TIP3    H158192   5.311   0.380  10.993 -0.2133 -0.1883 -0.3303
12259TIP3    H258193   5.378   0.334  11.121 -0.1413 -0.2063 -0.3745
12260TIP3   OH258194   5.067   4.778   0.173 -0.3093 -0.3658  0.6303
12260TIP3    H158195   5.126   4.703   0.165  2.2388  1.5013  0.5990
12260TIP3    H258196   5.047   4.802   0.082  2.9519  1.8336  0.3055
12261TIP3   OH258197   1.728   6.235  15.832  0.3053  0.3680 -0.5698
12261TIP3    H158198   1.652   6.292  15.822 -0.2669 -0.3730 -0.5564
12261TIP3    H258199   1.793   6.290  15.875 -0.2796  0.9668 -0.4242
12262TIP3   OH258200   3.795   6.362  13.640  0.0131  0.5785  0.3232
12262TIP3    H158201   3.851   6.286  13.624 -0.2485  0.3173  0.6540
12262TIP3    H258202   3.847   6.417  13.699 -0.7232 -0.4396  1.9897
12263TIP3   OH258203   6.067   4.193  11.288  0.1121  0.1100 -0.2112
12263TIP3    H158204   5.981   4.158  11.267  0.0151 -0.1466  0.5649
12263TIP3    H258205   6.128   4.122  11.268  0.3711  0.9202 -2.5484
12264TIP3   OH258206   1.576   6.494  13.595 -0.2322  0.1494  0.4675
12264TIP3    H158207   1.599   6.474  13.504  1.1335 -1.6550  1.1372
12264TIP3    H258208   1.615   6.422  13.646  0.7051  2.0638  2.6683
12265TIP3   OH258209   0.177   6.008   0.328  0.3044 -0.0143 -0.2043
12265TIP3    H158210   0.188   6.080   0.266 -0.2935 -0.4180 -0.7889
12265TIP3    H258211   0.141   6.049   0.406  1.0352  0.4958 -0.1306
12266TIP3   OH258212   0.345   3.719  13.535 -0.2499  0.3627 -0.1260
12266TIP3    H158213   0.280   3.715  13.605  0.4628 -1.5209  0.4752
12266TIP3    H258214   0.429   3.732  13.580  0.0755  0.3432 -0.7114
12267TIP3   OH258215   6.157   0.141   1.771 -0.5896  0.2524  0.0298
12267TIP3    H158216   6.118   0.064   1.729  0.3018 -0.4294  0.4200
12267TIP3    H258217   6.135   0.131   1.863  0.7793 -0.3401  0.3166
12268TIP3   OH258218   1.414   4.529   1.531 -0.0069 -0.0884  0.0698
12268TIP3    H158219   1.407   4.562   1.620 -0.3424  0.7703 -0.2688
12268TIP3    H258220   1.390   4.603   1.475  1.4703 -0.2069 -0.7852
12269TIP3   OH258221   0.897   0.456  14.751 -0.5040  0.2048 -0.5986
12269TIP3    H158222   0.809   0.477  14.783 -1.7734 -3.3000 -1.3763
12269TIP3    H258223   0.918   0.372  14.792  0.9364 -0.8061 -3.1918
12270TIP3   OH258224   3.748   2.780   5.563 -0.5162 -0.9387  0.0417
12270TIP3    H158225   3.807   2.762   5.636 -0.0065  0.4184 -0.0117
12270TIP3    H258226   3.664   2.744   5.590 -0.7597  0.9116  2.0112
12271TIP3   OH258227   4.412   0.532  15.817  0.6899 -0.4622  0.0755
12271TIP3    H158228   4.504   0.523  15.792  0.7553  0.0671  0.1269
12271TIP3    H258229   4.414   0.568  15.906  0.4304 -0.4493  0.0773
12272TIP3   OH258230   3.439   1.925   3.102  0.1632  0.4900  0.1436
12272TIP3    H158231   3.506   1.897   3.039  0.1690 -1.0021  0.7869
12272TIP3    H258232   3.481   1.915   3.187 -1.1138 -1.2628  0.6157
12273TIP3   OH258233   2.190   4.717  12.914  0.2607  0.1405 -0.3250
12273TIP3    H158234   2.246   4.663  12.970 -0.0337 -0.3349 -0.4852
12273TIP3    H258235   2.131   4.762  12.975  1.1750  1.0840 -0.1090
12274TIP3   OH258236   2.633   1.632  14.599  0.3350 -0.2834  0.4543
12274TIP3    H158237   2.634   1.562  14.534  0.8984 -0.4088  0.5848
12274TIP3    H258238   2.543   1.635  14.631  0.0742 -0.2793 -0.2604
12275TIP3   OH258239   2.816   0.602   0.023 -0.4386  0.3664 -0.0596
12275TIP3    H158240   2.830   0.687   0.065  2.7484 -0.1394  0.1921
12275TIP3    H258241   2.862   0.540   0.079 -0.8181 -1.1794 -1.3876
12276TIP3   OH258242   1.524   1.018  12.017 -0.0449 -0.3830 -0.4326
12276TIP3    H158243   1.478   1.021  11.933 -0.8056  3.3616 -0.0519
12276TIP3    H258244   1.612   1.049  11.998  0.1945 -0.8139 -0.0542
12277TIP3   OH258245   0.280   0.358  11.509 -0.6877  0.0177 -0.1390
12277TIP3    H158246   0.199   0.374  11.459  0.3789  0.5469 -1.7982
12277TIP3    H258247   0.313   0.275  11.476 -1.2555 -0.9238  1.5683
12278TIP3   OH258248   1.443   1.811   5.981 -0.3069 -0.4210  0.5494
12278TIP3    H158249   1.442   1.853   6.066 -1.3678 -0.5589  0.6226
12278TIP3    H258250   1.513   1.746   5.986  0.6294  0.6008  0.7901
12279TIP3   OH258251   4.760   1.253   5.690  0.2208 -0.1400 -0.5341
12279TIP3    H158252   4.688   1.198   5.661  0.7135 -1.6620  0.9728
12279TIP3    H258253   4.784   1.218   5.775  1.4389  1.6062 -0.1062
12280TIP3   OH258254   2.000   5.552  11.130  0.2469 -0.0133  1.0056
12280TIP3    H158255   1.927   5.614  11.131 -0.9678 -1.3750  0.4224
12280TIP3    H258256   2.046   5.571  11.049  1.9970  2.3860  2.4349
12281TIP3   OH258257   2.080   5.898   3.468  0.5028  0.0844  0.4761
12281TIP3    H158258   2.067   5.928   3.558  0.3745 -0.9180  0.8102
12281TIP3    H258259   2.025   5.956   3.415 -1.5975 -0.9908  1.3413
12282TIP3   OH258260   0.134   5.216  14.570  0.2547  0.0722 -0.3004
12282TIP3    H158261   0.195   5.169  14.627 -1.2305 -0.3021  1.0534
12282TIP3    H258262   0.110   5.152  14.503 -0.3906 -0.5575  0.5023
12283TIP3   OH258263   0.323   2.570   1.380 -0.0753  0.0566 -0.6361
12283TIP3    H158264   0.412   2.559   1.412  0.2524  0.9986 -1.1805
12283TIP3    H258265   0.305   2.490   1.332  1.2606  0.6808 -2.2858
12284TIP3   OH258266   3.598   3.787   2.031  0.1200  0.2640 -0.5282
12284TIP3    H158267   3.539   3.720   2.067 -0.0627  0.6728 -0.0540
12284TIP3    H258268   3.684   3.746   2.033  0.2586  0.5819  1.2172
12285TIP3   OH258269   3.332   2.820   4.469  0.2996  0.0675  0.2176
12285TIP3    H158270   3.386   2.766   4.527 -1.1020 -0.7903  0.8015
12285TIP3    H258271   3.336   2.776   4.384 -1.3835 -1.4614  0.8488
12286TIP3   OH258272   0.048   6.580  14.386  0.1161 -0.5980  0.0811
12286TIP3    H158273   0.125   6.561  14.440  0.4263 -2.4281 -0.9455
12286TIP3    H258274   0.077   6.564  14.296 -1.0938 -0.0117 -0.4278
12287TIP3   OH258275   4.739   3.546   0.888  0.1567 -1.0682 -0.5299
12287TIP3    H158276   4.668   3.504   0.937  1.2028 -0.4690  1.6214
12287TIP3    H258277   4.788   3.472   0.850  0.7760 -1.7649  1.4834
12288TIP3   OH258278   3.993   2.834   4.022  0.4018  0.1810  0.0962
12288TIP3    H158279   4.026   2.836   4.112 -0.5451 -2.2373  0.5750
12288TIP3    H258280   4.001   2.742   3.996 -0.4413  0.6191 -1.8898
12289TIP3   OH258281   0.632   5.242  14.326 -0.0969 -0.0161  0.2291
12289TIP3    H158282   0.660   5.301  14.396 -0.7120 -1.4371  1.7552
12289TIP3    H258283   0.572   5.294  14.273 -1.3724  0.5216  2.0897
12290TIP3   OH258284   5.602   3.892  13.854 -0.6282  0.7687  0.3375
12290TIP3    H158285   5.632   3.888  13.945 -1.9564  1.8119  0.8663
12290TIP3    H258286   5.665   3.950  13.811  0.0298  0.2428  0.5828
12291TIP3   OH258287   4.200   3.902  13.902  0.5683 -0.7336  0.2019
12291TIP3    H158288   4.232   3.817  13.870  2.3336  0.2808 -0.9023
12291TIP3    H258289   4.260   3.925  13.974 -0.7595 -1.0174  1.4549
12292TIP3   OH258290   3.148   3.471   1.927 -0.3483  0.1514  0.2174
12292TIP3    H158291   3.125   3.561   1.904 -0.1536  0.0018 -0.6065
12292TIP3    H258292   3.100   3.417   1.864 -1.4429 -0.4045  1.4753
12293TIP3   OH258293   2.196   3.333  16.687  0.6094  0.2113  0.2727
12293TIP3    H158294   2.242   3.347  16.770  2.0941 -0.5334 -0.3809
12293TIP3    H258295   2.189   3.238  16.679 -0.2283  0.2957 -0.0968
12294TIP3   OH258296   4.572   1.459   4.883  0.6224 -0.5526  0.4201
12294TIP3    H158297   4.633   1.445   4.811 -0.7897 -1.6405 -0.6222
12294TIP3    H258298   4.534   1.546   4.866  1.3151 -0.1960  0.6628
12295TIP3   OH258299   3.502   1.131  16.259  0.0583  0.7247  0.7334
12295TIP3    H158300   3.439   1.135  16.332 -0.6767  0.4328  0.1273
12295TIP3    H258301   3.489   1.045  16.221  1.4215  0.3352  1.0979
12296TIP3   OH258302   6.273   2.175   1.693  0.1645  0.2216  0.0626
12296TIP3    H158303   6.344   2.174   1.629  0.5103 -1.3894  0.4270
12296TIP3    H258304   6.194   2.157   1.642 -0.3252  3.5346 -0.6061
12297TIP3   OH258305   4.186   3.465   5.457 -0.1926  0.1608 -0.0669
12297TIP3    H158306   4.137   3.408   5.517 -0.2875 -1.0477 -1.2409
12297TIP3    H258307   4.272   3.424   5.450  0.3703  1.2201  0.5077
12298TIP3   OH258308   2.137   6.270  12.513 -0.2452  0.1296 -0.0500
12298TIP3    H158309   2.186   6.321  12.577 -0.4209  0.1614  0.0587
12298TIP3    H258310   2.195   6.197  12.491 -0.0519  0.2953 -0.0994
12299TIP3   OH258311   4.689   3.694   0.324 -0.1622 -0.1412 -0.0693
12299TIP3    H158312   4.631   3.769   0.335 -0.0113  0.0046 -0.2635
12299TIP3    H258313   4.665   3.658   0.239 -1.0269 -1.0076  0.5165
12300TIP3   OH258314   2.424   4.750  13.112 -0.3199 -0.7942  0.0326
12300TIP3    H158315   2.508   4.714  13.142  0.3347  0.3863 -0.3357
12300TIP3    H258316   2.423   4.840  13.145 -1.0809 -0.5347 -0.6630
12301TIP3   OH258317   4.207   4.571   1.890  0.8137  0.2697 -0.0757
12301TIP3    H158318   4.200   4.667   1.893  0.3663  0.3274 -1.9319
12301TIP3    H258319   4.247   4.553   1.805  0.6088 -1.2139  0.1226
12302TIP3   OH258320   1.791   4.999  11.491 -0.2697 -0.0855  0.0970
12302TIP3    H158321   1.749   4.916  11.511  0.0385  0.0721  1.4472
12302TIP3    H258322   1.874   4.997  11.537 -0.7384  1.4077  1.0977
12303TIP3   OH258323   0.163   1.082   1.837  0.3415 -0.0339  0.6801
12303TIP3    H158324   0.162   1.125   1.923  0.1089  1.7029 -0.1583
12303TIP3    H258325   0.252   1.049   1.828  0.4066 -0.1227  1.5198
12304TIP3   OH258326   1.225   0.881  11.611 -0.1280  0.1594 -0.0791
12304TIP3    H158327   1.255   0.956  11.561  1.4864  1.1967  2.2728
12304TIP3    H258328   1.299   0.821  11.612  0.0991  0.4086  1.4346
12305TIP3   OH258329   6.606   2.032  10.492  0.4294  0.2735  0.6934
12305TIP3    H158330   6.634   2.011  10.403  2.2603  0.3145  1.2166
12305TIP3    H258331   6.576   1.948  10.528 -0.7637  0.3418 -0.0745
12306TIP3   OH258332   3.068   3.012  14.747 -0.3048  0.7034  0.0514
12306TIP3    H158333   3.122   3.082  14.782  0.5929  0.0352  0.0340
12306TIP3    H258334   3.101   2.997  14.658 -0.8196  0.5961 -0.1285
12307TIP3   OH258335   2.643   2.798  11.603  0.0312 -0.5402  0.2535
12307TIP3    H158336   2.701   2.873  11.601  0.2627 -0.7283 -0.7878
12307TIP3    H258337   2.594   2.807  11.685  1.2138 -0.1595  0.9407
12308TIP3   OH258338   4.414   2.383  17.161  0.3206  0.1651  0.7174
12308TIP3    H158339   4.335   2.424  17.126 -0.7583 -0.9085  1.7866
12308TIP3    H258340   4.423   2.418  17.250  1.8077  1.2391  0.1968
12309TIP3   OH258341   5.223   1.439   1.033 -0.3273  0.1837 -0.3661
12309TIP3    H158342   5.232   1.436   0.938 -1.0506  0.7984 -0.4556
12309TIP3    H258343   5.314   1.440   1.065 -0.0329 -1.9629 -0.9524
12310TIP3   OH258344   5.253   2.322   6.457  0.3406 -0.2685 -0.1102
12310TIP3    H158345   5.259   2.338   6.551  0.3277  1.6367 -0.3810
12310TIP3    H258346   5.320   2.378   6.419 -0.4506 -0.0855 -1.3003
12311TIP3   OH258347   0.189   5.523  15.770  0.0657 -0.1749 -0.3796
12311TIP3    H158348   0.253   5.454  15.753  0.0902 -0.2919  0.1587
12311TIP3    H258349   0.198   5.583  15.696  0.4714 -0.4358 -0.5452
12312TIP3   OH258350   1.772   4.677   0.426 -0.7751  0.1744 -0.4637
12312TIP3    H158351   1.707   4.707   0.489  0.9070  1.9745  0.5036
12312TIP3    H258352   1.790   4.586   0.452 -2.4010 -0.1686 -0.3956
12313TIP3   OH258353   2.734   6.719   2.332  0.6434 -0.1527 -0.6197
12313TIP3    H158354   2.790   6.665   2.388 -1.2619 -0.5600  1.0115
12313TIP3    H258355   2.734   6.805   2.375  1.8823  0.5513 -1.9598
12314TIP3   OH258356   6.579   5.844   0.589  0.2514 -0.2881 -0.0202
12314TIP3    H158357   6.618   5.927   0.615 -2.3713  1.4110 -1.0760
12314TIP3    H258358   6.486   5.853   0.614 -0.0199 -3.1236  0.2710
12315TIP3   OH258359   5.232   1.790  12.612  0.2188  0.3608  0.1501
12315TIP3    H158360   5.223   1.863  12.673 -0.6465  0.6471 -0.2927
12315TIP3    H258361   5.249   1.831  12.527 -0.2191  0.0608 -0.0919
12316TIP3   OH258362   4.537   1.764   1.015  0.3246  0.2569 -0.1569
12316TIP3    H158363   4.525   1.849   1.058  0.1983  0.3531 -0.3828
12316TIP3    H258364   4.507   1.778   0.926  1.3555  0.2826 -0.5131
12317TIP3   OH258365   1.116   3.920   0.640  0.1991  0.3262  0.6504
12317TIP3    H158366   1.098   3.902   0.548 -0.0796 -1.5859  1.0375
12317TIP3    H258367   1.042   3.972   0.670 -2.9025 -3.8340  1.1478
12318TIP3   OH258368   0.901   2.304  16.437  0.3495 -0.1450  0.5422
12318TIP3    H158369   0.956   2.381  16.446  0.1192  0.7529 -3.6824
12318TIP3    H258370   0.963   2.230  16.435  1.0029  0.4094  0.0118
12319TIP3   OH258371   2.928   3.569  13.341 -0.2001 -0.1020 -0.3081
12319TIP3    H158372   2.871   3.501  13.374 -1.0520  1.4366  1.5742
12319TIP3    H258373   2.927   3.558  13.246 -0.1785 -2.7394 -0.0706
12320TIP3   OH258374   2.162   2.095  16.307  0.3606 -0.4492 -0.3707
12320TIP3    H158375   2.089   2.155  16.294  1.7021  2.0712  2.5419
12320TIP3    H258376   2.209   2.095  16.224  1.0126  3.7138 -0.1929
12321TIP3   OH258377   5.571   5.504   0.193  0.0760 -0.5477  0.3408
12321TIP3    H158378   5.502   5.566   0.168  0.4197  0.0312  0.7970
12321TIP3    H258379   5.570   5.504   0.288 -0.1142 -1.4844  0.3435
12322TIP3   OH258380   0.739   2.755   3.484 -0.4124 -0.1430 -0.0043
12322TIP3    H158381   0.778   2.826   3.534  0.2504 -1.7003  1.7961
12322TIP3    H258382   0.647   2.754   3.510 -0.4282  0.0838 -0.0558
12323TIP3   OH258383   3.070   3.641  15.429 -0.4140 -0.2700  0.2023
12323TIP3    H158384   3.030   3.712  15.479 -0.0663  0.6839 -0.8285
12323TIP3    H258385   3.143   3.611  15.484  0.2354  1.0454  0.1032
12324TIP3   OH258386   4.551   1.108   4.100 -0.3113 -0.3355  0.1113
12324TIP3    H158387   4.513   1.052   4.033 -1.4887 -0.7526  1.0938
12324TIP3    H258388   4.559   1.193   4.058 -1.8607 -0.3670 -0.3199
12325TIP3   OH258389   3.839   4.676   0.527 -0.2918  0.2724  1.0538
12325TIP3    H158390   3.881   4.749   0.572 -1.4792  1.1419  0.7995
12325TIP3    H258391   3.790   4.630   0.595  0.3575 -0.2347  1.1908
12326TIP3   OH258392   0.787   1.053   0.278  0.3832 -0.3785 -0.3534
12326TIP3    H158393   0.860   0.993   0.293  0.6743 -0.2413 -1.1568
12326TIP3    H258394   0.802   1.088   0.190 -0.5293 -0.1832 -0.4469
12327TIP3   OH258395   5.693   3.057   0.452 -0.3155  0.1791  0.5390
12327TIP3    H158396   5.642   3.039   0.532 -0.9144 -1.6192 -0.1922
12327TIP3    H258397   5.691   3.152   0.444 -1.2202  0.3343  2.0465
12328TIP3   OH258398   1.888   1.411  12.168  0.4811 -0.2368 -0.8084
12328TIP3    H158399   1.962   1.380  12.115  0.8979 -0.9758  0.1745
12328TIP3    H258400   1.833   1.334  12.180 -0.0870  0.1442 -0.9286
12329TIP3   OH258401   6.206   3.243  13.155  0.7195  0.2142 -0.4830
12329TIP3    H158402   6.278   3.195  13.195 -0.4171 -0.3887  0.9074
12329TIP3    H258403   6.143   3.176  13.129  0.8336  0.6917 -2.1696
12330TIP3   OH258404   0.405   3.090  10.955  0.4721  0.1140  0.0928
12330TIP3    H158405   0.498   3.083  10.932  0.9707  1.7077  1.4269
12330TIP3    H258406   0.362   3.122  10.875  1.2181  0.2295 -0.2675
12331TIP3   OH258407   0.726   0.628   2.128 -0.0637 -0.1688  0.6007
12331TIP3    H158408   0.710   0.536   2.146  2.8278 -0.9676 -0.2977
12331TIP3    H258409   0.695   0.641   2.039 -0.8262 -0.1618  0.8646
12332TIP3   OH258410   6.734   6.336   1.227 -0.3611 -0.7638  0.0006
12332TIP3    H158411   6.680   6.270   1.271 -1.5373 -0.3634 -0.7857
12332TIP3    H258412   6.823   6.301   1.231 -0.7728 -1.7679  0.7457
12333TIP3   OH258413   2.360   1.849   3.210 -0.2168  0.2819  0.2348
12333TIP3    H158414   2.432   1.812   3.260 -0.1151 -0.6093 -0.5444
12333TIP3    H258415   2.401   1.881   3.129 -0.7690 -0.9133 -0.5546
12334TIP3   OH258416   4.155   6.266  13.025 -0.5503  0.8731 -0.0325
12334TIP3    H158417   4.063   6.288  13.016 -1.2423 -1.4889  0.3506
12334TIP3    H258418   4.167   6.253  13.120  0.3359  1.7170 -0.0172
12335TIP3   OH258419   0.053   6.251   4.462  0.0111 -0.1923 -0.4389
12335TIP3    H158420   0.047   6.345   4.474  1.1150 -0.2939  1.3842
12335TIP3    H258421   0.147   6.231   4.467 -0.3244 -1.6750  2.7545
12336TIP3   OH258422   1.093   5.960   2.304  0.7205 -0.4600  0.0142
12336TIP3    H158423   1.030   5.911   2.356 -0.1422  1.4188  0.8197
12336TIP3    H258424   1.093   5.917   2.218 -2.0833 -0.2088 -0.1903
12337TIP3   OH258425   5.597   5.169   5.976 -0.3770 -0.1735  0.7363
12337TIP3    H158426   5.557   5.219   6.048 -0.5017  0.8884 -0.0531
12337TIP3    H258427   5.539   5.095   5.963 -2.7444  1.8166 -1.0254
12338TIP3   OH258428   4.068   4.366  16.420  0.0932  0.0878 -0.6964
12338TIP3    H158429   4.030   4.307  16.486  0.4535 -2.3288 -2.5044
12338TIP3    H258430   4.012   4.357  16.344  1.2936  0.5580 -1.6719
12339TIP3   OH258431   4.383   3.718  12.386  0.5623  0.5039  0.1716
12339TIP3    H158432   4.444   3.648  12.407 -0.2219  0.0765  1.0454
12339TIP3    H258433   4.364   3.761  12.469  1.4330  2.1197 -0.4067
12340TIP3   OH258434   4.185   1.624  16.001 -0.7290 -0.6411 -0.3775
12340TIP3    H158435   4.194   1.567  15.926 -0.8861 -0.4768 -0.5223
12340TIP3    H258436   4.172   1.711  15.964  1.6759 -0.1266 -0.1894
12341TIP3   OH258437   1.297   5.636  12.798  0.1071  0.3200  0.1956
12341TIP3    H158438   1.258   5.686  12.870 -2.9921 -0.8642 -0.5141
12341TIP3    H258439   1.300   5.546  12.831  0.0918  0.0170 -0.6063
12342TIP3   OH258440   0.537   2.945  16.971  0.2809  0.1618 -0.1691
12342TIP3    H158441   0.610   2.996  16.936 -0.1336 -0.5673 -2.2237
12342TIP3    H258442   0.501   2.899  16.896  0.8689 -3.5240  1.5890
12343TIP3   OH258443   2.372   5.278   1.534 -0.4899 -0.4011  0.1446
12343TIP3    H158444   2.422   5.241   1.461 -0.6690  1.4906 -1.0094
12343TIP3    H258445   2.434   5.337   1.577 -1.5390  1.7221 -1.1020
12344TIP3   OH258446   0.694   6.585   1.285 -1.1244 -0.4197 -0.2937
12344TIP3    H158447   0.611   6.612   1.324 -0.2716  0.2978  1.1025
12344TIP3    H258448   0.708   6.646   1.212 -0.0798  1.9749  1.7391
12345TIP3   OH258449   0.587   1.780  16.799 -1.3573  0.1132 -0.3944
12345TIP3    H158450   0.666   1.730  16.780 -1.2030 -0.5197  1.6778
12345TIP3    H258451   0.515   1.721  16.777 -1.1778 -0.8178  1.3064
12346TIP3   OH258452   6.633   4.027  16.669 -0.2203  0.2901 -0.2969
12346TIP3    H158453   6.726   4.037  16.689  1.0446 -1.8264 -4.1360
12346TIP3    H258454   6.616   4.088  16.598 -1.5801  0.0465 -0.2177
12347TIP3   OH258455   5.812   3.876   4.215 -0.0334 -0.4482 -0.1176
12347TIP3    H158456   5.800   3.821   4.293  2.4692  0.1809  0.8408
12347TIP3    H258457   5.740   3.939   4.219 -1.0802 -1.6317  0.5620
12348TIP3   OH258458   3.342   2.696   4.200 -0.0249  0.3972 -0.6372
12348TIP3    H158459   3.426   2.734   4.176 -0.3741  1.2912 -0.4658
12348TIP3    H258460   3.353   2.602   4.185  0.8959  0.5445 -0.9191
12349TIP3   OH258461   6.356   0.589  11.025 -0.3752  0.0954  0.5174
12349TIP3    H158462   6.377   0.544  11.107  1.3857 -2.4584 -1.2056
12349TIP3    H258463   6.439   0.627  10.996 -0.9460  0.8664 -0.1503
12350TIP3   OH258464   4.407   3.560   6.482 -0.1033 -0.2119  0.4710
12350TIP3    H158465   4.383   3.492   6.546 -2.2143 -1.5369 -1.5732
12350TIP3    H258466   4.417   3.513   6.399  0.2767  1.7476 -0.6663
12351TIP3   OH258467   0.114   2.584   5.896  0.0321  0.2280 -0.0680
12351TIP3    H158468   0.137   2.550   5.810  1.9972  0.8592  0.1716
12351TIP3    H258469   0.135   2.513   5.957 -2.1077 -0.5208 -0.1302
12352TIP3   OH258470   5.349   3.536   6.108 -0.2892  0.3361 -0.2665
12352TIP3    H158471   5.353   3.480   6.186 -0.7516  0.7704  0.0750
12352TIP3    H258472   5.437   3.573   6.101 -0.6837  1.6404  1.0731
12353TIP3   OH258473   1.886   3.601   1.670 -0.5920  0.4221  0.0427
12353TIP3    H158474   1.825   3.552   1.724  0.4498 -1.5863 -0.4655
12353TIP3    H258475   1.851   3.594   1.581  0.2252 -0.5815 -0.2243
12354TIP3   OH258476   2.552   5.704   4.621  0.4646  0.3940  0.4533
12354TIP3    H158477   2.482   5.660   4.573  0.5708  1.3733 -0.6230
12354TIP3    H258478   2.630   5.691   4.567  0.7586  0.7771  0.7810
12355TIP3   OH258479   3.568   4.531   4.510 -0.1639 -0.0643 -0.2220
12355TIP3    H158480   3.514   4.500   4.438 -0.2592 -0.3772 -0.0148
12355TIP3    H258481   3.596   4.619   4.483 -0.8484  0.1384 -0.2852
12356TIP3   OH258482   0.415   4.908  11.283  0.6633 -0.1146  0.7132
12356TIP3    H158483   0.501   4.929  11.246  0.3397 -1.9879 -1.2903
12356TIP3    H258484   0.355   4.971  11.241  1.0749  1.7491  2.7360
12357TIP3   OH258485   5.926   4.305   4.551  0.0533 -0.3620  0.0830
12357TIP3    H158486   5.997   4.292   4.488  0.1338  0.3341  0.0269
12357TIP3    H258487   5.942   4.392   4.589 -1.0406  0.0260 -0.2960
12358TIP3   OH258488   3.331   5.363   0.204  0.1567  0.3579  0.0261
12358TIP3    H158489   3.310   5.401   0.289  1.1045  3.5399 -1.0264
12358TIP3    H258490   3.426   5.371   0.197  0.0422  0.6654 -1.5218
12359TIP3   OH258491   6.188   4.528   3.217 -0.1803  0.4424  0.4978
12359TIP3    H158492   6.168   4.488   3.132  0.7046  0.9548  0.0356
12359TIP3    H258493   6.273   4.570   3.204 -0.5794  1.5194  1.3047
12360TIP3   OH258494   1.884   6.632  13.169 -0.2557 -0.0463 -0.5346
12360TIP3    H158495   1.866   6.685  13.091  0.7202 -1.2421 -1.6089
12360TIP3    H258496   1.841   6.548  13.152  1.2557 -0.8621 -0.5130
12361TIP3   OH258497   6.436   5.707  15.481  0.1719  0.2507 -0.1989
12361TIP3    H158498   6.460   5.687  15.391 -0.6717  1.9020 -0.8368
12361TIP3    H258499   6.415   5.622  15.520  1.5246 -0.6018 -1.2286
12362TIP3   OH258500   1.480   1.221   2.577 -0.4397  0.0566  0.0463
12362TIP3    H158501   1.402   1.268   2.546 -2.1008 -1.3559  1.8592
12362TIP3    H258502   1.467   1.131   2.548 -0.0614 -0.4398  1.3613
12363TIP3   OH258503   0.705   5.439   1.815 -0.3335  0.0689  0.4047
12363TIP3    H158504   0.661   5.371   1.866  1.0723  0.3542  2.1149
12363TIP3    H258505   0.776   5.394   1.770 -1.0249 -0.0248 -0.6187
12364TIP3   OH258506   4.171   1.984  14.336  0.1314 -0.0889  0.1364
12364TIP3    H158507   4.236   1.945  14.278  0.3163  0.7573 -0.2364
12364TIP3    H258508   4.088   1.944  14.310  0.0932  0.8249 -1.2349
12365TIP3   OH258509   4.797   3.448   1.556  0.7186  0.8266  0.2426
12365TIP3    H158510   4.766   3.528   1.600 -1.5462 -0.1541  0.5603
12365TIP3    H258511   4.887   3.469   1.530  0.1419  3.5622  0.1028
12366TIP3   OH258512   6.332   2.292  16.662  0.5234 -0.3551 -0.0748
12366TIP3    H158513   6.300   2.202  16.664  1.0668 -0.5693 -0.6177
12366TIP3    H258514   6.426   2.283  16.643  0.6511  0.3080  0.2300
12367TIP3   OH258515   4.371   0.366  13.571  0.4097 -0.2245  0.1838
12367TIP3    H158516   4.418   0.300  13.521 -0.1138 -0.7184  0.3289
12367TIP3    H258517   4.399   0.353  13.662 -1.0745 -1.4897  0.4940
12368TIP3   OH258518   6.274   5.347   2.577 -0.1598  0.7259 -0.4658
12368TIP3    H158519   6.315   5.310   2.498 -0.7977  0.3360 -0.6208
12368TIP3    H258520   6.255   5.437   2.553 -1.4823  0.2780 -1.2141
12369TIP3   OH258521   1.637   0.251  14.909  0.2858 -0.2370 -0.0943
12369TIP3    H158522   1.683   0.213  14.984  0.2259  0.7702  0.4836
12369TIP3    H258523   1.651   0.190  14.838  1.0043 -0.8341  0.5459
12370TIP3   OH258524   3.780   4.965  16.862  0.1229 -0.0759  0.3353
12370TIP3    H158525   3.874   4.947  16.865  0.0167 -0.7807 -0.3742
12370TIP3    H258526   3.742   4.887  16.823 -0.7364  0.3145  0.3816
12371TIP3   OH258527   1.005   6.774   4.225  0.4007 -0.0862 -0.4713
12371TIP3    H158528   0.952   6.850   4.250 -0.1666 -0.3517 -0.8297
12371TIP3    H258529   0.941   6.704   4.214  1.0247 -0.9476  1.0423
12372TIP3   OH258530   3.961   2.470  14.329  0.5384  0.1092  0.1159
12372TIP3    H158531   3.970   2.528  14.253  2.6175  0.0069  0.2233
12372TIP3    H258532   3.941   2.384  14.291  1.4457  0.0851 -0.3373
12373TIP3   OH258533   2.100   1.600  13.957  0.2336 -0.1220  0.6942
12373TIP3    H158534   2.054   1.649  14.026  0.0141 -0.6465  0.9252
12373TIP3    H258535   2.173   1.657  13.932  1.2617 -0.5738  2.4836
12374TIP3   OH258536   2.834   2.526   4.769  0.5495 -0.1923  0.1517
12374TIP3    H158537   2.865   2.471   4.697 -0.0137  0.6294 -0.7417
12374TIP3    H258538   2.783   2.595   4.726 -0.2768 -0.0079  1.3821
12375TIP3   OH258539   0.476   6.524   3.445  0.3562 -0.3591 -0.4608
12375TIP3    H158540   0.454   6.558   3.358 -0.3859  1.9546  0.5694
12375TIP3    H258541   0.426   6.442   3.451 -0.2920 -0.1015 -1.8800
12376TIP3   OH258542   0.323   6.074   5.373 -0.1725  0.1055 -0.5157
12376TIP3    H158543   0.358   5.985   5.364 -1.3963 -0.3941 -0.5636
12376TIP3    H258544   0.300   6.100   5.284 -0.5758  0.1383 -0.4058
12377TIP3   OH258545   0.114   3.868   2.494 -0.6958  0.3179 -0.5963
12377TIP3    H158546   0.191   3.919   2.521  0.0919 -0.7001 -0.8802
12377TIP3    H258547   0.146   3.808   2.427 -1.6784 -0.3324 -0.5149
12378TIP3   OH258548   3.603   0.205   3.396  0.2860  0.2264 -0.4304
12378TIP3    H158549   3.549   0.173   3.469  2.1499 -1.7061  0.1868
12378TIP3    H258550   3.674   0.253   3.438 -1.0274  3.1360 -1.2567
12379TIP3   OH258551   0.890   0.653   0.301 -0.1132  0.1272  0.1060
12379TIP3    H158552   0.847   0.684   0.380  0.4175  0.0113  0.4462
12379TIP3    H258553   0.975   0.698   0.300 -0.5554  0.9630 -0.9712
12380TIP3   OH258554   3.891   5.415  13.414 -0.3358 -0.2165  0.1853
12380TIP3    H158555   3.918   5.391  13.502 -1.9383  0.0563  0.8020
12380TIP3    H258556   3.968   5.455  13.374  0.8496 -1.6819  0.9224
12381TIP3   OH258557   1.463   1.109  13.722 -0.9830  0.4092 -0.1490
12381TIP3    H158558   1.370   1.104  13.743 -0.8129 -1.7144  0.3827
12381TIP3    H258559   1.467   1.089  13.628 -0.9695 -1.8062  0.2636
12382TIP3   OH258560   2.963   4.932   2.000 -0.4299 -0.7724 -0.3288
12382TIP3    H158561   3.049   4.904   2.029  0.1097 -0.3393 -1.4418
12382TIP3    H258562   2.959   5.025   2.022 -0.5662 -0.7626 -0.3935
12383TIP3   OH258563   4.131   3.018  12.964  0.2365 -0.6307  0.5572
12383TIP3    H158564   4.144   2.959  13.038  4.5989 -3.4515 -1.9781
12383TIP3    H258565   4.067   2.974  12.909  0.7115 -1.1393  0.4023
12384TIP3   OH258566   4.285   4.931   1.006  0.1138 -0.5079 -0.0934
12384TIP3    H158567   4.374   4.901   1.022  0.5915  0.7120 -0.3018
12384TIP3    H258568   4.294   4.999   0.939 -0.9213 -0.1167  0.1398
12385TIP3   OH258569   0.977   4.096  12.911  0.2741 -0.4753 -0.0729
12385TIP3    H158570   0.941   4.030  12.852 -0.4215 -0.8794  0.7977
12385TIP3    H258571   1.021   4.158  12.852 -0.3943 -0.8742 -1.0205
12386TIP3   OH258572   5.890   0.097   4.277 -0.1363 -0.2422  0.3200
12386TIP3    H158573   5.979   0.094   4.313 -0.2547 -1.9182  0.5432
12386TIP3    H258574   5.841   0.151   4.339  0.3977 -0.5068  0.9856
12387TIP3   OH258575   0.540   5.604   3.898 -0.2270 -0.1307  0.1121
12387TIP3    H158576   0.571   5.585   3.986 -0.6026 -0.2583  0.2168
12387TIP3    H258577   0.580   5.688   3.877  0.7548 -0.6098 -0.0276
12388TIP3   OH258578   3.826   3.630   1.952  0.5132 -0.2645  0.7623
12388TIP3    H158579   3.851   3.549   1.997  1.0129 -0.1449  0.6956
12388TIP3    H258580   3.763   3.601   1.886  1.7201 -0.8131 -0.1930
12389TIP3   OH258581   2.590   0.796   3.853 -0.1044  0.2938  0.3227
12389TIP3    H158582   2.523   0.832   3.795  0.6964 -2.1204 -2.3303
12389TIP3    H258583   2.628   0.723   3.804  3.5700  0.6730  2.2039
12390TIP3   OH258584   0.446   5.196  12.500  0.1936  0.7926  0.1516
12390TIP3    H158585   0.498   5.211  12.579  2.7871  0.4332 -1.3313
12390TIP3    H258586   0.434   5.101  12.497 -0.2977  0.8480  0.3359
12391TIP3   OH258587   5.909   3.257  13.372 -0.0777 -1.0076 -0.2969
12391TIP3    H158588   5.862   3.203  13.436  0.4711 -0.9113  0.1992
12391TIP3    H258589   5.998   3.262  13.407 -0.4267  1.3631  0.4069
12392TIP3   OH258590   0.102   3.015  12.132 -0.0760 -0.1131  0.6842
12392TIP3    H158591   0.157   2.956  12.182 -0.9389 -1.3228  0.2582
12392TIP3    H258592   0.158   3.089  12.110  0.4808  0.1622  2.9012
12393TIP3   OH258593   1.734   1.006   2.889 -0.0737 -0.3328 -0.1255
12393TIP3    H158594   1.797   0.952   2.937 -0.2649 -0.5645 -0.1308
12393TIP3    H258595   1.717   1.080   2.947 -1.2285 -1.2245  0.7283
12394TIP3   OH258596   6.749   3.455   0.916  0.2761  0.0454  0.1024
12394TIP3    H158597   6.840   3.482   0.915  0.1156  0.6482  0.8010
12394TIP3    H258598   6.737   3.411   1.000 -0.1405  0.2282  0.1457
12395TIP3   OH258599   2.435   3.978  13.913  0.3844  0.1215 -0.3352
12395TIP3    H158600   2.499   4.048  13.898 -0.3999  1.5454  2.3100
12395TIP3    H258601   2.363   4.021  13.959 -1.2742 -1.9807 -0.8105
12396TIP3   OH258602   0.098   4.820   4.983 -0.1389  0.7135 -0.2314
12396TIP3    H158603   0.033   4.756   5.012 -0.3512  1.1936  0.3929
12396TIP3    H258604   0.175   4.769   4.960 -0.7846  0.1213 -1.1309
12397TIP3   OH258605   2.114   5.153   2.641 -0.6914  0.2633  0.0727
12397TIP3    H158606   2.175   5.116   2.577  2.0754  2.2965  1.2986
12397TIP3    H258607   2.159   5.143   2.725 -1.9113  2.1109  1.0071
12398TIP3   OH258608   1.916   1.549   2.989 -0.5627  0.3886  0.2262
12398TIP3    H158609   1.990   1.575   3.045 -2.0783 -1.0386  3.0802
12398TIP3    H258610   1.931   1.597   2.907  3.6987 -0.0908  0.4827
12399TIP3   OH258611   2.483   5.424   4.815 -0.3531 -0.2593  0.3494
12399TIP3    H158612   2.515   5.503   4.771 -0.1593  0.5760  1.9040
12399TIP3    H258613   2.425   5.457   4.884  0.8742 -1.3368  1.9805
12400TIP3   OH258614   1.586   1.493   0.983  0.1476 -0.1795  0.3704
12400TIP3    H158615   1.658   1.542   1.024  0.5718 -1.2623  0.9661
12400TIP3    H258616   1.624   1.408   0.963 -1.1188 -0.9802  1.2136
12401TIP3   OH258617   0.076   0.038   4.201 -0.0898  0.1565  0.4620
12401TIP3    H158618  -0.004   0.047   4.148  0.7266 -1.1736 -1.0900
12401TIP3    H258619   0.049  -0.017   4.274 -0.2437 -1.8855 -1.0402
12402TIP3   OH258620   1.810   1.099   4.084 -0.0084 -0.3598  0.3539
12402TIP3    H158621   1.839   1.164   4.147  0.6992 -0.2235 -0.0998
12402TIP3    H258622   1.780   1.025   4.136 -0.4538  0.1754  0.8655
12403TIP3   OH258623   4.740   1.399  14.068  0.2391 -0.1835 -0.1941
12403TIP3    H158624   4.779   1.426  13.985  0.4849  1.4918  0.4400
12403TIP3    H258625   4.649   1.379  14.046 -0.4146  2.7152 -0.4922
12404TIP3   OH258626   0.467   1.886   2.442 -0.0779 -0.3677  0.4177
12404TIP3    H158627   0.470   1.795   2.412  0.9424  0.0484 -0.8667
12404TIP3    H258628   0.544   1.895   2.498  0.4658 -0.0352 -0.3544
12405TIP3   OH258629   0.431   3.539  11.186  0.2662  0.1708 -0.4020
12405TIP3    H158630   0.338   3.537  11.205  0.0925 -0.3312 -1.2491
12405TIP3    H258631   0.471   3.494  11.261 -0.0782  1.1601  0.3898
12406TIP3   OH258632   2.512   2.866  12.849 -0.4038  0.2815 -0.2916
12406TIP3    H158633   2.469   2.939  12.805 -1.1669 -0.2235 -0.4083
12406TIP3    H258634   2.510   2.890  12.942  0.0668  0.7657 -0.4020
12407TIP3   OH258635   2.098   5.339  15.384 -0.0264  0.1060  0.1249
12407TIP3    H158636   2.069   5.263  15.435  1.1148 -0.7511 -0.4528
12407TIP3    H258637   2.193   5.339  15.393  0.0790  0.7800 -0.8426
12408TIP3   OH258638   2.713   1.990   1.534  0.2261  0.4312 -0.3883
12408TIP3    H158639   2.711   2.065   1.475  3.1253  0.9485  0.0325
12408TIP3    H258640   2.752   2.023   1.615 -2.9843 -0.4393  1.7046
12409TIP3   OH258641   4.063   0.269  13.030  0.2061  0.1969 -0.6395
12409TIP3    H158642   4.035   0.334  12.965 -0.0110  2.0585  1.1822
12409TIP3    H258643   4.152   0.247  13.003  1.3967  3.4369  0.1140
12410TIP3   OH258644   1.900   0.283  11.764 -0.2721  0.3384  0.2934
12410TIP3    H158645   1.931   0.364  11.723 -0.4482 -0.4020 -1.3777
12410TIP3    H258646   1.976   0.251  11.813  0.0692  1.0543  0.2579
12411TIP3   OH258647   0.126   0.813  13.808 -0.6763  0.4350  0.0130
12411TIP3    H158648   0.151   0.820  13.715  0.9190 -1.2637  0.2685
12411TIP3    H258649   0.095   0.723  13.818 -2.2469  1.0310  0.8586
12412TIP3   OH258650   1.083   3.836   1.772  0.1651  0.2650 -0.4245
12412TIP3    H158651   1.005   3.813   1.822  0.5166 -1.1824 -0.4907
12412TIP3    H258652   1.108   3.922   1.804 -1.3819  0.7035 -0.3195
12413TIP3   OH258653   4.635   4.413   2.555  0.0512  0.2626  0.4280
12413TIP3    H158654   4.621   4.348   2.623  2.3155 -0.9354 -0.1428
12413TIP3    H258655   4.615   4.367   2.473  0.4736  0.6718  0.0914
12414TIP3   OH258656   0.435   2.360  16.869 -0.3609  0.2141 -0.2221
12414TIP3    H158657   0.526   2.336  16.855  0.2142  1.2266  1.4319
12414TIP3    H258658   0.422   2.351  16.964 -2.5611 -1.7905 -0.6285
12415TIP3   OH258659   4.102   5.903  13.639  0.5377 -0.0687 -0.1425
12415TIP3    H158660   4.105   5.895  13.543  1.0135  0.8748 -0.2207
12415TIP3    H258661   4.177   5.851  13.669  1.6121  1.2358 -0.4333
12416TIP3   OH258662   3.889   6.142  16.654  0.4046 -0.7542 -0.2010
12416TIP3    H158663   3.796   6.125  16.646  0.1701  0.4939 -0.3589
12416TIP3    H258664   3.926   6.060  16.686 -1.1804 -0.4580  2.7551
12417TIP3   OH258665   6.737   3.590  12.469 -0.2680  0.0692  0.4810
12417TIP3    H158666   6.794   3.513  12.463  0.4382  0.5926  0.2983
12417TIP3    H258667   6.730   3.622  12.379 -1.6850 -0.5655  0.3465
12418TIP3   OH258668   0.069   2.246   0.804  0.3943  0.2455  0.2265
12418TIP3    H158669   0.133   2.186   0.765 -0.4023  0.9947 -2.4718
12418TIP3    H258670   0.108   2.333   0.793  0.8307  0.4222  2.6612
12419TIP3   OH258671   1.423   5.504  11.908  0.0969  0.3992  0.1196
12419TIP3    H158672   1.409   5.476  11.818 -1.9736  0.3886  0.3825
12419TIP3    H258673   1.370   5.583  11.917 -1.1404 -0.5369  1.7541
12420TIP3   OH258674   5.619   0.407   3.745 -0.9914  0.4172 -0.1856
12420TIP3    H158675   5.708   0.381   3.723 -0.9895  0.9386 -0.8171
12420TIP3    H258676   5.628   0.465   3.821 -0.8953 -0.4052  0.4461
12421TIP3   OH258677   1.215   3.278  15.168  0.3466  0.0915  0.1641
12421TIP3    H158678   1.260   3.307  15.089 -1.9514  0.6957 -1.0294
12421TIP3    H258679   1.158   3.206  15.139  1.1837 -1.3012  1.7856
12422TIP3   OH258680   3.530   3.639  13.426 -0.0650  0.0043 -0.5450
12422TIP3    H158681   3.586   3.667  13.354  1.6298  0.5493  0.9209
12422TIP3    H258682   3.590   3.623  13.499 -1.3668 -3.2927  0.0041
12423TIP3   OH258683   3.459   6.589   4.329 -0.0702  0.6360  0.0356
12423TIP3    H158684   3.550   6.618   4.335 -0.2512  0.9588  1.6566
12423TIP3    H258685   3.409   6.669   4.312  0.0574  0.2256 -2.8719
12424TIP3   OH258686   6.110   5.681   3.780  0.8811 -1.1639 -0.0011
12424TIP3    H158687   6.204   5.666   3.780  0.9484 -0.7624 -0.5857
12424TIP3    H258688   6.086   5.685   3.873  1.5378 -0.6427  0.1477
12425TIP3   OH258689   2.879   6.715   1.050  0.2665 -0.2856  0.1602
12425TIP3    H158690   2.956   6.694   0.998  0.7917  0.1929  0.7154
12425TIP3    H258691   2.845   6.796   1.011  1.4115  0.8035  1.2942
12426TIP3   OH258692   3.471   0.034  15.069 -0.0089  0.4579 -0.3285
12426TIP3    H158693   3.530  -0.036  15.039 -0.1784  0.1620  0.0205
12426TIP3    H258694   3.452   0.011  15.160 -0.4344  0.7124 -0.3551
12427TIP3   OH258695   2.894   6.450  16.871 -0.7103 -0.1188 -0.1059
12427TIP3    H158696   2.859   6.512  16.807  1.2902  0.1921 -1.0104
12427TIP3    H258697   2.876   6.364  16.833  1.0772  0.0659 -1.5725
12428TIP3   OH258698   6.344   0.438   3.212  0.4104  0.0046 -0.0859
12428TIP3    H158699   6.262   0.485   3.201  0.0216 -0.5341  0.4614
12428TIP3    H258700   6.318   0.348   3.231  1.1156 -0.0960  0.4490
12429TIP3   OH258701   1.165   1.775   5.524  0.1276 -0.0217 -0.2267
12429TIP3    H158702   1.161   1.680   5.515 -0.1206  0.0671 -1.1338
12429TIP3    H258703   1.219   1.790   5.602  1.1942 -0.8826 -0.7731
12430TIP3   OH258704   2.124   6.000  14.343  0.0061 -0.0563  0.5449
12430TIP3    H158705   2.060   5.978  14.275  0.7454 -0.0986 -0.1528
12430TIP3    H258706   2.083   6.072  14.392 -1.3946 -1.3442  1.3402
12431TIP3   OH258707   6.190   0.092   2.859 -0.6521 -0.5443  0.3523
12431TIP3    H158708   6.191   0.159   2.927 -0.3490  0.1939 -0.3678
12431TIP3    H258709   6.271   0.043   2.872 -0.7211 -0.5739  0.6775
12432TIP3   OH258710   2.207   3.047  10.667  0.6424  0.6076  0.0860
12432TIP3    H158711   2.207   3.139  10.694  0.0938  0.6439 -0.0268
12432TIP3    H258712   2.123   3.035  10.624  0.0137 -0.3688  1.5180
12433TIP3   OH258713   5.195   4.787  16.768 -0.8742  0.0376 -0.0312
12433TIP3    H158714   5.164   4.700  16.794 -1.4780 -0.6187 -2.6709
12433TIP3    H258715   5.121   4.825  16.720 -0.5249  1.9277  0.8534
12434TIP3   OH258716   3.243   1.819   4.772  0.2247 -0.1326 -0.7548
12434TIP3    H158717   3.316   1.799   4.830 -0.9049 -1.0677  0.4259
12434TIP3    H258718   3.170   1.768   4.807 -1.0242  0.8255 -1.8284
12435TIP3   OH258719   3.503   1.875   3.387 -0.0664 -0.3168  0.3076
12435TIP3    H158720   3.409   1.879   3.370  0.1268  0.4016 -0.6265
12435TIP3    H258721   3.509   1.858   3.481 -1.1214  0.6444  0.5719
12436TIP3   OH258722   1.138   1.074   6.514  0.1620  0.2700  0.4011
12436TIP3    H158723   1.231   1.059   6.534  0.7442  1.4540 -1.2174
12436TIP3    H258724   1.094   0.996   6.548  1.9785 -1.1986 -0.3985
12437TIP3   OH258725   6.208   5.220   6.732  0.0154  0.3168 -0.0302
12437TIP3    H158726   6.241   5.267   6.809 -0.2708 -0.9484  0.8868
12437TIP3    H258727   6.283   5.218   6.672  0.8726 -0.3795  1.0268
12438TIP3   OH258728   3.325   4.605   2.013  0.0439  0.4215  0.0973
12438TIP3    H158729   3.249   4.548   2.026 -0.2743  0.7491 -0.3228
12438TIP3    H258730   3.372   4.601   2.096  1.5311 -2.6394 -0.7062
12439TIP3   OH258731   1.749   0.187  15.423  0.5755 -0.1363 -0.2067
12439TIP3    H158732   1.746   0.278  15.450 -1.4598 -0.6952  1.7443
12439TIP3    H258733   1.658   0.163  15.408  1.1963 -1.3733 -2.6871
12440TIP3   OH258734   3.290   1.014   1.917  0.3258  0.2811 -0.1867
12440TIP3    H158735   3.293   0.932   1.868  0.6243 -0.1774  0.5933
12440TIP3    H258736   3.381   1.035   1.935  0.2203  0.4672  0.1389
12441TIP3   OH258737   4.783   2.475   0.642 -0.6946  0.1978  0.6859
12441TIP3    H158738   4.827   2.560   0.641 -0.8140  0.2698  1.1340
12441TIP3    H258739   4.698   2.493   0.682 -0.3826 -0.2860  1.5955
12442TIP3   OH258740   6.140   1.835   2.225  0.5906  0.2778  0.2258
12442TIP3    H158741   6.197   1.854   2.299  1.9243 -0.5247 -0.5672
12442TIP3    H258742   6.127   1.920   2.183 -0.8217  0.8825  1.7816
12443TIP3   OH258743   3.917   2.486   0.254  0.2572  0.2433  0.2252
12443TIP3    H158744   3.872   2.478   0.338 -1.1597 -1.3337 -0.6219
12443TIP3    H258745   3.856   2.535   0.198  0.0006 -1.0016 -0.6268
12444TIP3   OH258746   0.747   1.390  14.042 -0.2256 -0.0524 -0.6287
12444TIP3    H158747   0.692   1.411  13.966  0.7186 -0.7037 -1.5165
12444TIP3    H258748   0.836   1.411  14.013  0.1064  0.1032  0.4642
12445TIP3   OH258749   1.336   6.460   5.253  0.6401 -0.1273  0.8857
12445TIP3    H158750   1.365   6.499   5.335  1.3991 -0.6202  0.8699
12445TIP3    H258751   1.342   6.366   5.268 -1.7222 -0.2993  1.1239
12446TIP3   OH258752   5.516   5.044   1.478 -0.2387 -0.1825 -0.0343
12446TIP3    H158753   5.555   5.098   1.409 -0.0795 -0.9818 -0.5709
12446TIP3    H258754   5.591   5.014   1.530 -0.3398  0.2269  0.3585
12447TIP3   OH258755   5.349   4.374   3.645 -0.0254  0.1715 -0.7235
12447TIP3    H158756   5.329   4.405   3.734 -1.5561  0.1451 -1.0294
12447TIP3    H258757   5.389   4.288   3.659 -3.1334 -1.3081 -0.0815
12448TIP3   OH258758   2.225   1.063   1.275  0.6675 -0.5470  0.2677
12448TIP3    H158759   2.258   1.152   1.274 -1.0471  0.1726 -2.2259
12448TIP3    H258760   2.294   1.012   1.318  1.7043  1.9141  1.7606
12449TIP3   OH258761   1.812   3.806  14.742  0.3636  0.2442 -0.0037
12449TIP3    H158762   1.844   3.721  14.714 -1.4969 -0.0919 -1.2529
12449TIP3    H258763   1.873   3.833  14.811  1.4687 -1.6968 -0.1592
12450TIP3   OH258764   2.364   3.488  12.783 -0.7809  0.0911 -0.0208
12450TIP3    H158765   2.295   3.422  12.778 -1.0077  0.4168 -1.8444
12450TIP3    H258766   2.316   3.571  12.793 -0.5537  0.1247  0.8524
12451TIP3   OH258767   0.850   4.845  16.189 -0.0439  0.2844  0.1100
12451TIP3    H158768   0.935   4.818  16.225  0.1986 -0.6047 -1.0636
12451TIP3    H258769   0.809   4.763  16.161 -2.2761  0.4405  2.6120
12452TIP3   OH258770   5.033   6.456   1.306  1.1176  0.1727  0.7602
12452TIP3    H158771   5.056   6.363   1.308 -0.9117 -0.3680  0.7153
12452TIP3    H258772   4.962   6.465   1.368 -1.3999  0.8603 -1.9949
12453TIP3   OH258773   1.736   3.948   4.547 -0.4890  0.2564  0.3107
12453TIP3    H158774   1.660   3.919   4.596 -0.0046  1.0891  1.6199
12453TIP3    H258775   1.803   3.883   4.565 -0.6068  0.0296 -0.0672
12454TIP3   OH258776   4.298   1.469  15.463  0.1783  0.0328 -0.1311
12454TIP3    H158777   4.253   1.384  15.464 -1.1293  0.6890 -0.0091
12454TIP3    H258778   4.340   1.474  15.378  0.4581 -0.8277 -0.0500
12455TIP3   OH258779   3.068   6.382   2.135  0.3644  0.1662  0.3072
12455TIP3    H158780   3.061   6.435   2.215 -0.0252 -0.7913  0.9316
12455TIP3    H258781   3.011   6.307   2.152  0.3880 -0.1172 -0.8289
12456TIP3   OH258782   2.752   0.797   1.213  0.1325  0.2040  0.3305
12456TIP3    H158783   2.765   0.812   1.120 -1.8392  1.0376  0.1327
12456TIP3    H258784   2.839   0.779   1.247  0.8668 -0.3244 -1.6988
12457TIP3   OH258785   4.393   5.811   0.432  0.0722  0.0689  0.3066
12457TIP3    H158786   4.398   5.851   0.345 -2.0400 -1.1247 -0.4404
12457TIP3    H258787   4.483   5.812   0.465  0.6193  2.2531 -1.0856
12458TIP3   OH258788   2.790   1.045  14.872 -0.4785  0.0506 -0.5071
12458TIP3    H158789   2.872   1.093  14.863 -1.1535  0.9795 -2.1792
12458TIP3    H258790   2.729   1.109  14.909 -0.6561 -0.4161  0.0251
12459TIP3   OH258791   0.739   6.687  12.788  0.9073  0.1315 -1.0142
12459TIP3    H158792   0.690   6.625  12.735  1.0001  0.0852 -1.0475
12459TIP3    H258793   0.751   6.644  12.872  0.9640  0.1085 -1.0342
12460TIP3   OH258794   5.126   0.055  15.787 -0.2340  0.2100  0.1069
12460TIP3    H158795   5.189   0.010  15.731 -1.5246  0.3901 -1.5575
12460TIP3    H258796   5.152   0.147  15.782 -0.3681  0.2305 -0.2424
12461TIP3   OH258797   4.917   2.027  15.230  0.1228  0.2889 -0.6833
12461TIP3    H158798   4.866   2.082  15.171  0.6760 -1.3718 -2.8365
12461TIP3    H258799   4.937   1.949  15.179  1.1586 -1.0041  1.5372
12462TIP3   OH258800   6.386   0.989   1.222  0.4478  0.2544 -0.1306
12462TIP3    H158801   6.399   1.084   1.226  0.1450  0.3386 -1.0404
12462TIP3    H258802   6.314   0.977   1.161  0.3891 -0.5605  0.0903
12463TIP3   OH258803   2.992   0.958  14.205 -0.0485 -0.0806  0.0294
12463TIP3    H158804   3.018   1.038  14.160  0.7715 -0.1161  0.4049
12463TIP3    H258805   3.073   0.906  14.208 -0.2177 -0.2996  1.0536
12464TIP3   OH258806   2.027   3.122  13.905 -0.0789 -0.6462 -0.3662
12464TIP3    H158807   1.985   3.208  13.913 -0.8112 -0.9878 -0.4207
12464TIP3    H258808   1.969   3.063  13.953  0.5800 -1.0639 -0.0738
12465TIP3   OH258809   6.528   4.851   3.179 -0.1884  0.4748  0.0767
12465TIP3    H158810   6.598   4.801   3.135  0.7065  2.5314 -0.9361
12465TIP3    H258811   6.551   4.845   3.272  1.3013  0.9704 -0.2201
12466TIP3   OH258812   0.800   2.390   6.465  0.5132 -0.6336  0.0845
12466TIP3    H158813   0.785   2.462   6.527  1.7408 -0.0709 -0.2293
12466TIP3    H258814   0.803   2.312   6.519  1.8370 -0.1190  0.8081
12467TIP3   OH258815   5.439   6.472  15.508 -0.5588 -0.4279  0.8307
12467TIP3    H158816   5.515   6.529  15.491 -0.9018  0.0379  0.8469
12467TIP3    H258817   5.435   6.465  15.603  0.7776 -2.2487  0.8069
12468TIP3   OH258818   4.457   3.119  17.110  0.2917 -0.5079  0.5851
12468TIP3    H158819   4.385   3.113  17.172 -0.7594 -0.8573 -0.6260
12468TIP3    H258820   4.425   3.075  17.031  1.3342  0.4791 -0.4362
12469TIP3   OH258821   3.718   1.404  11.063  0.5247 -0.2603 -0.5705
12469TIP3    H158822   3.790   1.438  11.010  0.3546  1.2979  0.1537
12469TIP3    H258823   3.733   1.309  11.066  2.0810 -0.0523 -1.0977
12470TIP3   OH258824   6.775   0.311  11.400  0.3333  0.3125  0.3173
12470TIP3    H158825   6.800   0.398  11.368 -2.4671  1.3740  0.7200
12470TIP3    H258826   6.730   0.271  11.326  1.6504 -0.8608  0.1204
12471TIP3   OH258827   3.812   6.169  14.564 -0.8752  0.1276  0.1412
12471TIP3    H158828   3.716   6.179  14.564 -0.8264  1.1125 -1.8550
12471TIP3    H258829   3.831   6.120  14.484  0.3955  1.7685 -0.6333
12472TIP3   OH258830   6.522   3.304  12.818 -0.4669 -0.1366 -0.1167
12472TIP3    H158831   6.499   3.225  12.768 -0.3719 -0.5025  0.4055
12472TIP3    H258832   6.561   3.270  12.899  0.6497  0.4549 -0.3860
12473TIP3   OH258833   3.972   0.091   0.816  0.4532  0.9570 -0.0234
12473TIP3    H158834   4.029   0.109   0.741  1.6778 -0.6702  0.4655
12473TIP3    H258835   4.028   0.107   0.892 -0.2404  0.8489  0.5120
12474TIP3   OH258836   3.842   2.436   0.520  0.3229 -0.1552 -0.0527
12474TIP3    H158837   3.783   2.458   0.593 -0.1255 -1.8012  0.1184
12474TIP3    H258838   3.838   2.341   0.514  2.4311 -0.2652 -0.5111
12475TIP3   OH258839   0.801   2.938   3.655  0.0338  0.3839  0.0234
12475TIP3    H158840   0.754   2.979   3.728  1.4736 -0.4350  1.4902
12475TIP3    H258841   0.875   2.996   3.638  0.5266 -0.1670  0.2326
12476TIP3   OH258842   6.600   2.718  12.293 -0.0674  0.1551  0.3733
12476TIP3    H158843   6.514   2.708  12.252  0.4439 -0.8845 -0.4726
12476TIP3    H258844   6.635   2.799  12.256 -0.3383  0.1507  0.1068
12477TIP3   OH258845   4.943   3.935   5.704  0.1616  0.1109  0.7637
12477TIP3    H158846   4.920   3.898   5.619  1.1089  2.7530 -0.7840
12477TIP3    H258847   4.899   3.879   5.767 -1.6951 -1.2158 -1.5137
12478TIP3   OH258848   2.077   2.368   4.751 -0.4088  0.3029 -0.8138
12478TIP3    H158849   2.128   2.330   4.680 -0.5110 -0.2915 -0.5730
12478TIP3    H258850   1.987   2.340   4.734 -0.4036 -0.0073 -0.3452
12479TIP3   OH258851   6.069   5.276   4.280 -0.4710  0.0177  0.4219
12479TIP3    H158852   6.044   5.184   4.295 -0.2676 -0.6070 -2.4553
12479TIP3    H258853   6.157   5.283   4.318  0.4035 -1.6630 -1.0691
12480TIP3   OH258854   4.200   1.369  16.122  0.2317 -0.2133  0.2151
12480TIP3    H158855   4.171   1.459  16.136 -0.8286 -0.4554 -0.3081
12480TIP3    H258856   4.273   1.357  16.183  1.6055  1.5655 -0.9826
12481TIP3   OH258857   3.875   5.003  11.141  0.0304 -0.3755  0.0567
12481TIP3    H158858   3.789   5.045  11.146 -0.3555 -1.1859  0.4508
12481TIP3    H258859   3.907   5.024  11.054 -0.3902  0.2757  0.0549
12482TIP3   OH258860   1.839   2.581  11.766 -0.1589  0.3176  0.6625
12482TIP3    H158861   1.819   2.612  11.677 -1.5098 -0.3877  0.7007
12482TIP3    H258862   1.829   2.659  11.821 -0.6172  0.4733  0.3670
12483TIP3   OH258863   3.613   5.671  11.158  0.6048 -0.0535 -0.6608
12483TIP3    H158864   3.539   5.718  11.197 -0.3108 -0.6717 -1.5940
12483TIP3    H258865   3.672   5.739  11.127 -0.0528  0.4683 -0.7794
12484TIP3   OH258866   0.863   5.106   4.649  0.5414  0.0238 -0.1201
12484TIP3    H158867   0.777   5.141   4.671  0.5618 -0.2201  0.3517
12484TIP3    H258868   0.879   5.136   4.560 -0.4357 -0.7055 -0.5588
12485TIP3   OH258869   2.492   6.762   1.006  0.0072  0.2823  0.2020
12485TIP3    H158870   2.506   6.778   1.099  1.1558  1.7494 -0.1964
12485TIP3    H258871   2.440   6.837   0.976 -0.5219 -0.2754 -0.3098
12486TIP3   OH258872   3.429   4.464   5.590  0.2119  0.3019  0.5792
12486TIP3    H158873   3.499   4.495   5.647  0.8811 -2.1971  1.2099
12486TIP3    H258874   3.374   4.541   5.575 -0.0508  1.0834  4.6424
12487TIP3   OH258875   3.847   3.284  16.131  0.2214  0.6033 -0.2344
12487TIP3    H158876   3.927   3.334  16.146  0.0995  1.0566 -1.0276
12487TIP3    H258877   3.782   3.325  16.189  0.0653  1.5316 -1.0309
12488TIP3   OH258878   6.055   3.839  10.493  0.2385  0.0158 -0.1849
12488TIP3    H158879   6.124   3.836  10.559  0.9073 -1.2523 -0.9016
12488TIP3    H258880   6.067   3.925  10.451  1.9331 -0.4785 -0.8271
12489TIP3   OH258881   1.436   3.102   1.903  0.1691 -0.3771 -0.4990
12489TIP3    H158882   1.493   3.054   1.963  0.0012 -0.0129 -0.0432
12489TIP3    H258883   1.385   3.160   1.959  1.5611  1.5833 -1.1669
12490TIP3   OH258884   1.408   3.281   1.015  0.5578 -0.1747 -0.4342
12490TIP3    H158885   1.346   3.256   0.947 -0.3153  0.5919  0.0454
12490TIP3    H258886   1.446   3.363   0.984 -1.9057  1.7250  1.1677
12491TIP3   OH258887   5.904   5.262   0.593  0.3042  0.2119 -0.7691
12491TIP3    H158888   5.911   5.167   0.584 -2.3743 -0.4313  1.9835
12491TIP3    H258889   5.969   5.284   0.660  0.3038  0.1445 -0.7460
12492TIP3   OH258890   1.183   2.680  15.747  0.0092 -0.1889  0.0111
12492TIP3    H158891   1.171   2.772  15.770  0.3810 -0.3293  0.8288
12492TIP3    H258892   1.260   2.653  15.797 -0.1096 -0.9477 -0.1996
12493TIP3   OH258893   1.348   4.018   1.922  0.3554  0.1488 -0.1519
12493TIP3    H158894   1.259   4.039   1.953  0.2179 -1.5602  0.7061
12493TIP3    H258895   1.362   4.078   1.849 -1.6565  0.2060 -0.5449
12494TIP3   OH258896   4.600   0.526  13.136 -0.3590 -0.2768  0.4399
12494TIP3    H158897   4.621   0.443  13.179  0.8737  0.5925  1.6154
12494TIP3    H258898   4.552   0.576  13.202 -1.9501 -0.3784 -0.5852
12495TIP3   OH258899   1.982   2.422   4.413 -0.0751 -0.0447  0.4273
12495TIP3    H158900   1.958   2.394   4.325 -0.9768  0.0317  0.6382
12495TIP3    H258901   1.985   2.342   4.465  2.0297 -0.2991  0.0075
12496TIP3   OH258902   4.298   0.882   3.703  0.4033 -0.5051  0.2256
12496TIP3    H158903   4.217   0.844   3.739  0.1750 -1.3823 -1.1113
12496TIP3    H258904   4.267   0.952   3.645  0.6871  0.0101  0.6912
12497TIP3   OH258905   3.487   6.224  16.943  0.4383 -0.0388 -0.1895
12497TIP3    H158906   3.562   6.283  16.942 -0.6324  1.3841 -0.2360
12497TIP3    H258907   3.483   6.188  16.854  0.5150  0.6314 -0.4702
12498TIP3   OH258908   5.463   3.259  13.352 -0.0282 -0.0919 -0.1147
12498TIP3    H158909   5.496   3.169  13.343  1.3920  0.3589  0.2499
12498TIP3    H258910   5.488   3.301  13.271 -0.7815 -0.0405 -0.3245
12499TIP3   OH258911   5.410   3.938  15.862 -0.3553 -0.1469  0.2305
12499TIP3    H158912   5.341   3.967  15.803 -0.8063  1.2270  1.3986
12499TIP3    H258913   5.365   3.881  15.924 -0.5383  0.9991  1.1824
12500TIP3   OH258914   1.387   2.295  15.750 -0.1898  0.3232 -0.3520
12500TIP3    H158915   1.424   2.206  15.746 -0.3969  0.2403 -0.4188
12500TIP3    H258916   1.449   2.344  15.804  1.3822  0.8614 -2.5307
12501TIP3   OH258917   5.203   5.664  12.447 -0.5171  0.4497 -0.6864
12501TIP3    H158918   5.125   5.644  12.395 -1.7424  0.7513  0.9936
12501TIP3    H258919   5.238   5.744  12.408  0.1135 -0.7120 -2.6686
12502TIP3   OH258920   2.382   4.448  11.452  0.3820 -0.3134  0.4862
12502TIP3    H158921   2.472   4.426  11.477  0.6938 -0.3718 -0.6337
12502TIP3    H258922   2.390   4.481  11.363 -0.7047 -0.2545  0.4037
12503TIP3   OH258923   5.073   5.092  16.653 -0.1457 -0.5456 -0.4070
12503TIP3    H158924   5.014   5.159  16.618 -0.4449 -0.1511  0.8191
12503TIP3    H258925   5.109   5.049  16.575  0.3461  1.2942 -1.2485
12504TIP3   OH258926   6.169   2.330  12.277 -0.5315 -0.4994  0.0676
12504TIP3    H158927   6.210   2.327  12.191 -0.6022 -0.3474  0.0272
12504TIP3    H258928   6.213   2.402  12.322 -0.1641 -0.8915  0.3307
12505TIP3   OH258929   6.653   4.459   0.780 -0.5892 -0.1078  0.4749
12505TIP3    H158930   6.563   4.479   0.755 -0.7281 -0.6265  0.5557
12505TIP3    H258931   6.700   4.542   0.770 -1.0298  0.1119  0.2283
12506TIP3   OH258932   2.324   6.337   1.530 -0.1402 -0.4162 -0.3117
12506TIP3    H158933   2.329   6.338   1.626  0.3026 -0.9726 -0.3237
12506TIP3    H258934   2.233   6.314   1.511 -0.7325  1.5503 -0.0404
12507TIP3   OH258935   3.930   0.944  15.569  0.2193  0.2115 -0.4496
12507TIP3    H158936   3.869   1.003  15.612  1.1100  0.6290  0.2880
12507TIP3    H258937   3.875   0.886  15.517 -0.6864  1.5386 -1.0197
12508TIP3   OH258938   3.461   4.113  13.713  0.0089  0.3793 -0.3034
12508TIP3    H158939   3.468   4.207  13.698  2.2064  0.5092  1.1002
12508TIP3    H258940   3.486   4.073  13.630 -0.0397  1.0269 -0.6330
12509TIP3   OH258941   2.299   0.432   2.676 -0.2660  0.0081  0.7516
12509TIP3    H158942   2.269   0.364   2.615  0.6291 -0.2526  0.5932
12509TIP3    H258943   2.266   0.514   2.638 -2.8604 -0.4248  1.8372
12510TIP3   OH258944   3.239   1.114   5.823  0.4404  0.5759 -0.2761
12510TIP3    H158945   3.237   1.076   5.736  0.9606  0.9834 -0.4748
12510TIP3    H258946   3.172   1.066   5.872  1.1338 -0.6512 -0.4837
12511TIP3   OH258947   1.049   0.655   3.710  0.2287 -0.1224  0.2752
12511TIP3    H158948   1.009   0.569   3.698  0.4383 -0.4427  1.7204
12511TIP3    H258949   1.014   0.708   3.638  0.1678 -1.4292 -0.6785
12512TIP3   OH258950   1.327   3.002   2.992 -0.2127  0.2180 -0.0735
12512TIP3    H158951   1.383   2.925   2.979  0.5632  0.7715 -0.0635
12512TIP3    H258952   1.325   3.015   3.087 -3.2937 -1.9178  0.3139
12513TIP3   OH258953   1.425   6.315   0.685 -0.1302  1.0382  0.0390
12513TIP3    H158954   1.337   6.277   0.686 -0.0335  0.6605 -1.9054
12513TIP3    H258955   1.472   6.268   0.754 -1.1694  0.5320  0.4285
12514TIP3   OH258956   5.204   0.365  13.925 -0.3516  0.2759 -0.1827
12514TIP3    H158957   5.297   0.343  13.912 -0.2133  0.7118  0.0324
12514TIP3    H258958   5.195   0.372  14.020 -0.6124  0.2069 -0.2037
12515TIP3   OH258959   1.692   1.531   0.129  0.0616 -0.0400 -0.1328
12515TIP3    H158960   1.710   1.625   0.132 -0.0548  0.0003 -0.6463
12515TIP3    H258961   1.779   1.490   0.135  0.2571  0.1356 -1.5355
12516TIP3   OH258962   0.855   5.646   2.854  0.5931 -0.0022 -0.0845
12516TIP3    H158963   0.811   5.731   2.867  0.5631 -0.0275 -0.0205
12516TIP3    H258964   0.817   5.589   2.921 -0.9117 -0.6506 -1.4130
12517TIP3   OH258965   0.563   1.211  17.089 -0.2004 -0.1276  0.2092
12517TIP3    H158966   0.552   1.144  17.021  0.7417 -1.3632  1.2157
12517TIP3    H258967   0.601   1.286  17.043  0.0495 -0.7931 -0.7067
12518TIP3   OH258968   0.545   5.492  12.450  0.2582  0.1957  0.1460
12518TIP3    H158969   0.487   5.491  12.374  0.7733 -0.5890 -0.2509
12518TIP3    H258970   0.633   5.503  12.413  0.8988 -3.3482  0.2897
12519TIP3   OH258971   3.233   0.268  14.000  0.2538 -0.1343 -0.0521
12519TIP3    H158972   3.285   0.193  14.031 -0.2330 -0.1810  0.6747
12519TIP3    H258973   3.200   0.241  13.915  1.5341 -0.0480 -0.6000
12520TIP3   OH258974   0.194   6.702   3.471 -0.2271 -0.3585 -0.3379
12520TIP3    H158975   0.198   6.736   3.381  0.8990  0.9167  0.1699
12520TIP3    H258976   0.161   6.612   3.461  1.7664 -0.9589 -2.2345
12521TIP3   OH258977   4.556   5.759  11.621  0.0565  0.2342  0.3941
12521TIP3    H158978   4.549   5.734  11.529 -2.8512 -0.9053  0.8045
12521TIP3    H258979   4.501   5.836  11.629  0.8866  0.7687  1.0650
12522TIP3   OH258980   1.778   5.931  16.027  0.2423 -0.5146 -0.6526
12522TIP3    H158981   1.827   5.875  16.087 -0.5122 -0.5580 -0.0521
12522TIP3    H258982   1.696   5.949  16.073  0.7174  1.6398 -0.5250
12523TIP3   OH258983   0.862   0.678  15.233  1.1794  0.2599  0.5173
12523TIP3    H158984   0.865   0.650  15.324 -0.5918  1.3647  0.9779
12523TIP3    H258985   0.908   0.610  15.184 -1.8729 -2.8706  1.6496
12524TIP3   OH258986   5.053   3.043   5.061  0.3544 -0.2513  0.3974
12524TIP3    H158987   5.047   2.958   5.018  2.4002  0.1120 -0.7839
12524TIP3    H258988   5.136   3.040   5.108  0.6525  1.1942  0.0327
12525TIP3   OH258989   0.272   1.469   4.874 -0.1049  0.1822 -0.6185
12525TIP3    H158990   0.326   1.536   4.918 -0.4623  0.7210 -0.9937
12525TIP3    H258991   0.247   1.509   4.791  0.4122 -0.7618 -1.2519
12526TIP3   OH258992   1.299   5.267  16.423  0.3159  0.4293 -0.3232
12526TIP3    H158993   1.323   5.223  16.504 -0.5138  0.1894 -0.1998
12526TIP3    H258994   1.343   5.351  16.427 -0.4797  0.8133  0.8296
12527TIP3   OH258995   2.775   1.627  17.165  0.2394  0.4188 -0.7819
12527TIP3    H158996   2.709   1.661  17.105  0.4551  1.3784 -0.4996
12527TIP3    H258997   2.853   1.681  17.147  0.4877  0.2981 -0.0786
12528TIP3   OH258998   1.350   2.950   1.702  0.0311 -0.0092 -0.3326
12528TIP3    H158999   1.392   2.993   1.776 -0.4993 -1.8209  1.0973
12528TIP3    H259000   1.258   2.978   1.706  0.0416  0.0366 -0.4126
12529TIP3   OH259001   3.257   2.405  11.683  0.1884 -0.0575 -0.5581
12529TIP3    H159002   3.172   2.418  11.726 -0.3186 -0.8102 -1.3066
12529TIP3    H259003   3.302   2.489  11.693  0.1332 -0.2226  1.5146
12530TIP3   OH259004   5.239   0.685  16.593  0.1363  0.0107  0.2696
12530TIP3    H159005   5.163   0.627  16.586  0.9805 -1.1404  0.1867
12530TIP3    H259006   5.279   0.662  16.677 -0.5142  1.7988  1.1094
12531TIP3   OH259007   3.241   2.748  16.494  0.4986 -0.3461 -0.1898
12531TIP3    H159008   3.215   2.733  16.585  1.9066 -0.7360  0.1725
12531TIP3    H259009   3.224   2.841  16.479  0.4118 -0.2391  0.5225
12532TIP3   OH259010   6.459   2.088  11.654 -0.0336 -0.4040 -0.4514
12532TIP3    H159011   6.375   2.117  11.687  0.4197  1.0767 -0.5147
12532TIP3    H259012   6.488   2.021  11.716 -0.7602 -0.1456  0.1773
12533TIP3   OH259013   4.149   5.360  13.245 -0.1753 -0.3081  0.1860
12533TIP3    H159014   4.176   5.414  13.171  1.6078 -1.6904 -0.2150
12533TIP3    H259015   4.163   5.416  13.322 -0.3331  0.5051 -0.3624
12534TIP3   OH259016   0.929   2.642  15.048  0.1418  0.4877 -0.3840
12534TIP3    H159017   0.923   2.548  15.031 -0.5103  0.7419 -1.6955
12534TIP3    H259018   1.010   2.669  15.005  0.2731  0.5502 -0.1024
12535TIP3   OH259019   4.988   5.662  12.274 -0.3049 -0.2782  0.4307
12535TIP3    H159020   4.972   5.574  12.239 -1.1927 -0.3885  1.1009
12535TIP3    H259021   4.963   5.721  12.203  2.4753 -0.5449 -0.9394
12536TIP3   OH259022   3.536   3.300   0.074 -0.3134 -0.3968 -0.6188
12536TIP3    H159023   3.600   3.239   0.110 -0.4149 -1.2317 -1.8245
12536TIP3    H259024   3.456   3.249   0.065 -1.3452  0.7520  1.2869
12537TIP3   OH259025   6.118   6.193   4.754  0.6474 -0.5860  0.2711
12537TIP3    H159026   6.057   6.223   4.822  0.0405  0.6605 -0.7758
12537TIP3    H259027   6.072   6.209   4.672  1.0296 -2.8114 -0.4571
12538TIP3   OH259028   0.305   6.371  12.801 -0.4436 -0.5064  0.5307
12538TIP3    H159029   0.243   6.315  12.753  0.2308 -2.4146  1.7428
12538TIP3    H259030   0.391   6.347  12.767 -0.0797 -0.8154  1.6087
12539TIP3   OH259031   4.265   0.526   2.658 -0.1734 -0.4553 -0.2372
12539TIP3    H159032   4.207   0.599   2.681  0.1246  0.0752 -1.1123
12539TIP3    H259033   4.205   0.460   2.621 -0.8023 -1.7316  2.7707
12540TIP3   OH259034   6.299   1.257  15.125 -0.1340  0.0208 -0.2734
12540TIP3    H159035   6.331   1.285  15.039 -1.6375  0.2670 -0.7722
12540TIP3    H259036   6.373   1.209  15.163  0.0953 -1.4102 -2.3184
12541TIP3   OH259037   3.974   0.929  10.665  0.7279  0.2190 -0.3375
12541TIP3    H159038   3.932   0.891  10.588 -0.6132 -0.2690  0.5820
12541TIP3    H259039   4.017   0.855  10.708 -2.3419 -0.5923  1.7479
12542TIP3   OH259040   1.950   0.075   2.357 -0.4601 -0.3648 -0.1248
12542TIP3    H159041   1.915   0.115   2.437  0.1100  1.5114 -0.7551
12542TIP3    H259042   1.914   0.129   2.286  1.9867  0.3823 -0.8976
12543TIP3   OH259043   5.387   5.872  13.799 -0.4444 -0.0615 -0.0215
12543TIP3    H159044   5.347   5.933  13.862  0.5713 -1.0769  1.6713
12543TIP3    H259045   5.409   5.928  13.724 -0.1067  1.5719  1.2168
12544TIP3   OH259046   2.745   6.773  16.959 -0.1964  0.2051  0.1417
12544TIP3    H159047   2.703   6.688  16.947 -1.0906  0.4365  1.4120
12544TIP3    H259048   2.711   6.827  16.887 -0.2491 -0.2685 -0.1960
12545TIP3   OH259049   2.385   3.319  15.450  0.3988  0.0511  0.1158
12545TIP3    H159050   2.434   3.241  15.479 -1.0841 -1.6100 -1.5705
12545TIP3    H259051   2.300   3.311  15.491 -0.1567  0.1342 -0.9750
12546TIP3   OH259052   4.277   2.906  11.827 -0.5132 -0.1951 -0.0339
12546TIP3    H159053   4.292   2.847  11.900  0.2722 -0.8437 -0.6965
12546TIP3    H259054   4.192   2.946  11.845 -0.7908 -1.0921  0.7114
12547TIP3   OH259055   0.165   1.073   1.504 -0.3702 -0.0408 -0.0155
12547TIP3    H159056   0.095   1.127   1.468 -0.9194 -0.8870 -0.2515
12547TIP3    H259057   0.233   1.136   1.530 -1.1233  0.7780  0.0252
12548TIP3   OH259058   2.208   3.784   3.898  0.2579  0.3935 -0.5006
12548TIP3    H159059   2.196   3.702   3.850 -3.0801 -0.6663  1.8112
12548TIP3    H259060   2.153   3.847   3.850 -2.2370 -0.4123  1.0857
12549TIP3   OH259061   0.798   0.643   6.147  0.1500  0.3959  0.2450
12549TIP3    H159062   0.744   0.582   6.197  0.3050  0.3201  0.3189
12549TIP3    H259063   0.876   0.593   6.124 -0.2976  0.1572 -0.8118
12550TIP3   OH259064   5.391   4.502   5.117 -0.3784 -0.1101 -0.1452
12550TIP3    H159065   5.338   4.572   5.155 -0.0802 -0.5180  1.0639
12550TIP3    H259066   5.336   4.424   5.124 -0.6770 -0.0339 -1.4145
12551TIP3   OH259067   3.418   4.966   1.871 -0.4531 -0.0102 -0.4345
12551TIP3    H159068   3.478   4.966   1.946 -0.6432 -0.5929 -0.2811
12551TIP3    H259069   3.475   4.978   1.795 -0.0324 -1.4510 -0.3662
12552TIP3   OH259070   1.343   4.957   1.605  0.4811  0.2508 -0.1802
12552TIP3    H159071   1.352   4.881   1.662  3.6149  0.2869 -0.4790
12552TIP3    H259072   1.252   4.986   1.618 -0.0032 -1.9234  1.9379
12553TIP3   OH259073   0.524   5.755  15.311  0.0554 -0.0689 -0.0079
12553TIP3    H159074   0.503   5.770  15.403  2.1547 -4.5192  1.5316
12553TIP3    H259075   0.613   5.790  15.301  0.4085 -0.8731  0.1798
12554TIP3   OH259076   4.321   4.283   3.028 -0.0421  0.0377  0.3884
12554TIP3    H159077   4.236   4.245   3.005  1.0852 -1.5845 -1.3483
12554TIP3    H259078   4.374   4.208   3.056  1.0517  0.9048  0.7139
12555TIP3   OH259079   5.296   2.508  10.528 -0.3990  0.1786 -0.4053
12555TIP3    H159080   5.268   2.552  10.609 -1.1536 -0.5176 -0.2734
12555TIP3    H259081   5.226   2.527  10.465 -1.3902 -1.8195  0.0078
12556TIP3   OH259082   6.258   2.987  13.683 -0.2811 -0.3587 -0.5629
12556TIP3    H159083   6.318   2.939  13.741 -2.0110 -0.9707  0.8093
12556TIP3    H259084   6.186   2.927  13.668 -0.8603  0.5797 -1.6760
12557TIP3   OH259085   6.569   0.832   4.601  0.2985  0.0410  0.3207
12557TIP3    H159086   6.632   0.821   4.530 -0.5641  0.3092 -0.4927
12557TIP3    H259087   6.565   0.746   4.643  1.5400  0.1331  0.6811
12558TIP3   OH259088   6.587   5.491  13.062  0.2346 -0.2667 -0.3486
12558TIP3    H159089   6.676   5.524  13.054  0.5499 -1.3538 -1.9268
12558TIP3    H259090   6.541   5.556  13.115  1.6011  1.0308 -0.6926
12559TIP3   OH259091   3.867   1.842  14.534 -0.6726 -0.5449  0.4922
12559TIP3    H159092   3.839   1.919  14.583 -2.4056 -0.7079 -0.1844
12559TIP3    H259093   3.837   1.768  14.586 -1.8482 -0.7218 -0.3989
12560TIP3   OH259094   4.255   6.561  12.950 -0.2363  0.8390  0.4674
12560TIP3    H159095   4.306   6.604  13.018  1.0701  1.0893 -0.6268
12560TIP3    H259096   4.229   6.477  12.988  0.9637  0.7278  1.0626
12561TIP3   OH259097   0.124   4.271  17.016 -0.3270 -0.4766  0.0838
12561TIP3    H159098   0.079   4.284  17.099 -0.2091  1.4656 -0.0942
12561TIP3    H259099   0.073   4.324  16.953 -0.5034 -2.0132 -1.1218
12562TIP3   OH259100   5.587   2.588   1.705  0.3119  0.6730  0.4692
12562TIP3    H159101   5.559   2.519   1.764  0.2905  0.2642 -0.0135
12562TIP3    H259102   5.608   2.543   1.623  0.3052  1.2330  0.1530
12563TIP3   OH259103   6.141   3.079  11.744  0.5062 -0.4610  0.0614
12563TIP3    H159104   6.081   3.152  11.759 -1.0957 -1.8017  0.5846
12563TIP3    H259105   6.174   3.093  11.655  0.2715  0.8891  0.1631
12564TIP3   OH259106   2.496   1.926   2.979  0.3562 -0.3547 -0.0205
12564TIP3    H159107   2.522   2.001   3.033  1.5291 -1.3683  0.8925
12564TIP3    H259108   2.558   1.926   2.906 -0.7323  0.5519 -0.9669
12565TIP3   OH259109   3.151   3.103   1.817  0.5529  0.2134 -0.7943
12565TIP3    H159110   3.098   3.177   1.788  1.1206  1.1433  0.4193
12565TIP3    H259111   3.234   3.142   1.845 -1.0054  0.1218  5.3399
12566TIP3   OH259112   1.086   1.562   0.789  0.0957  0.3496 -0.9426
12566TIP3    H159113   1.169   1.513   0.792  1.5312  2.5887 -1.4530
12566TIP3    H259114   1.085   1.600   0.701 -0.3691  2.1439 -0.1874
12567TIP3   OH259115   5.622   4.601  12.021 -0.3744 -0.1758  0.3572
12567TIP3    H159116   5.664   4.669  11.969 -1.3094 -0.1202 -0.3477
12567TIP3    H259117   5.551   4.646  12.068 -1.5901 -0.7978 -0.8187
12568TIP3   OH259118   6.183   2.506  14.124  0.6919  0.2875 -0.6412
12568TIP3    H159119   6.093   2.508  14.155  1.2330 -1.3497  1.3253
12568TIP3    H259120   6.197   2.415  14.098  2.4706 -0.2144  1.6849
12569TIP3   OH259121   0.441   6.422  12.215  0.0304 -0.2324  0.1453
12569TIP3    H159122   0.497   6.418  12.138  0.0877  1.8909  0.0030
12569TIP3    H259123   0.368   6.478  12.189 -0.3796 -0.1623  1.3756
12570TIP3   OH259124   0.115   0.503   3.039 -0.5749 -0.2179  0.5572
12570TIP3    H159125   0.057   0.534   2.970 -1.3812 -0.9955  0.8679
12570TIP3    H259126   0.149   0.420   3.006 -1.5322 -0.9607  1.3720
12571TIP3   OH259127   5.333   4.537  15.625 -0.4077 -0.7603  0.0306
12571TIP3    H159128   5.300   4.623  15.599  0.1706  0.0482  1.8506
12571TIP3    H259129   5.400   4.517  15.559 -0.8213 -0.0147 -0.6389
12572TIP3   OH259130   4.871   3.121  12.597 -0.1137 -0.3853 -0.5751
12572TIP3    H159131   4.888   3.201  12.547 -1.7634 -0.1848 -0.8962
12572TIP3    H259132   4.887   3.145  12.688 -2.8933  1.1366 -0.3462
12573TIP3   OH259133   1.221   2.495  12.445  0.1673  0.6866 -0.2186
12573TIP3    H159134   1.184   2.562  12.388 -2.4509 -0.2555  0.2604
12573TIP3    H259135   1.313   2.490  12.419 -0.4248  1.8433 -2.8248
12574TIP3   OH259136   2.407   3.416  14.591  0.4339  0.2069 -0.5318
12574TIP3    H159137   2.482   3.384  14.641  0.5847  1.3066 -0.0263
12574TIP3    H259138   2.332   3.401  14.648  0.4464  0.3137 -0.4861
12575TIP3   OH259139   4.553   4.894   6.285 -0.4191  0.2983 -0.1628
12575TIP3    H159140   4.553   4.828   6.215 -2.4247 -0.2866  0.3038
12575TIP3    H259141   4.598   4.851   6.357  0.1712  0.2527 -0.5553
12576TIP3   OH259142   1.193   2.364  17.113 -0.4881  0.0035  0.2449
12576TIP3    H159143   1.167   2.421  17.185  1.5890  1.4266 -0.0742
12576TIP3    H259144   1.255   2.415  17.062 -1.5055 -1.1454 -2.3263
12577TIP3   OH259145   4.415   5.249   2.909  0.5109  0.2708 -0.9597
12577TIP3    H159146   4.407   5.156   2.929  0.5727  0.4974  0.2253
12577TIP3    H259147   4.495   5.277   2.954  0.2426  0.9860 -0.9079
12578TIP3   OH259148   4.241   4.888   5.565  0.0433 -0.6801  0.3983
12578TIP3    H159149   4.270   4.895   5.474 -0.5116  0.7126  0.3012
12578TIP3    H259150   4.155   4.846   5.559  0.0869 -0.7547  0.2935
12579TIP3   OH259151   5.228   4.138  12.805 -0.0062 -0.2765 -0.0254
12579TIP3    H159152   5.203   4.230  12.798 -2.8361 -0.7423  2.3167
12579TIP3    H259153   5.178   4.094  12.737 -0.4345 -0.3726  0.3513
12580TIP3   OH259154   4.657   5.389  12.593 -0.3343  0.3925  0.4618
12580TIP3    H159155   4.590   5.430  12.647 -0.0000  2.3740 -0.5572
12580TIP3    H259156   4.740   5.420  12.629 -0.0708  0.6183 -0.3263
12581TIP3   OH259157   0.529   6.798   5.302  0.4674 -0.0181 -0.2902
12581TIP3    H159158   0.446   6.823   5.343  0.2980 -4.0609  2.3727
12581TIP3    H259159   0.596   6.832   5.362  0.5050 -0.6190  0.0131
12582TIP3   OH259160   1.826   2.957   6.038  0.1902  0.3458 -0.0746
12582TIP3    H159161   1.786   3.043   6.027 -0.1070  0.3460  0.9704
12582TIP3    H259162   1.911   2.964   5.994 -0.5335  0.6269 -1.5047
12583TIP3   OH259163   6.062   6.774   3.114 -0.3884 -0.2279  0.5785
12583TIP3    H159164   6.016   6.791   3.196 -1.8509 -0.7948 -0.0882
12583TIP3    H259165   6.117   6.852   3.101 -0.9670  0.3610  1.5377
12584TIP3   OH259166   5.997   3.654   4.100 -0.0735  0.1741  0.3055
12584TIP3    H159167   5.908   3.635   4.071 -0.6226  2.5141  0.2663
12584TIP3    H259168   6.045   3.673   4.019 -0.1822  1.2728  0.4870
12585TIP3   OH259169   4.164   1.070  11.056 -0.5779  0.0742 -0.3080
12585TIP3    H159170   4.131   0.980  11.058  1.4263 -0.7295  1.3682
12585TIP3    H259171   4.127   1.111  11.134  0.4050 -0.1100  0.2832
12586TIP3   OH259172   0.649   5.837   4.601 -0.4533  0.7167 -0.7596
12586TIP3    H159173   0.659   5.910   4.661 -2.0178  1.9122 -1.8712
12586TIP3    H259174   0.701   5.862   4.524 -0.0802  0.1284 -0.7024
12587TIP3   OH259175   5.636   3.320   0.464  0.0195  0.0218 -0.7932
12587TIP3    H159176   5.606   3.352   0.549 -0.4735 -0.9664 -0.5901
12587TIP3    H259177   5.585   3.370   0.401 -0.8154 -0.4197 -0.4746
12588TIP3   OH259178   6.252   0.827  12.310 -0.5083  0.0343 -0.0096
12588TIP3    H159179   6.255   0.731  12.315  0.3033 -0.0038 -0.9315
12588TIP3    H259180   6.315   0.849  12.242 -1.8828  1.1358 -0.9658
12589TIP3   OH259181   4.886   6.413  14.234  0.3134 -0.4402  0.4375
12589TIP3    H159182   4.900   6.505  14.213  0.9361 -0.7177 -0.4452
12589TIP3    H259183   4.835   6.380  14.159 -0.6194 -0.6376  1.1358
12590TIP3   OH259184   5.442   5.340  13.110  0.0135 -0.1590 -0.5422
12590TIP3    H159185   5.393   5.422  13.119 -0.2660 -0.2394 -1.3052
12590TIP3    H259186   5.416   5.288  13.186 -0.2810  0.2104 -0.3867
12591TIP3   OH259187   3.170   5.641  11.785  0.5641 -0.0463  0.0594
12591TIP3    H159188   3.224   5.563  11.797 -1.5050 -1.1971  3.3595
12591TIP3    H259189   3.084   5.607  11.759  0.0951  1.2688 -0.2007
12592TIP3   OH259190   0.246   2.283   2.349  0.3942 -0.3529  0.3088
12592TIP3    H159191   0.280   2.359   2.303 -1.5898  0.4187 -0.0040
12592TIP3    H259192   0.323   2.228   2.366  1.5556  0.5949 -1.5389
12593TIP3   OH259193   5.931   1.230   5.431  0.1776  0.2641 -0.4724
12593TIP3    H159194   5.937   1.313   5.478  1.2521 -0.3733  0.5740
12593TIP3    H259195   6.021   1.198   5.425 -0.1035 -0.3435 -1.7653
12594TIP3   OH259196   0.020   5.269  11.041 -0.0147 -0.3008 -0.1868
12594TIP3    H159197   0.104   5.311  11.021  0.2534 -0.8599 -0.2471
12594TIP3    H259198  -0.044   5.320  10.991  0.4412 -0.6335 -1.1490
12595TIP3   OH259199   6.716   1.989   3.758  0.5272  0.2585 -0.3999
12595TIP3    H159200   6.677   2.076   3.768  0.6060  0.2236  0.3304
12595TIP3    H259201   6.670   1.949   3.685  0.2424  0.7847 -0.5084
12596TIP3   OH259202   3.714   5.905  15.357 -0.3184  0.1182  0.2864
12596TIP3    H159203   3.711   5.998  15.381 -0.3650 -0.0013  0.7555
12596TIP3    H259204   3.716   5.905  15.261 -0.5780  0.5979  0.2768
12597TIP3   OH259205   1.717   3.519  13.674  0.1289 -0.1774  0.0551
12597TIP3    H159206   1.750   3.608  13.681 -0.2959  0.0778 -0.9317
12597TIP3    H259207   1.622   3.529  13.663  0.0329 -0.7673  0.2951
12598TIP3   OH259208   3.886   1.732   0.162  1.0671  0.4372 -0.3922
12598TIP3    H159209   3.978   1.720   0.188  1.5225 -1.6988 -2.5590
12598TIP3    H259210   3.888   1.731   0.066 -1.1458  1.2255 -0.5027
12599TIP3   OH259211   5.389   0.915  14.604  0.3178 -0.0180  0.1638
12599TIP3    H159212   5.343   0.835  14.577 -0.4839  0.0906  1.1386
12599TIP3    H259213   5.377   0.975  14.530  0.8418 -0.7477 -0.5341
12600TIP3   OH259214   0.053   5.225   5.317 -0.2400  0.4933  0.3033
12600TIP3    H159215   0.129   5.166   5.326  0.3799  1.0268 -1.0815
12600TIP3    H259216  -0.014   5.171   5.275 -0.3740  0.2265  0.8542
12601TIP3   OH259217   2.009   4.778   3.672  0.5180  0.0728 -0.3564
12601TIP3    H159218   1.948   4.754   3.603  0.0933  2.0162 -0.7227
12601TIP3    H259219   1.981   4.865   3.700  2.9660  0.9705 -0.4014
12602TIP3   OH259220   1.554   1.217  14.756 -0.2034  0.2622  0.4697
12602TIP3    H159221   1.549   1.183  14.846  0.6308 -0.3251  0.3006
12602TIP3    H259222   1.481   1.174  14.711  0.2845 -0.6225  0.4929
12603TIP3   OH259223   3.260   1.622  13.389  0.1101  0.1613  0.9511
12603TIP3    H159224   3.198   1.550  13.399 -0.5643  0.4755 -0.6268
12603TIP3    H259225   3.208   1.701  13.405  0.0925  0.4197 -0.2421
12604TIP3   OH259226   3.963   2.269   4.884 -0.5098 -0.1179  0.1174
12604TIP3    H159227   3.926   2.220   4.957 -1.2125  0.9121  0.4756
12604TIP3    H259228   3.942   2.360   4.903 -1.3519  0.1159 -1.7278
12605TIP3   OH259229   5.157   0.254   0.663  0.5598 -0.3311  0.3810
12605TIP3    H159230   5.190   0.305   0.589 -1.5806  0.5955  0.0047
12605TIP3    H259231   5.084   0.306   0.697  0.3414 -1.6380  2.0029
12606TIP3   OH259232   1.755   1.716   2.159  0.4825 -0.1006 -0.4245
12606TIP3    H159233   1.850   1.712   2.147  0.8980  1.1902  1.7550
12606TIP3    H259234   1.734   1.809   2.153 -0.2999 -0.1492  1.0835
12607TIP3   OH259235   3.757   4.598  16.937 -0.4213  0.4427  0.3342
12607TIP3    H159236   3.725   4.654  17.008 -0.6502  1.5024 -0.5636
12607TIP3    H259237   3.751   4.509  16.972 -2.5638  0.7402  0.8959
12608TIP3   OH259238   0.283   5.558   4.176  0.6835  0.0647 -0.4183
12608TIP3    H159239   0.202   5.586   4.217  0.2142 -0.0822 -1.2194
12608TIP3    H259240   0.316   5.637   4.131  1.2039  0.2313  0.2470
12609TIP3   OH259241   5.177   0.016  12.279 -0.0281 -0.3581  0.7235
12609TIP3    H159242   5.086   0.010  12.249 -0.5171 -1.6524  2.3173
12609TIP3    H259243   5.171   0.054  12.367  1.1842  1.4580  0.0760
12610TIP3   OH259244   6.491   4.452   3.002 -0.3218 -0.1035 -0.1839
12610TIP3    H159245   6.403   4.438   2.968 -0.1131 -0.6190 -0.5373
12610TIP3    H259246   6.483   4.442   3.097 -0.4559 -1.1984 -0.3033
12611TIP3   OH259247   6.631   1.067   4.735  0.1054  0.3304 -0.1988
12611TIP3    H159248   6.610   0.975   4.718  0.0094  0.2593  0.2794
12611TIP3    H259249   6.699   1.089   4.671 -0.1748  0.0533 -0.5988
12612TIP3   OH259250   6.383   3.285  14.029  0.2705 -0.5584  0.1867
12612TIP3    H159251   6.419   3.206  13.989 -0.4954 -1.3667  1.0629
12612TIP3    H259252   6.390   3.270  14.123 -0.4247  0.1571  0.3622
12613TIP3   OH259253   2.320   2.267  11.630 -0.1492  0.0683 -0.1216
12613TIP3    H159254   2.403   2.251  11.584  0.0172 -1.0787  0.5456
12613TIP3    H259255   2.279   2.181  11.636 -1.5651  0.6640 -0.7314
12614TIP3   OH259256   6.548   6.186  17.065  0.2475  0.1652 -0.4196
12614TIP3    H159257   6.483   6.249  17.033  0.3914  0.6833  0.2872
12614TIP3    H259258   6.539   6.189  17.160  2.1970  1.2165 -0.2287
12615TIP3   OH259259   1.296   5.706  16.588  0.0302 -0.6543 -0.0884
12615TIP3    H159260   1.335   5.712  16.675 -0.4384 -0.5656  0.1143
12615TIP3    H259261   1.207   5.739  16.599  0.6431  1.5254 -1.0623
12616TIP3   OH259262   0.079   4.985  11.828  0.2634 -0.5158 -0.0496
12616TIP3    H159263   0.145   5.038  11.872 -2.2214  0.9909  2.1856
12616TIP3    H259264   0.060   4.914  11.889 -1.5892  0.2698  0.3690
12617TIP3   OH259265   3.625   4.302   6.178  0.0539  0.0201 -0.8339
12617TIP3    H159266   3.634   4.213   6.213  0.6837  0.4949  0.2726
12617TIP3    H259267   3.657   4.295   6.088  0.2296 -0.8513 -0.7169
12618TIP3   OH259268   6.632   3.307  16.313  0.1330 -0.2079 -0.0145
12618TIP3    H159269   6.544   3.279  16.337  0.1514 -0.1769  0.0914
12618TIP3    H259270   6.681   3.226  16.301 -0.2868 -0.2631 -1.5400
12619TIP3   OH259271   6.467   2.613  14.856  0.7222 -0.7516 -0.0270
12619TIP3    H159272   6.491   2.606  14.949 -1.9933  0.0278  0.8243
12619TIP3    H259273   6.504   2.534  14.816  0.7625 -1.8302  1.9968
12620TIP3   OH259274   0.996   5.987   4.659  0.4840 -0.1722  0.5567
12620TIP3    H159275   0.952   6.059   4.705  1.4850 -0.9696  2.8951
12620TIP3    H259276   1.087   5.993   4.688  0.6790 -2.0758  0.4099
12621TIP3   OH259277   3.895   2.874  14.423 -0.1148  0.0490 -0.7183
12621TIP3    H159278   3.799   2.882  14.425 -0.1102  0.0165 -0.2799
12621TIP3    H259279   3.916   2.814  14.495  0.3177  0.9836 -0.0460
12622TIP3   OH259280   4.380   0.639  16.658  0.1114  0.1522 -0.2263
12622TIP3    H159281   4.331   0.575  16.709  0.1410 -0.0181 -0.4124
12622TIP3    H259282   4.324   0.717  16.657  0.6451  0.5651  1.0916
12623TIP3   OH259283   6.268   2.303  15.102 -0.4070  0.5333 -0.0834
12623TIP3    H159284   6.275   2.395  15.125 -1.0030  0.5592  0.0129
12623TIP3    H259285   6.255   2.302  15.007  0.2047  0.5126 -0.1742
12624TIP3   OH259286   0.015   2.648   6.290 -0.0613 -0.1945  0.2715
12624TIP3    H159287   0.070   2.572   6.271  1.2380  0.7718  0.0157
12624TIP3    H259288   0.013   2.652   6.386  1.2517  0.3760  0.3022
12625TIP3   OH259289   3.694   2.605  14.103  0.0299 -0.2896 -0.0612
12625TIP3    H159290   3.630   2.590  14.173  0.6374  1.0378  0.8256
12625TIP3    H259291   3.711   2.518  14.067 -0.6157 -0.9562  1.1589
12626TIP3   OH259292   1.756   1.223   0.957 -0.1937  0.1887  0.1483
12626TIP3    H159293   1.808   1.163   1.011 -0.3974 -1.0279 -0.9445
12626TIP3    H259294   1.719   1.167   0.889  0.3209  1.6982 -1.4511
12627TIP3   OH259295   0.540   3.754   3.777  0.5640 -0.7671  0.2704
12627TIP3    H159296   0.592   3.727   3.854 -2.7169  1.7628  3.7437
12627TIP3    H259297   0.566   3.845   3.762  1.5020 -1.3664 -2.1046
12628TIP3   OH259298   5.947   6.035  13.555 -0.3410  0.0181 -0.1975
12628TIP3    H159299   5.860   6.050  13.591 -0.6986  1.2545 -1.5225
12628TIP3    H259300   5.945   6.072  13.467  1.5132  0.0463 -0.2832
12629TIP3   OH259301   6.405   3.803   3.346  0.2313  0.4607  0.5501
12629TIP3    H159302   6.417   3.895   3.325 -0.2250  1.0018  2.4878
12629TIP3    H259303   6.365   3.766   3.267 -1.2828  2.3251  0.3595
12630TIP3   OH259304   4.937   2.572  16.665  0.1472  0.0815 -0.0389
12630TIP3    H159305   4.943   2.648  16.607 -0.3217 -0.7150 -1.1533
12630TIP3    H259306   5.025   2.565  16.703  0.6133  0.3293 -1.0335
12631TIP3   OH259307   4.414   0.868  13.882 -0.3062  0.3647 -0.3559
12631TIP3    H159308   4.491   0.925  13.870  0.5516 -0.3598  1.2885
12631TIP3    H259309   4.343   0.928  13.903  0.6283  0.9042  1.5667
12632TIP3   OH259310   6.208   5.958  15.731  0.3801 -0.8000  0.2281
12632TIP3    H159311   6.290   5.972  15.684  0.9540 -0.2927  1.3307
12632TIP3    H259312   6.162   6.041  15.724  0.0688 -1.0082 -0.1880
12633TIP3   OH259313   5.989   4.973  11.206  0.3898 -0.1963  0.4012
12633TIP3    H159314   6.027   5.056  11.235 -0.3366  0.3778 -0.2626
12633TIP3    H259315   6.026   4.958  11.120 -0.2510 -0.0336  0.0877
12634TIP3   OH259316   4.147   3.381  10.535  0.4053  0.1336  0.2948
12634TIP3    H159317   4.169   3.290  10.514  0.1745  0.1145  0.1284
12634TIP3    H259318   4.063   3.396  10.492  0.3234  0.3510  0.5247
12635TIP3   OH259319   0.132   2.076  13.696  0.5730 -0.0159 -0.7137
12635TIP3    H159320   0.181   2.060  13.777  0.3693  0.5168 -0.4798
12635TIP3    H259321   0.184   2.140  13.649  0.4233  0.0767 -0.7549
12636TIP3   OH259322   0.596   0.717   5.166  0.2301  0.1450 -0.2264
12636TIP3    H159323   0.621   0.708   5.074 -0.3530  0.7449 -0.4552
12636TIP3    H259324   0.597   0.812   5.182  1.0195  0.0070  0.5868
12637TIP3   OH259325   0.526   5.867   1.772 -0.2987  0.5776 -0.3782
12637TIP3    H159326   0.551   5.794   1.829  0.4415 -0.3273 -1.8052
12637TIP3    H259327   0.609   5.909   1.748 -0.7282  2.0648  0.6024
12638TIP3   OH259328   1.019   1.404  16.392  0.2656 -0.7187 -0.4799
12638TIP3    H159329   1.065   1.370  16.468  2.4507  0.3361 -1.2313
12638TIP3    H259330   1.023   1.334  16.327  0.5692 -0.7448 -0.4334
12639TIP3   OH259331   5.311   0.518   2.195  0.1127 -0.0305  0.2171
12639TIP3    H159332   5.348   0.605   2.178 -0.2154 -0.1122 -1.0367
12639TIP3    H259333   5.380   0.457   2.171  0.0296 -0.1316  0.2336
12640TIP3   OH259334   6.545   0.295   0.696 -0.4142 -0.2771  1.0594
12640TIP3    H159335   6.474   0.354   0.720 -0.1873 -0.0720  1.2287
12640TIP3    H259336   6.607   0.350   0.649 -1.2552 -0.8334 -0.8133
12641TIP3   OH259337   1.923   5.951  11.160  0.1539 -0.1667 -0.0342
12641TIP3    H159338   1.887   5.893  11.093 -3.5625 -0.2486  1.7734
12641TIP3    H259339   1.933   5.895  11.237 -0.8646  0.9786  0.9634
12642TIP3   OH259340   2.286   3.929   3.557  0.0925  0.0053  0.4598
12642TIP3    H159341   2.196   3.949   3.583 -0.7890 -2.8066 -0.0405
12642TIP3    H259342   2.338   3.940   3.636 -1.2342 -1.1679  1.5334
12643TIP3   OH259343   3.142   3.441  12.925 -0.2635  0.0056  0.1712
12643TIP3    H159344   3.198   3.503  12.972 -1.2815  1.1831 -0.1308
12643TIP3    H259345   3.146   3.361  12.978  2.0496 -0.1308 -0.0852
12644TIP3   OH259346   0.273   2.460   6.232 -0.5251  0.3652  0.5991
12644TIP3    H159347   0.310   2.383   6.275 -0.7532  0.6011  1.2277
12644TIP3    H259348   0.317   2.534   6.274 -2.1204  0.6791  1.8091
12645TIP3   OH259349   2.821   3.799   5.560  0.2149  0.0847 -0.4348
12645TIP3    H159350   2.913   3.808   5.584  0.5698 -4.8473  1.2210
12645TIP3    H259351   2.773   3.814   5.642  0.0093 -1.6095 -0.2139
12646TIP3   OH259352   6.544   1.204  11.338 -0.1640  0.2634  1.0497
12646TIP3    H159353   6.610   1.163  11.282  2.0529  1.3816  2.6927
12646TIP3    H259354   6.528   1.289  11.298 -0.3551  0.1265  0.8343
12647TIP3   OH259355   2.391   5.699  12.730 -0.2337  0.5599 -0.9116
12647TIP3    H159356   2.479   5.731  12.751 -0.3334  1.0390 -1.1891
12647TIP3    H259357   2.336   5.730  12.802 -0.0471 -0.4113 -0.3332
12648TIP3   OH259358   3.160   4.179   6.544 -0.6105  0.3406 -0.5721
12648TIP3    H159359   3.083   4.182   6.486 -0.3147  2.4178 -0.9288
12648TIP3    H259360   3.210   4.257   6.521  0.4062  0.2907  1.3108
12649TIP3   OH259361   4.570   3.074  12.262 -0.2515 -0.1403  0.0261
12649TIP3    H159362   4.569   3.053  12.168  0.0151  0.5349 -0.1328
12649TIP3    H259363   4.494   3.028  12.297 -0.5155 -0.1781 -0.5752
12650TIP3   OH259364   6.207   5.448   4.898 -0.0914 -0.5047  0.3763
12650TIP3    H159365   6.153   5.499   4.837  0.4023 -0.9600 -0.4688
12650TIP3    H259366   6.192   5.488   4.983 -1.3391 -0.2748  0.0724
12651TIP3   OH259367   6.467   3.383  10.622  0.0468 -0.3499 -0.2063
12651TIP3    H159368   6.533   3.317  10.601 -0.7532 -1.2680  0.1372
12651TIP3    H259369   6.506   3.465  10.592  2.7924 -0.3031  2.9138
12652TIP3   OH259370   1.624   0.729  14.063  0.2233  0.2395  0.4226
12652TIP3    H159371   1.605   0.821  14.043 -0.5258  0.1699  0.7576
12652TIP3    H259372   1.540   0.684  14.050  0.7881 -0.5521 -0.5627
12653TIP3   OH259373   5.686   6.597   2.707  0.6745  0.2033  0.5294
12653TIP3    H159374   5.624   6.528   2.731 -0.6681  0.8010 -0.9707
12653TIP3    H259375   5.741   6.558   2.639  0.1158  0.4690 -0.0969
12654TIP3   OH259376   4.338   3.166  14.251  0.3120 -0.1284 -0.1009
12654TIP3    H159377   4.318   3.100  14.184  0.5571 -0.1305 -0.1717
12654TIP3    H259378   4.264   3.161  14.311 -2.4980  3.1699 -2.8586
12655TIP3   OH259379   3.846   1.201   3.821 -0.4956  0.3379  0.4390
12655TIP3    H159380   3.917   1.145   3.854 -1.5844 -1.3902  0.0263
12655TIP3    H259381   3.766   1.157   3.851 -1.4072  2.1480  0.7638
12656TIP3   OH259382   6.723   4.597  15.009 -0.2514  0.5472 -0.3131
12656TIP3    H159383   6.714   4.692  14.998  2.7712  1.0620  0.5348
12656TIP3    H259384   6.791   4.572  14.946 -2.5701 -1.5846 -2.1946
12657TIP3   OH259385   6.576   6.646   3.786 -0.7880  0.1089 -0.7938
12657TIP3    H159386   6.543   6.629   3.698  0.0755 -0.8484 -0.9553
12657TIP3    H259387   6.658   6.596   3.791 -0.6927  0.3524  0.4661
12658TIP3   OH259388   6.078   1.921   1.654  0.5061  0.0036  0.1594
12658TIP3    H159389   6.118   1.860   1.716  0.1064  0.0548  0.4754
12658TIP3    H259390   5.984   1.917   1.674 -0.0304 -2.0439 -2.2255
12659TIP3   OH259391   5.202   1.712  10.936 -0.6816  0.0978 -0.5663
12659TIP3    H159392   5.225   1.760  10.856  0.4069  2.1796  0.9042
12659TIP3    H259393   5.277   1.723  10.994 -1.1808 -1.8866  0.5666
12660TIP3   OH259394   4.320   4.775   3.376  0.5779 -0.6146  0.0913
12660TIP3    H159395   4.289   4.820   3.454 -1.2003  0.9761 -1.4340
12660TIP3    H259396   4.248   4.718   3.351  1.7780 -2.3654  0.4902
12661TIP3   OH259397   0.496   6.177   3.913 -0.1313 -0.4592 -0.5998
12661TIP3    H159398   0.493   6.225   3.830  0.4337 -0.4526 -0.6195
12661TIP3    H259399   0.404   6.159   3.934 -0.6141  2.6496  0.5819
12662TIP3   OH259400   6.324   1.046  11.414  0.1564 -0.0293 -0.4451
12662TIP3    H159401   6.381   0.978  11.450  0.0808  0.3235  0.3433
12662TIP3    H259402   6.381   1.122  11.403 -0.0492  0.1667 -0.1467
12663TIP3   OH259403   0.127   4.919   1.726  0.0442  0.4653 -0.5185
12663TIP3    H159404   0.126   4.847   1.662  1.9635  0.3425 -0.4910
12663TIP3    H259405   0.132   4.998   1.672 -0.4361  0.4850 -0.5351
12664TIP3   OH259406   4.446   6.498   6.508 -0.4282  0.2120  0.3973
12664TIP3    H159407   4.414   6.536   6.426  1.8371  1.7172  0.1028
12664TIP3    H259408   4.398   6.545   6.577 -0.3896  0.9262 -0.0458
12665TIP3   OH259409   2.151   5.316   4.867  0.0836  0.2915 -0.6110
12665TIP3    H159410   2.107   5.397   4.891  0.2876  0.4086 -0.6342
12665TIP3    H259411   2.165   5.271   4.950  1.0522  0.8299 -0.4776
12666TIP3   OH259412   2.105   2.646   4.666 -0.2183  0.1616 -0.2730
12666TIP3    H159413   2.058   2.669   4.586 -1.2391 -1.2758 -0.1353
12666TIP3    H259414   2.092   2.551   4.674  1.3972 -0.0133  0.6319
12667TIP3   OH259415   5.268   0.470   3.934  0.5506  0.4276  0.0055
12667TIP3    H159416   5.227   0.383   3.926  1.3510 -0.0803  1.1277
12667TIP3    H259417   5.297   0.474   4.025  2.4302  1.0102 -0.5767
12668TIP3   OH259418   3.290   3.488  12.446 -0.4378 -0.7203 -0.0220
12668TIP3    H159419   3.319   3.578  12.432 -0.7237 -0.3127  1.7166
12668TIP3    H259420   3.260   3.459  12.360 -1.2626  1.1901 -0.4387
12669TIP3   OH259421   1.970   4.390  13.571 -0.9421  0.3070  0.1353
12669TIP3    H159422   2.039   4.355  13.627 -0.7706 -2.4428 -1.6103
12669TIP3    H259423   1.889   4.373  13.619 -0.6148  2.5437  1.6832
12670TIP3   OH259424   6.716   3.899  15.011  0.1944  0.1025 -0.5095
12670TIP3    H159425   6.718   3.810  15.046  0.9800 -0.1940 -1.2650
12670TIP3    H259426   6.797   3.907  14.960  0.2275  1.3124 -0.3091
12671TIP3   OH259427   3.466   1.673  11.364  0.4862  0.0197  0.6872
12671TIP3    H159428   3.372   1.655  11.359  0.8849 -2.2359 -0.2161
12671TIP3    H259429   3.498   1.611  11.430  1.3635  0.6965  0.9165
12672TIP3   OH259430   5.308   4.356  10.634  0.0007  0.1891  0.6144
12672TIP3    H159431   5.319   4.418  10.562  0.4189 -2.0633 -1.3830
12672TIP3    H259432   5.390   4.307  10.636 -1.6203 -2.8299 -0.5069
12673TIP3   OH259433   1.991   5.990   4.110  0.0392  0.4297  0.4365
12673TIP3    H159434   2.084   5.968   4.113  0.3921  1.8843  2.7513
12673TIP3    H259435   1.948   5.909   4.083  1.8891 -0.5843  0.3628
12674TIP3   OH259436   6.768   4.662   0.449  0.2509 -0.6086 -0.2368
12674TIP3    H159437   6.758   4.685   0.541 -1.0360 -0.9526 -0.2728
12674TIP3    H259438   6.823   4.732   0.413  1.2303 -0.7699  0.8978
12675TIP3   OH259439   3.056   6.105  12.890 -0.0847 -0.2258 -0.3626
12675TIP3    H159440   3.031   6.155  12.968  1.1099 -0.0454 -0.0809
12675TIP3    H259441   3.151   6.102  12.892 -0.0829 -1.6492 -0.9311
12676TIP3   OH259442   0.011   5.677   2.556 -0.0068  0.2516 -0.7056
12676TIP3    H159443  -0.056   5.708   2.617  1.4510  1.8727  0.1928
12676TIP3    H259444  -0.001   5.583   2.552 -0.9060  0.2392  1.2105
12677TIP3   OH259445   2.895   3.987   4.388  0.3744 -0.2242 -0.2076
12677TIP3    H159446   2.934   4.012   4.304  0.5267 -0.6901 -0.2800
12677TIP3    H259447   2.971   3.971   4.445  0.2733  1.0974  0.3322
12678TIP3   OH259448   0.152   3.922   1.602 -0.2687 -0.6286 -0.0775
12678TIP3    H159449   0.090   3.869   1.654 -2.7934  1.2751 -0.9421
12678TIP3    H259450   0.176   3.866   1.528  1.1780 -2.3411  1.5846
12679TIP3   OH259451   6.480   5.577   3.157  0.0106  0.4140 -0.4693
12679TIP3    H159452   6.477   5.528   3.074 -1.7415  0.3608 -0.4079
12679TIP3    H259453   6.409   5.539   3.209  0.2516  1.3460  0.5607
12680TIP3   OH259454   2.262   3.302  14.835  0.0233  0.0377  0.0234
12680TIP3    H159455   2.328   3.233  14.835 -1.1760 -1.1669 -0.2250
12680TIP3    H259456   2.183   3.260  14.869 -0.8607  1.1743 -0.5335
12681TIP3   OH259457   2.504   5.994  11.691 -0.5692 -0.0642  0.2544
12681TIP3    H159458   2.539   5.913  11.729 -1.1420 -1.0571 -1.2445
12681TIP3    H259459   2.468   5.967  11.607 -1.5382  1.6163  0.0937
12682TIP3   OH259460   4.003   6.305  13.298  0.4451  0.3997  0.1882
12682TIP3    H159461   3.949   6.358  13.356 -0.4321 -0.8496  0.5504
12682TIP3    H259462   4.093   6.334  13.315 -0.0098  1.8839  0.2183
12683TIP3   OH259463   4.668   4.601   1.855  0.0934  0.5365 -0.4566
12683TIP3    H159464   4.744   4.569   1.807  0.3218  1.0115 -0.4100
12683TIP3    H259465   4.617   4.649   1.789 -0.3516 -0.0770 -0.5741
12684TIP3   OH259466   2.036   1.089  12.773  0.5190 -0.3945 -0.5113
12684TIP3    H159467   2.071   1.178  12.782 -0.3272 -0.0892 -0.0504
12684TIP3    H259468   2.003   1.068  12.860 -1.2250 -0.3048 -1.1183
12685TIP3   OH259469   3.606   3.309   4.034 -0.0375  0.1332 -0.1693
12685TIP3    H159470   3.566   3.307   3.947 -0.5703  0.8324  0.0535
12685TIP3    H259471   3.695   3.342   4.018 -0.2960  0.7412 -0.3950
12686TIP3   OH259472   1.449   5.255   2.185 -0.4176  0.4990 -1.0791
12686TIP3    H159473   1.451   5.165   2.218 -0.0279  0.7795 -0.3082
12686TIP3    H259474   1.357   5.271   2.165 -0.2816 -0.6297 -2.8458
12687TIP3   OH259475   4.993   4.910   4.927 -0.0503 -0.1449  0.3608
12687TIP3    H159476   5.065   4.882   4.871 -1.0093  0.3141 -1.1414
12687TIP3    H259477   4.952   4.828   4.956  1.3669 -0.4322  1.6907
12688TIP3   OH259478   4.727   6.090  15.271  0.2454  0.2985 -0.1586
12688TIP3    H159479   4.733   6.146  15.193  2.5677 -0.8036 -0.8620
12688TIP3    H259480   4.752   6.003  15.240 -1.5892 -0.8247  1.2643
12689TIP3   OH259481   5.969   5.258   3.122 -0.6249  0.0526 -0.7584
12689TIP3    H159482   6.006   5.196   3.059 -2.8228 -0.8497 -1.2883
12689TIP3    H259483   5.920   5.320   3.068 -0.1731  1.0011 -0.0965
12690TIP3   OH259484   0.352   0.500   6.490  0.2562 -0.1320  0.2675
12690TIP3    H159485   0.269   0.452   6.497  0.0071  0.1690 -0.5553
12690TIP3    H259486   0.327   0.592   6.495  0.1665  0.1121 -2.8546
12691TIP3   OH259487   0.845   1.166  13.637  0.5143 -0.2838  0.7132
12691TIP3    H159488   0.766   1.172  13.691 -0.2222  0.9457 -0.4095
12691TIP3    H259489   0.825   1.096  13.574 -2.0507  3.2291 -2.9269
12692TIP3   OH259490   4.942   0.120  13.361  0.3714  0.2916 -0.0677
12692TIP3    H159491   4.941   0.072  13.444 -1.3252 -1.1220 -0.8465
12692TIP3    H259492   5.023   0.172  13.365  1.7280 -1.7684  1.3123
12693TIP3   OH259493   2.971   3.316   1.782 -0.3619 -0.1545 -0.0727
12693TIP3    H159494   2.944   3.350   1.697  0.2008 -0.1230 -0.2382
12693TIP3    H259495   2.892   3.274   1.817 -1.1079  1.3383  0.1573
12694TIP3   OH259496   1.050   6.194  13.577 -0.0466 -0.4586 -0.5422
12694TIP3    H159497   0.975   6.138  13.555  1.0686 -1.3731 -2.1886
12694TIP3    H259498   1.019   6.283  13.561 -1.3503 -0.6531  0.6285
12695TIP3   OH259499   6.420   2.309   2.083 -0.2124  0.7027 -0.0367
12695TIP3    H159500   6.441   2.218   2.062  0.6602  0.6631  0.9006
12695TIP3    H259501   6.466   2.325   2.165  0.6090  2.3293 -0.7642
12696TIP3   OH259502   1.842   3.075   6.599 -0.1564  0.5374 -0.3083
12696TIP3    H159503   1.800   3.143   6.651 -0.5460  0.8508 -1.0155
12696TIP3    H259504   1.770   3.020   6.569  0.0587  0.3914 -0.5602
12697TIP3   OH259505   0.123   0.547   2.503  0.1978 -0.3829 -0.5610
12697TIP3    H159506   0.070   0.486   2.554 -1.1092  2.0830  1.2215
12697TIP3    H259507   0.167   0.601   2.569 -0.1818  1.8005 -1.9883
12698TIP3   OH259508   0.525   5.077  16.816  0.4442 -0.0268  0.2628
12698TIP3    H159509   0.451   5.034  16.859 -0.5167  1.7704  0.4959
12698TIP3    H259510   0.486   5.128  16.746  1.6523 -0.2100 -0.5826
12699TIP3   OH259511   6.066   0.147  11.828  0.5000  0.2572  0.3224
12699TIP3    H159512   6.063   0.242  11.824 -0.5338  0.2113 -1.3869
12699TIP3    H259513   5.974   0.121  11.841  0.6279 -0.4939 -0.1803
12700TIP3   OH259514   2.068   3.847   6.239 -0.3872  0.8684  0.5193
12700TIP3    H159515   2.018   3.780   6.286 -0.6287  1.3071  0.9038
12700TIP3    H259516   2.142   3.801   6.202 -0.1865  0.5028  1.3439
12701TIP3   OH259517   2.849   2.585   2.762 -0.7159 -0.2362  0.0143
12701TIP3    H159518   2.863   2.673   2.795 -0.8585 -0.4671  0.7125
12701TIP3    H259519   2.926   2.567   2.708  0.0445 -0.2325  1.0627
12702TIP3   OH259520   0.351   3.787   5.823  0.2113  0.5584 -0.3039
12702TIP3    H159521   0.382   3.848   5.891  0.0006 -0.5317  0.8176
12702TIP3    H259522   0.288   3.731   5.869 -0.4094  0.1912 -1.5769
12703TIP3   OH259523   0.861   2.817   1.596 -0.2881 -0.1228 -0.5653
12703TIP3    H159524   0.857   2.904   1.557 -1.2390  0.0114 -0.1718
12703TIP3    H259525   0.946   2.783   1.567 -0.0140  0.8265 -0.9303
12704TIP3   OH259526   1.758   2.002   1.844 -0.0360  0.4690  0.5180
12704TIP3    H159527   1.784   1.997   1.752  0.3720 -0.9813  0.6694
12704TIP3    H259528   1.673   2.044   1.843 -0.2118  0.1302 -0.5745
12705TIP3   OH259529   2.515   3.721  11.671  0.4615 -0.1426  0.1624
12705TIP3    H159530   2.562   3.804  11.681 -0.1883  0.0466  1.9062
12705TIP3    H259531   2.446   3.741  11.608  1.4670  0.0983 -0.9072
12706TIP3   OH259532   4.587   6.327  12.073 -0.5837  0.4722 -0.2448
12706TIP3    H159533   4.650   6.395  12.098 -0.4793  0.9952 -1.8343
12706TIP3    H259534   4.601   6.315  11.979 -2.6441  0.3683 -0.5713
12707TIP3   OH259535   5.732   0.552   6.588 -0.0375 -0.1092 -0.4100
12707TIP3    H159536   5.678   0.609   6.534 -1.1856 -0.4491  0.3344
12707TIP3    H259537   5.669   0.493   6.631  0.9851 -0.9424 -0.0103
12708TIP3   OH259538   2.066   6.071  11.511 -0.3172 -0.1052  0.0033
12708TIP3    H159539   2.014   5.991  11.521  3.2721 -2.4590  2.3286
12708TIP3    H259540   2.013   6.140  11.552 -3.2864 -1.2804 -1.5666
12709TIP3   OH259541   0.698   1.693   5.935 -0.6155 -0.3674 -0.2158
12709TIP3    H159542   0.654   1.667   6.016  0.6923  0.7227  0.8973
12709TIP3    H259543   0.717   1.786   5.947  1.5880 -0.6860 -0.7977
12710TIP3   OH259544   0.022   5.367   2.356 -0.1973  0.0933  0.1823
12710TIP3    H159545   0.072   5.309   2.414 -1.2024 -2.0583 -0.9676
12710TIP3    H259546  -0.065   5.370   2.396 -1.0841 -1.9311 -1.4489
12711TIP3   OH259547   1.995   4.968   4.988 -0.1437  0.1144 -0.3919
12711TIP3    H159548   1.950   4.891   4.955  1.8945 -2.0710  1.5377
12711TIP3    H259549   1.950   4.991   5.069  0.3603 -0.2237 -0.0081
12712TIP3   OH259550   5.726   0.081   3.652  0.3853  0.4190  0.2270
12712TIP3    H159551   5.812   0.123   3.653  0.1292  0.9619  1.2394
12712TIP3    H259552   5.686   0.107   3.735 -1.8882  2.5704 -1.4075
12713TIP3   OH259553   5.717   0.353  14.413 -0.4641  0.4642 -0.3839
12713TIP3    H159554   5.748   0.398  14.334 -0.3526  0.1214 -0.5332
12713TIP3    H259555   5.622   0.348  14.401 -0.4252  0.2233 -0.5948
12714TIP3   OH259556   0.994   5.238   2.588 -0.1094  0.1064 -0.3504
12714TIP3    H159557   0.904   5.227   2.619  0.0178 -0.9448 -0.3365
12714TIP3    H259558   1.003   5.333   2.574 -0.7186  0.4131  1.1465
12715TIP3   OH259559   1.431   3.963  11.596  0.5964 -0.0194 -0.0074
12715TIP3    H159560   1.397   3.998  11.514  0.9875  0.1349 -0.1059
12715TIP3    H259561   1.414   4.032  11.660 -1.8412 -1.0406  0.5678
12716TIP3   OH259562   5.257   3.098  16.205 -0.3105 -0.0712  0.0792
12716TIP3    H159563   5.218   3.152  16.275 -1.2771 -0.3711 -0.2090
12716TIP3    H259564   5.181   3.062  16.159  0.2313  2.0058 -2.6479
12717TIP3   OH259565   3.962   5.195  11.549 -0.7312  0.0445 -0.7569
12717TIP3    H159566   3.964   5.271  11.608 -1.7129 -0.1659 -0.4335
12717TIP3    H259567   3.934   5.231  11.465 -0.7634  0.1133 -0.7166
12718TIP3   OH259568   1.010   6.372  12.871 -0.2594 -0.6799 -0.3892
12718TIP3    H159569   0.998   6.384  12.965  0.7227 -1.1096 -0.1925
12718TIP3    H259570   1.002   6.460  12.834 -1.9280 -0.6711 -0.0788
12719TIP3   OH259571   2.393   4.074  16.465  0.2467  0.7114  0.3230
12719TIP3    H159572   2.313   4.028  16.491  0.1340  0.3569 -0.6125
12719TIP3    H259573   2.414   4.129  16.540 -0.7700  0.6655  0.6614
12720TIP3   OH259574   4.874   1.566   4.987  1.2782  0.1457  0.1510
12720TIP3    H159575   4.916   1.636   4.937  1.0990 -0.0702 -0.3083
12720TIP3    H259576   4.940   1.497   4.991  1.2732  0.1417  0.1651
12721TIP3   OH259577   6.353   4.787  16.203  0.0043 -0.1843  0.2849
12721TIP3    H159578   6.382   4.697  16.195 -0.2440 -0.2011 -0.5051
12721TIP3    H259579   6.372   4.811  16.294  1.4468 -0.5461  0.1065
12722TIP3   OH259580   5.343   6.013   1.139 -0.3209  0.2603  0.0033
12722TIP3    H159581   5.336   5.962   1.221  0.0127 -0.0078 -0.1328
12722TIP3    H259582   5.419   6.069   1.153  0.1511 -0.2695 -0.3798
12723TIP3   OH259583   4.580   1.618   0.469  0.2838  0.0705 -0.6403
12723TIP3    H159584   4.487   1.614   0.446 -0.2954  0.5582  1.4438
12723TIP3    H259585   4.622   1.659   0.393 -1.4252  1.2656 -0.9803
12724TIP3   OH259586   5.507   0.364   1.136  0.0288 -0.3703 -0.6403
12724TIP3    H159587   5.480   0.366   1.044 -1.4915 -1.4297 -0.2712
12724TIP3    H259588   5.548   0.278   1.146  0.3705 -0.1755 -0.3767
12725TIP3   OH259589   1.456   3.623  12.951  0.2855 -0.0563  0.0893
12725TIP3    H159590   1.382   3.679  12.930 -0.0149 -0.7589 -0.7810
12725TIP3    H259591   1.477   3.579  12.869  2.5521  1.1187 -0.0496
12726TIP3   OH259592   1.402   4.102   5.697  0.2934  0.2660  0.2366
12726TIP3    H159593   1.337   4.107   5.767  0.8273 -0.1664  0.7758
12726TIP3    H259594   1.443   4.189   5.697  1.3272 -0.1725  1.5073
12727TIP3   OH259595   6.697   5.616   0.757 -0.0112  0.7073  0.3682
12727TIP3    H159596   6.675   5.688   0.698  2.2932  1.5820  0.4472
12727TIP3    H259597   6.719   5.659   0.840  2.5690  0.1196  0.0772
12728TIP3   OH259598   4.261   2.395  14.725 -0.2796  0.5038 -0.2762
12728TIP3    H159599   4.279   2.400  14.819  0.1370 -0.7275 -0.2751
12728TIP3    H259600   4.290   2.480  14.691 -0.6083  1.0368  0.7260
12729TIP3   OH259601   4.068   1.514  11.459  0.0379 -0.9407 -0.6583
12729TIP3    H159602   3.991   1.466  11.428  0.3439 -1.9709  0.1215
12729TIP3    H259603   4.142   1.465  11.424  0.3723  0.5407 -2.1428
12730TIP3   OH259604   5.798   0.428   5.330  0.1960  0.1451 -0.4688
12730TIP3    H159605   5.749   0.467   5.258 -1.0051 -0.9327 -0.2566
12730TIP3    H259606   5.796   0.495   5.399 -0.6557  0.2639 -0.5992
12731TIP3   OH259607   1.794   2.977  13.523  0.4103  0.0378  0.2827
12731TIP3    H159608   1.881   3.001  13.553 -0.1743 -0.0933  2.2030
12731TIP3    H259609   1.735   3.024  13.581 -0.9365  2.4471 -2.7172
12732TIP3   OH259610   6.750   2.256   4.292  0.6697  0.1786 -0.1129
12732TIP3    H159611   6.678   2.194   4.295  2.5315 -2.1052  0.4296
12732TIP3    H259612   6.713   2.334   4.251 -1.8498 -1.1740 -0.6132
12733TIP3   OH259613   2.954   1.919  14.583  0.3243 -0.4043  0.0537
12733TIP3    H159614   2.951   1.854  14.513  2.5848 -1.7848  1.1170
12733TIP3    H259615   2.900   1.881  14.653 -0.2028 -0.0201 -0.1323
12734TIP3   OH259616   5.140   1.180   4.036 -0.5832  0.6349 -0.0268
12734TIP3    H159617   5.166   1.207   4.124 -1.6072  2.0406 -0.1313
12734TIP3    H259618   5.212   1.208   3.980  0.1581 -0.4275  0.3595
12735TIP3   OH259619   5.736   2.202   4.389 -0.3494  0.4317  0.1496
12735TIP3    H159620   5.758   2.242   4.305  0.0756  0.6113  0.3462
12735TIP3    H259621   5.797   2.128   4.397 -0.8221  0.0169  0.0029
12736TIP3   OH259622   6.261   1.919   2.453 -0.1858 -0.1041 -0.4517
12736TIP3    H159623   6.296   1.833   2.475  0.6408  0.2050 -0.5021
12736TIP3    H259624   6.177   1.924   2.499 -0.7638 -1.3546 -1.3149
12737TIP3   OH259625   0.156   3.638   6.010 -0.3720 -0.4532  0.1915
12737TIP3    H159626   0.064   3.663   6.018 -0.5205 -0.7838 -0.4843
12737TIP3    H259627   0.195   3.667   6.093 -0.9806  0.1148  0.2895
12738TIP3   OH259628   3.840   3.439  14.460 -0.6595  0.6418  0.2148
12738TIP3    H159629   3.763   3.442  14.404 -0.6112  1.8572  0.1790
12738TIP3    H259630   3.810   3.474  14.544  0.0350  1.9592 -0.0586
12739TIP3   OH259631   0.475   2.764   3.506 -0.1867  0.2872 -0.2688
12739TIP3    H159632   0.474   2.857   3.531  0.9165 -0.0230  1.0283
12739TIP3    H259633   0.432   2.719   3.578  2.1968 -0.5251  0.7238
12740TIP3   OH259634   2.484   6.631   5.677 -0.1533  0.4414  0.3972
12740TIP3    H159635   2.429   6.570   5.628 -0.5847  1.6530 -0.6685
12740TIP3    H259636   2.570   6.626   5.635  0.7062 -1.6362  2.2167
12741TIP3   OH259637   0.280   4.586   5.225 -0.0182  0.1609  0.8781
12741TIP3    H159638   0.256   4.642   5.299  1.5282 -0.2142  1.7068
12741TIP3    H259639   0.328   4.513   5.265  0.3933 -0.3212 -0.4515
12742TIP3   OH259640   2.871   1.929   2.583  0.2394 -0.9594 -0.0294
12742TIP3    H159641   2.889   2.022   2.598 -0.5179 -0.8454  0.2469
12742TIP3    H259642   2.918   1.907   2.503  0.9638 -0.5054  0.2679
12743TIP3   OH259643   5.619   1.495  13.168  0.3210  0.2243  0.2442
12743TIP3    H159644   5.656   1.412  13.138  0.0901  0.2698 -0.1750
12743TIP3    H259645   5.534   1.471  13.206 -0.8767  0.5187 -2.0520
12744TIP3   OH259646   0.584   2.640   4.561  0.0195 -0.4486  0.2353
12744TIP3    H159647   0.563   2.688   4.481 -1.2672 -0.4374  0.5636
12744TIP3    H259648   0.503   2.596   4.585  0.9035 -2.0236  0.4845
12745TIP3   OH259649   0.948   2.617   6.289  0.1465  0.0545 -0.5192
12745TIP3    H159650   1.027   2.669   6.271  1.4550 -0.7469  2.2923
12745TIP3    H259651   0.881   2.681   6.311  1.0408  0.6749  0.4841
12746TIP3   OH259652   2.527   3.631  13.158 -0.0139 -0.7007 -0.3690
12746TIP3    H159653   2.530   3.721  13.128 -2.1528 -0.8444 -1.2468
12746TIP3    H259654   2.617   3.601  13.154  0.7813  1.4642  0.2187
12747TIP3   OH259655   6.303   5.628  16.485 -0.2783  0.2507  0.1499
12747TIP3    H159656   6.228   5.630  16.424  1.0898 -0.5737 -1.6518
12747TIP3    H259657   6.332   5.719  16.489 -0.6221  0.3793 -0.1468
12748TIP3   OH259658   1.293   0.625  16.324 -0.4638  0.6995 -0.3845
12748TIP3    H159659   1.279   0.536  16.355  2.4413  0.4045  0.4251
12748TIP3    H259660   1.267   0.623  16.232 -2.2308 -0.4190  0.0847
12749TIP3   OH259661   6.553   1.697   6.065 -0.3523 -0.5047 -0.1653
12749TIP3    H159662   6.590   1.639   6.132 -1.6518  0.4282  1.4348
12749TIP3    H259663   6.528   1.776   6.113 -3.0800 -0.5406 -1.3637
12750TIP3   OH259664   6.319   3.779   1.161 -0.3297 -0.0941 -0.4448
12750TIP3    H159665   6.330   3.743   1.249  0.1437 -0.1995 -0.5414
12750TIP3    H259666   6.334   3.704   1.103 -0.5105  0.0030 -0.6158
12751TIP3   OH259667   3.630   5.342   1.536 -0.4478  0.2331  0.1029
12751TIP3    H159668   3.546   5.357   1.579 -2.0113 -1.9605 -1.9526
12751TIP3    H259669   3.651   5.426   1.495 -2.2651  0.4988 -0.3580
12752TIP3   OH259670   0.977   5.611   4.195 -0.1129 -0.2229 -0.5943
12752TIP3    H159671   0.959   5.543   4.259 -1.0710  1.7102  1.3263
12752TIP3    H259672   1.061   5.649   4.223 -0.5858  0.6971 -0.3513
12753TIP3   OH259673   0.111   3.322  15.334  0.0582 -0.4679 -0.4214
12753TIP3    H159674   0.069   3.316  15.248 -0.0698 -0.2557 -0.3747
12753TIP3    H259675   0.201   3.294  15.318  0.3214  0.5740 -0.8354
12754TIP3   OH259676   4.541   5.047  14.164 -0.8608  0.1119  0.3346
12754TIP3    H159677   4.510   4.965  14.126  0.1589  0.1303 -0.5752
12754TIP3    H259678   4.625   5.024  14.204 -0.4307  0.7680 -0.1845
12755TIP3   OH259679   6.757   3.477   1.966 -0.5663  0.1373  0.4383
12755TIP3    H159680   6.821   3.491   2.036 -1.2119  0.6978  0.9208
12755TIP3    H259681   6.674   3.509   2.001 -0.8145  0.9006 -0.7566
12756TIP3   OH259682   3.885   4.759   3.086 -0.4326 -0.2260  0.0304
12756TIP3    H159683   3.924   4.826   3.030 -2.4728  0.4683 -0.6691
12756TIP3    H259684   3.957   4.728   3.141  1.2352  0.3780 -1.7108
12757TIP3   OH259685   6.740   5.394  14.670  0.2030 -0.4755  0.1623
12757TIP3    H159686   6.781   5.479  14.687 -1.3890  0.1027  1.3926
12757TIP3    H259687   6.792   5.355  14.600  0.5872  1.7939 -0.8950
12758TIP3   OH259688   0.139   5.342   4.600  0.0031  0.7054  0.4147
12758TIP3    H159689   0.121   5.372   4.689 -1.2768  1.7675 -0.1729
12758TIP3    H259690   0.052   5.328   4.561  0.4549  2.6191 -1.4286
12759TIP3   OH259691   4.140   2.904   4.532  0.0353 -0.6429  0.6891
12759TIP3    H159692   4.236   2.903   4.540  0.0188 -0.2411  1.0191
12759TIP3    H259693   4.120   2.834   4.471  0.4816 -1.3534  1.3334
12760TIP3   OH259694   0.504   3.894  17.133 -0.6155 -0.4465 -0.0573
12760TIP3    H159695   0.441   3.959  17.101  0.6631  1.5912  1.3179
12760TIP3    H259696   0.463   3.858  17.211  0.1561  1.5376  1.3707
12761TIP3   OH259697   4.673   3.833   5.799 -1.4171 -0.6257  0.4423
12761TIP3    H159698   4.751   3.826   5.855 -1.8303 -1.0650  0.9794
12761TIP3    H259699   4.659   3.743   5.769 -1.2108 -0.3944 -0.3590
12762TIP3   OH259700   4.619   2.241   6.486 -0.3403  0.2347 -0.1363
12762TIP3    H159701   4.557   2.315   6.483  0.5592  0.9751 -1.2759
12762TIP3    H259702   4.568   2.166   6.457 -0.9138  0.6863 -0.3230
12763TIP3   OH259703   1.063   4.677  16.353 -0.7350 -0.2387 -0.8046
12763TIP3    H159704   1.101   4.763  16.374  0.1432 -0.8108 -0.0121
12763TIP3    H259705   1.102   4.654  16.269 -0.9126  0.0929 -0.9828
12764TIP3   OH259706   5.671   4.881   5.924  0.1951  0.1198 -0.1654
12764TIP3    H159707   5.766   4.879   5.930  0.2376  2.6762  1.2958
12764TIP3    H259708   5.640   4.888   6.014 -1.4119 -0.6872 -0.6000
12765TIP3   OH259709   5.950   3.886  13.569 -0.4867 -0.3563 -0.6979
12765TIP3    H159710   6.021   3.893  13.633 -0.5068  2.1405 -0.8655
12765TIP3    H259711   5.962   3.799  13.530  0.7506 -1.1162  1.2319
12766TIP3   OH259712   3.592   6.024   2.084  0.2668  0.0692  0.1251
12766TIP3    H159713   3.612   5.975   2.164  1.5824 -0.9101 -0.7709
12766TIP3    H259714   3.496   6.017   2.076  0.2168 -0.6069  1.0994
12767TIP3   OH259715   4.170   4.402  12.489  0.5430  0.2541  0.1269
12767TIP3    H159716   4.099   4.379  12.430  0.4389  0.9322 -0.0205
12767TIP3    H259717   4.241   4.431  12.431  0.7486  0.0874  0.2943
12768TIP3   OH259718   0.155   1.504   3.544  0.1089  0.0542  0.4182
12768TIP3    H159719   0.202   1.569   3.492  0.4798 -1.4540 -1.2413
12768TIP3    H259720   0.176   1.526   3.635 -0.4220  2.6824 -0.0383
12769TIP3   OH259721   1.152   2.171   0.140  0.4588  0.2630  0.1993
12769TIP3    H159722   1.182   2.213   0.060  0.6493 -1.0949 -0.4766
12769TIP3    H259723   1.193   2.220   0.211 -0.1269  1.8046 -0.5055
12770TIP3   OH259724   4.058   3.655   1.730  0.1844 -1.0158 -0.3020
12770TIP3    H159725   4.051   3.578   1.786  0.3698 -1.7878 -1.3123
12770TIP3    H259726   3.998   3.718   1.768  1.9021 -0.6770  2.0746
12771TIP3   OH259727   3.793   6.141  14.913 -0.3790  0.2252 -0.0970
12771TIP3    H159728   3.870   6.169  14.864 -0.1249  0.4336  0.4189
12771TIP3    H259729   3.812   6.165  15.004 -0.9032 -0.0353  0.0848
12772TIP3   OH259730   6.093   2.100  16.945  0.9708  0.2314 -0.0328
12772TIP3    H159731   6.105   2.009  16.973 -0.1160  0.5765  1.7335
12772TIP3    H259732   6.165   2.147  16.986  0.1492  0.5210  1.1352
12773TIP3   OH259733   3.487   3.670  12.085  0.7636  0.0768 -0.1138
12773TIP3    H159734   3.416   3.620  12.044  1.9617 -1.5018 -0.3472
12773TIP3    H259735   3.443   3.745  12.124 -0.8065  0.0474 -1.7030
12774TIP3   OH259736   3.688   5.107   4.336  0.2607 -0.0004  0.0472
12774TIP3    H159737   3.706   5.200   4.323  0.2091  0.0174  0.1039
12774TIP3    H259738   3.744   5.081   4.408  2.6869 -0.7616 -1.9624
12775TIP3   OH259739   1.844   5.248   2.275 -0.2088 -0.4946  0.2121
12775TIP3    H159740   1.853   5.158   2.242 -4.1611 -0.6777 -0.8512
12775TIP3    H259741   1.777   5.242   2.343 -1.6963  1.7628 -0.9272
12776TIP3   OH259742   0.452   4.359  16.849 -0.7183  0.0888  0.0826
12776TIP3    H159743   0.363   4.383  16.822 -1.0162 -0.9697  0.0946
12776TIP3    H259744   0.506   4.431  16.819 -1.6842  1.1366  0.7506
12777TIP3   OH259745   4.732   4.282  13.358  0.7483  0.3176 -0.1191
12777TIP3    H159746   4.691   4.334  13.427  0.4767 -0.8353  0.6188
12777TIP3    H259747   4.658   4.241  13.312  1.0018 -1.4593  0.9710
12778TIP3   OH259748   2.392   0.211  11.768 -0.7597 -0.0283 -0.0650
12778TIP3    H159749   2.375   0.143  11.834  0.7829  0.0540  0.4536
12778TIP3    H259750   2.428   0.284  11.818 -0.9332  0.5934 -0.8286
12779TIP3   OH259751   3.327   3.795   2.354  0.0217 -0.6877  0.7828
12779TIP3    H159752   3.289   3.775   2.440  0.8709 -0.9998  1.0901
12779TIP3    H259753   3.420   3.777   2.363 -0.0581 -1.9769 -0.5703
12780TIP3   OH259754   3.037   1.273   4.842 -0.8147 -0.1720 -0.0507
12780TIP3    H159755   2.968   1.266   4.908  0.0783  0.8872  1.0309
12780TIP3    H259756   3.115   1.240   4.885 -0.0229  1.3458 -0.2494
12781TIP3   OH259757   0.172   1.434   3.948  0.7834 -0.0217  0.3224
12781TIP3    H159758   0.198   1.479   4.028  1.5704  1.1385 -0.5694
12781TIP3    H259759   0.242   1.452   3.886  0.9316 -2.1630 -0.2007
12782TIP3   OH259760   5.110   3.710  13.209  0.3112  0.1211  0.2888
12782TIP3    H159761   5.078   3.627  13.244 -0.3413  0.9569  1.7762
12782TIP3    H259762   5.149   3.754  13.284  1.2800  0.8827 -0.6248
12783TIP3   OH259763   5.294   2.329  11.850 -0.7344 -0.1172  0.0675
12783TIP3    H159764   5.259   2.240  11.841  0.7549 -0.5585 -2.2439
12783TIP3    H259765   5.222   2.386  11.823 -0.6526 -0.8608 -1.8914
12784TIP3   OH259766   2.822   2.711  13.281 -0.3463 -0.0266 -0.1723
12784TIP3    H159767   2.752   2.725  13.344  0.3338  0.5264  0.4712
12784TIP3    H259768   2.857   2.625  13.303  1.7120  1.2776  2.0614
12785TIP3   OH259769   4.687   1.137   0.539 -0.4633  0.0427  0.0846
12785TIP3    H159770   4.706   1.043   0.538 -0.6492 -0.0077  0.9311
12785TIP3    H259771   4.773   1.179   0.530 -0.3456 -0.2074  0.0414
12786TIP3   OH259772   3.653   4.649  13.288  0.2036  0.4397  0.0264
12786TIP3    H159773   3.561   4.668  13.269 -0.9645 -0.1428  4.0815
12786TIP3    H259774   3.656   4.554  13.298  1.3738  0.4090 -0.4787
12787TIP3   OH259775   4.837   5.277   5.179  0.2151 -0.1612 -0.4752
12787TIP3    H159776   4.916   5.241   5.140  1.7722  1.3689  1.0893
12787TIP3    H259777   4.858   5.369   5.197 -0.9959 -0.2911  2.1975
12788TIP3   OH259778   0.869   1.194  12.693 -0.2157 -0.0568 -0.1518
12788TIP3    H159779   0.811   1.213  12.767  0.1703  0.2539  0.0705
12788TIP3    H259780   0.819   1.132  12.640 -1.8541  2.0526 -1.2760
12789TIP3   OH259781   1.079   0.917  14.786  0.0876 -0.5143  0.0152
12789TIP3    H159782   1.090   0.987  14.851 -0.3278 -0.0096 -0.4480
12789TIP3    H259783   1.167   0.884  14.771  0.4791  0.8489 -0.7851
12790TIP3   OH259784   5.172   4.100  13.742  0.6088  0.5344 -0.2103
12790TIP3    H159785   5.086   4.079  13.707  0.9424 -1.0554 -0.1409
12790TIP3    H259786   5.233   4.082  13.670  1.4064 -3.7092  1.2329
12791TIP3   OH259787   3.314   6.757  13.118  0.5204  0.1204  0.4193
12791TIP3    H159788   3.275   6.686  13.067 -1.2394  1.2072  0.1626
12791TIP3    H259789   3.380   6.714  13.173 -0.4874 -1.7091  0.2733
12792TIP3   OH259790   4.860   2.743  11.991  0.9714 -0.3938 -0.5436
12792TIP3    H159791   4.955   2.757  11.982  1.2537 -2.4306 -1.2271
12792TIP3    H259792   4.842   2.761  12.083  1.7913  1.1826 -0.6625
12793TIP3   OH259793   1.630   6.163  12.951  0.4112  0.2620 -0.3304
12793TIP3    H159794   1.678   6.080  12.956  1.4235  0.8441 -0.2460
12793TIP3    H259795   1.547   6.144  12.994  0.4821 -0.8106 -0.6327
12794TIP3   OH259796   0.934   0.626   2.517  0.4742  0.1102 -0.8826
12794TIP3    H159797   0.885   0.697   2.476 -1.0245 -0.9523 -1.0198
12794TIP3    H259798   1.014   0.667   2.550  0.1625  1.6219 -1.9401
12795TIP3   OH259799   1.952   4.979   2.229  0.4991  0.3721 -0.2448
12795TIP3    H159800   1.921   4.922   2.159  1.1389 -2.2522  1.4416
12795TIP3    H259801   2.045   4.957   2.238  1.1221  2.6855 -0.3430
12796TIP3   OH259802   0.929   4.703   5.933  0.6046  0.2944  0.2220
12796TIP3    H159803   0.860   4.766   5.955  0.2266  0.8000 -2.1501
12796TIP3    H259804   1.010   4.752   5.944  0.3793  0.8101 -0.3851
12797TIP3   OH259805   5.685   2.092  12.425  0.1877 -0.4221  0.3001
12797TIP3    H159806   5.746   2.145  12.475 -1.3228  0.3419  1.4082
12797TIP3    H259807   5.704   2.002  12.452  0.7807 -0.1890  0.6757
12798TIP3   OH259808   4.399   5.504   1.829  0.3537  0.1400 -0.3146
12798TIP3    H159809   4.368   5.413   1.830  0.4099  0.1044  1.8571
12798TIP3    H259810   4.493   5.496   1.815  0.6775 -0.3167  1.7656
12799TIP3   OH259811   3.113   5.006  13.684  0.0207 -0.3113  0.4614
12799TIP3    H159812   3.174   4.996  13.757  1.3619  1.2985 -0.3429
12799TIP3    H259813   3.087   5.098  13.687 -2.3405 -0.9270  0.6912
12800TIP3   OH259814   0.164   2.280   3.296 -0.5027 -0.1670 -0.2428
12800TIP3    H159815   0.155   2.204   3.354 -1.4129  0.7737  0.9159
12800TIP3    H259816   0.074   2.307   3.277 -0.1964  0.3500 -1.0012
12801TIP3   OH259817   5.023   2.659   3.519  0.4575  0.0525  0.2502
12801TIP3    H159818   5.081   2.735   3.525  0.7746 -0.1411 -0.2429
12801TIP3    H259819   5.075   2.593   3.473 -0.3318  0.0638 -0.7041
12802TIP3   OH259820   1.937   4.242  15.076  0.1607 -0.7638  0.1758
12802TIP3    H159821   1.859   4.267  15.126  0.2186 -0.7206  0.2448
12802TIP3    H259822   1.937   4.301  15.000 -0.2914 -1.2740 -0.2266
12803TIP3   OH259823   2.369   5.882  16.498 -0.4394  0.4858  0.1572
12803TIP3    H159824   2.363   5.936  16.419 -2.9766 -2.6729 -2.0352
12803TIP3    H259825   2.456   5.843  16.494  0.2706  1.9835  0.1866
12804TIP3   OH259826   4.703   1.234   3.386 -0.5917  0.0989  0.1075
12804TIP3    H159827   4.681   1.151   3.428  1.1160  0.3943  1.6940
12804TIP3    H259828   4.734   1.290   3.457 -0.5801  1.7092 -1.1054
12805TIP3   OH259829   2.023   4.991  11.605  0.4099  0.5121 -0.1135
12805TIP3    H159830   2.043   4.959  11.693 -0.5083  0.8983  0.2554
12805TIP3    H259831   2.099   5.043  11.581  0.7580  0.2427  0.3777
12806TIP3   OH259832   1.892   3.774   5.810 -0.1554 -0.0867 -0.5386
12806TIP3    H159833   1.901   3.869   5.804 -1.9195  0.1309 -0.2334
12806TIP3    H259834   1.930   3.752   5.895  0.5433  0.2822 -0.7423
12807TIP3   OH259835   5.949   3.340  11.363 -0.0050  0.3968 -0.2719
12807TIP3    H159836   5.983   3.274  11.302  0.1487 -1.4276  1.6730
12807TIP3    H259837   5.863   3.363  11.328  0.1430 -0.4746 -1.2569
12808TIP3   OH259838   1.616   0.079   4.570 -0.0196  0.3345 -0.6016
12808TIP3    H159839   1.683   0.026   4.613  0.6136  3.5936  2.9806
12808TIP3    H259840   1.665   0.149   4.526 -0.8946  1.5033  0.1973
12809TIP3   OH259841   1.615   0.668  13.672  0.0426  0.1353 -0.6498
12809TIP3    H159842   1.684   0.729  13.646 -0.7053  1.4392  0.2884
12809TIP3    H259843   1.538   0.696  13.622 -0.6799  0.9099  0.8282
12810TIP3   OH259844   0.875   3.886   4.982 -0.3534  0.8222  0.3844
12810TIP3    H159845   0.809   3.818   4.968  0.3443  0.1242  0.4125
12810TIP3    H259846   0.917   3.863   5.065  0.7787  0.5273 -0.2472
12811TIP3   OH259847   3.974   6.265   5.232  0.1963 -0.3189 -0.1728
12811TIP3    H159848   3.996   6.195   5.294  2.0622  0.9836  0.7415
12811TIP3    H259849   4.058   6.306   5.212 -0.9334  2.4098  0.2535
12812TIP3   OH259850   0.627   2.701  13.785 -0.4805 -0.8686 -0.4857
12812TIP3    H159851   0.556   2.766  13.783  1.0938  1.1397  2.0598
12812TIP3    H259852   0.597   2.634  13.846 -0.0187  0.3401  1.1505
12813TIP3   OH259853   2.096   1.038  14.282 -0.3936  0.4710 -0.1387
12813TIP3    H159854   2.106   1.009  14.372 -1.0933 -1.0076 -0.5089
12813TIP3    H259855   2.004   1.020  14.261 -0.4173  1.4369 -0.9330
12814TIP3   OH259856   6.016   2.089  12.271  0.1223  0.1492 -0.6666
12814TIP3    H159857   5.974   2.078  12.356  1.1967  0.7794 -0.0272
12814TIP3    H259858   6.048   2.180  12.272  2.5108 -0.6175 -0.6149
12815TIP3   OH259859   4.194   4.308  12.172  0.6120  0.3861 -0.3116
12815TIP3    H159860   4.237   4.246  12.230  1.5324  0.3910 -0.9701
12815TIP3    H259861   4.201   4.269  12.085 -0.3673  0.5800 -0.4909
12816TIP3   OH259862   1.616   4.300  11.167 -0.3863 -0.1785 -0.4956
12816TIP3    H159863   1.543   4.361  11.174  0.1111  0.3626  0.1031
12816TIP3    H259864   1.665   4.312  11.248 -0.5154 -1.6897 -0.1530
12817TIP3   OH259865   2.563   4.772  15.818  0.8836 -0.3426  0.5263
12817TIP3    H159866   2.626   4.729  15.875  2.2752  0.0374 -0.6781
12817TIP3    H259867   2.607   4.850  15.786  0.3101 -0.7194 -1.3354
12818TIP3   OH259868   1.155   1.889  14.469  0.1097 -0.3562  0.3237
12818TIP3    H159869   1.222   1.865  14.405 -0.1417  0.5686 -0.3013
12818TIP3    H259870   1.204   1.930  14.541  0.3723 -1.2224  0.6518
12819TIP3   OH259871   4.100   1.820  13.610  0.6533 -0.7299  0.4125
12819TIP3    H159872   4.107   1.756  13.681  1.4825  1.7210  2.6842
12819TIP3    H259873   4.009   1.848  13.611  0.1573 -2.0872 -0.9244
12820TIP3   OH259874   1.546   3.645  16.572 -0.1204  0.4047  0.2023
12820TIP3    H159875   1.485   3.616  16.504  0.6541 -1.6048  0.2855
12820TIP3    H259876   1.554   3.740  16.558 -3.2840  0.7950  0.2713
12821TIP3   OH259877   1.201   0.743   4.640  0.3833 -0.1189 -0.3312
12821TIP3    H159878   1.217   0.691   4.561  1.5143  1.7313 -1.3922
12821TIP3    H259879   1.272   0.718   4.699  2.3680  1.7695 -1.7313
12822TIP3   OH259880   1.437   0.099   3.899 -0.6924  0.0137 -0.2807
12822TIP3    H159881   1.406   0.189   3.889 -0.2220  0.4317  1.5344
12822TIP3    H259882   1.376   0.059   3.962 -0.2540 -0.5862 -0.2219
12823TIP3   OH259883   0.654   5.333  16.954 -0.1151 -0.1969  0.3417
12823TIP3    H159884   0.650   5.254  16.900 -0.9377  0.1220 -0.0856
12823TIP3    H259885   0.616   5.402  16.898 -0.9044  0.1581  1.2783
12824TIP3   OH259886   5.568   4.138  14.130  0.0043  0.0684 -0.5754
12824TIP3    H159887   5.628   4.065  14.124  0.6197  0.4649  0.4969
12824TIP3    H259888   5.500   4.120  14.065 -0.1927 -1.7545  0.0948
12825TIP3   OH259889   0.404   1.470  11.636  0.1483 -0.3233 -0.1114
12825TIP3    H159890   0.363   1.391  11.671 -1.8133  0.5629 -0.2364
12825TIP3    H259891   0.361   1.542  11.684 -1.8658  0.9049 -3.4211
12826TIP3   OH259892   1.085   4.081   5.020  0.0147 -0.0140 -0.2530
12826TIP3    H159893   1.107   4.088   4.928  1.9504 -0.1339  0.1548
12826TIP3    H259894   1.032   4.002   5.026  2.5022 -1.8779 -0.9015
12827TIP3   OH259895   5.609   2.089  14.358 -0.6074  0.1760  0.3993
12827TIP3    H159896   5.530   2.039  14.341 -2.0047  1.9094  1.4694
12827TIP3    H259897   5.671   2.025  14.392 -0.4469 -1.8040 -3.1123
12828TIP3   OH259898   4.940   5.846  13.958  0.1523  0.0326 -0.1428
12828TIP3    H159899   5.019   5.794  13.945  0.9442  1.2799 -0.4858
12828TIP3    H259900   4.971   5.936  13.971 -1.0443  0.1692  2.4508
12829TIP3   OH259901   2.408   3.917   4.319 -0.2614 -0.1050  0.1179
12829TIP3    H159902   2.401   3.865   4.239 -2.3565  0.6542 -0.2379
12829TIP3    H259903   2.442   3.855   4.384 -0.2530 -1.2128 -0.8976
12830TIP3   OH259904   3.125   4.058   4.835 -0.1779 -0.1612 -0.4937
12830TIP3    H159905   3.188   4.125   4.810 -1.4612  1.3005 -0.0094
12830TIP3    H259906   3.162   4.018   4.913 -0.1689  1.2286  0.2616
12831TIP3   OH259907   3.867   4.202   5.674 -0.1415  0.0715 -0.0134
12831TIP3    H159908   3.899   4.158   5.753  0.8807 -0.5658 -0.7456
12831TIP3    H259909   3.781   4.164   5.658 -0.2971  0.1106  0.7246
12832TIP3   OH259910   5.408   2.061  15.817  0.0985 -0.3867  0.6038
12832TIP3    H159911   5.422   2.078  15.724 -1.5315 -0.2314  0.3516
12832TIP3    H259912   5.489   2.090  15.859  0.6669  0.0189 -0.7018
12833TIP3   OH259913   4.569   1.419  15.355  0.0602 -0.0049 -0.1493
12833TIP3    H159914   4.555   1.353  15.423 -1.2078  0.0280 -0.3606
12833TIP3    H259915   4.614   1.372  15.285 -0.2575 -0.4938 -0.0308
12834TIP3   OH259916   4.278   2.775   3.127  0.5856 -0.0232 -0.4328
12834TIP3    H159917   4.240   2.711   3.067  1.0218 -1.4995  0.8072
12834TIP3    H259918   4.372   2.757   3.125  0.5168 -0.9494  1.5422
12835TIP3   OH259919   1.808   0.850  15.965 -0.0915  0.0732 -0.7473
12835TIP3    H159920   1.814   0.936  16.004 -0.3209 -0.0024 -0.5422
12835TIP3    H259921   1.715   0.826  15.972  0.2622 -0.9801  0.9028
12836TIP3   OH259922   2.944   4.443  10.540 -0.0608 -0.3957 -0.6452
12836TIP3    H159923   2.984   4.381  10.479 -0.3683 -1.1601 -0.0786
12836TIP3    H259924   2.854   4.453  10.508 -0.1208 -0.5362 -0.5258
12837TIP3   OH259925   3.734   5.290   4.758 -0.4597 -0.0908  0.3719
12837TIP3    H159926   3.825   5.264   4.772  0.0439  0.8729 -0.9523
12837TIP3    H259927   3.706   5.326   4.842 -0.0066 -1.4232  1.1231
12838TIP3   OH259928   2.145   5.353   0.865  0.1317  0.1220 -0.3240
12838TIP3    H159929   2.182   5.273   0.829  0.4196  0.3043 -0.4334
12838TIP3    H259930   2.107   5.399   0.790 -2.7121 -1.3090  0.1265
12839TIP3   OH259931   1.454   4.625   4.918  0.0720  0.5270 -0.2341
12839TIP3    H159932   1.469   4.551   4.977 -1.2434 -0.0527 -0.5872
12839TIP3    H259933   1.535   4.632   4.867  0.3051 -0.5243 -0.0306
12840TIP3   OH259934   6.030   6.649   0.301  0.3424  0.2689  0.7743
12840TIP3    H159935   6.054   6.742   0.296 -0.8942  0.6256  0.9097
12840TIP3    H259936   6.033   6.619   0.210 -1.7737  1.1723  0.3316
12841TIP3   OH259937   2.704   5.149   5.535  0.2052  0.0871  0.2613
12841TIP3    H159938   2.667   5.204   5.466 -1.7785 -0.8322  0.5309
12841TIP3    H259939   2.647   5.164   5.610  1.0722 -0.5544  1.0689
12842TIP3   OH259940   1.455   4.217  15.831 -0.2900 -0.1416 -0.2418
12842TIP3    H159941   1.498   4.188  15.911  2.0090 -0.0403 -1.3650
12842TIP3    H259942   1.500   4.171  15.761 -0.1760  2.0184 -1.6898
12843TIP3   OH259943   0.129   1.624   0.309  0.0530 -0.3542 -0.3808
12843TIP3    H159944   0.080   1.659   0.384  3.9935  0.6400  1.9860
12843TIP3    H259945   0.123   1.529   0.320 -0.3624 -0.2367  0.5423
12844TIP3   OH259946   1.077   3.056   3.278 -0.3954  0.0935  0.3601
12844TIP3    H159947   1.016   3.114   3.324 -0.2879 -0.2031  0.8851
12844TIP3    H259948   1.154   3.110   3.262 -0.0619 -0.0580  1.3751
12845TIP3   OH259949   5.397   4.477   0.848 -0.6533 -0.9159 -0.6181
12845TIP3    H159950   5.323   4.466   0.788 -0.5239  1.4414 -1.3179
12845TIP3    H259951   5.474   4.469   0.793 -0.4418 -1.3366 -0.2667
12846TIP3   OH259952   0.284   3.613  10.838  0.2004  1.0758  0.5958
12846TIP3    H159953   0.249   3.700  10.858 -2.2330 -0.4162  3.7814
12846TIP3    H259954   0.213   3.553  10.861  2.7687 -1.9168  1.3269
12847TIP3   OH259955   4.767   6.315  14.005  0.0868 -0.0121  0.0063
12847TIP3    H159956   4.775   6.230  13.962  0.3932  0.3593 -0.6958
12847TIP3    H259957   4.676   6.341  13.990  0.8479  1.3320 -2.8309
12848TIP3   OH259958   2.671   2.146   4.874  0.1013 -0.3196  0.0740
12848TIP3    H159959   2.676   2.179   4.964  2.0844  0.4698 -0.2669
12848TIP3    H259960   2.583   2.170   4.845 -0.3220  0.0571  1.5613
12849TIP3   OH259961   1.283   4.833  13.327  0.2473  0.8833  0.2163
12849TIP3    H159962   1.266   4.899  13.393  2.0045  2.1696 -0.5207
12849TIP3    H259963   1.364   4.791  13.355 -0.8816 -1.0809  0.7181
12850TIP3   OH259964   1.021   0.839  11.433 -0.3302  0.0357 -0.1186
12850TIP3    H159965   1.041   0.903  11.364  0.6891 -0.7813 -0.6020
12850TIP3    H259966   1.070   0.870  11.509 -0.4743  0.2592 -0.1143
12851TIP3   OH259967   0.732   0.286  16.697 -0.1377 -0.5675 -0.5941
12851TIP3    H159968   0.644   0.304  16.728  0.0297  0.2266 -0.5557
12851TIP3    H259969   0.783   0.272  16.777  0.0890  0.5103 -0.5385
12852TIP3   OH259970   5.978   2.844   2.910  0.0322  0.0110 -0.1647
12852TIP3    H159971   6.052   2.836   2.850 -0.2676 -1.0259 -0.4108
12852TIP3    H259972   5.915   2.898   2.862  0.7626  1.2246  0.1994
12853TIP3   OH259973   5.400   3.750   2.630  0.6442 -0.7120  0.1676
12853TIP3    H159974   5.387   3.665   2.672  0.2423 -0.4967  0.4800
12853TIP3    H259975   5.444   3.729   2.547  0.8850 -1.1902  0.4126
12854TIP3   OH259976   3.571   2.631  14.378 -0.2836  0.3908 -0.5377
12854TIP3    H159977   3.561   2.551  14.428 -2.3657  1.7548  1.4394
12854TIP3    H259978   3.507   2.623  14.306  0.1562 -0.0685 -0.8832
12855TIP3   OH259979   5.275   2.992   3.333  0.1440 -0.2044 -0.2955
12855TIP3    H159980   5.365   2.989   3.367  0.3960 -0.9524 -0.9791
12855TIP3    H259981   5.258   3.085   3.317  0.6516 -0.0207  0.2278
12856TIP3   OH259982   1.430   3.727   2.383  0.7060  0.7311  0.8244
12856TIP3    H159983   1.444   3.734   2.289  0.2114  0.6253  0.7407
12856TIP3    H259984   1.379   3.646   2.394  0.5667  0.8624  1.1588
12857TIP3   OH259985   5.639   2.800  14.165  0.8785  0.4920 -0.1299
12857TIP3    H159986   5.570   2.751  14.121  0.2812  1.1474  0.0678
12857TIP3    H259987   5.638   2.769  14.255  1.2167  0.1060 -0.2552
12858TIP3   OH259988   3.790   0.198  14.207 -0.1984  0.4151 -0.1253
12858TIP3    H159989   3.796   0.205  14.302 -1.5439 -0.5474  0.0588
12858TIP3    H259990   3.879   0.214  14.176  1.2193 -3.0435  1.5679
12859TIP3   OH259991   2.296   1.912  14.406  0.4955 -0.0881  0.3430
12859TIP3    H159992   2.387   1.899  14.433  0.6188 -2.1123 -0.8588
12859TIP3    H259993   2.249   1.837  14.441 -0.3369 -0.0080 -0.5521
12860TIP3   OH259994   6.507   5.370   0.409 -0.2059  0.5412 -0.5685
12860TIP3    H159995   6.569   5.442   0.405 -0.2280  0.5416 -0.9424
12860TIP3    H259996   6.463   5.371   0.325  0.8477 -0.8354 -1.1855
12861TIP3   OH259997   1.273   3.700   0.252  0.1222  0.2451  0.1879
12861TIP3    H159998   1.211   3.747   0.308 -0.4791  0.2380 -0.4589
12861TIP3    H259999   1.231   3.697   0.167  1.2215  0.6562 -0.3956
12862TIP3   OH260000   2.199   1.050   4.730  0.2835 -0.4305  0.2131
12862TIP3    H160001   2.278   1.095   4.699  1.1123 -0.9291  1.5254
12862TIP3    H260002   2.174   0.993   4.657  1.4837 -0.7007 -0.0061
12863TIP3   OH260003   1.540   5.746   4.694  0.6465 -0.1045 -0.1662
12863TIP3    H160004   1.514   5.668   4.645 -3.2960 -0.1157  1.5639
12863TIP3    H260005   1.591   5.713   4.767  0.5037 -0.8409 -0.3947
12864TIP3   OH260006   4.510   1.858  15.470 -0.5279  0.4149 -0.6730
12864TIP3    H160007   4.529   1.840  15.561 -3.0495  0.4498 -0.0478
12864TIP3    H260008   4.587   1.903  15.437  1.4544 -1.7688  0.7104
12865TIP3   OH260009   3.484   5.160  13.403 -0.4257  0.1229  0.9697
12865TIP3    H160010   3.561   5.194  13.357 -0.1001 -1.3718  0.3477
12865TIP3    H260011   3.426   5.236  13.410 -0.7517  0.3879 -2.4715
12866TIP3   OH260012   0.912   5.657  13.063  0.2958  0.1452  0.7603
12866TIP3    H160013   0.834   5.627  13.109  0.2642  2.3634  2.3227
12866TIP3    H260014   0.881   5.727  13.005  0.7268 -0.9483 -0.8635
12867TIP3   OH260015   4.286   5.203   3.427  0.3847  0.2856  0.2604
12867TIP3    H160016   4.372   5.168   3.450  0.3307  0.2783  0.4540
12867TIP3    H260017   4.241   5.212   3.510  0.3077  0.5792  0.1895
12868TIP3   OH260018   3.421   2.051   2.266 -0.2366 -0.1721 -0.3028
12868TIP3    H160019   3.390   2.137   2.293  0.7996  0.3847 -0.8321
12868TIP3    H260020   3.364   2.027   2.193 -0.5233  0.0471 -0.1566
12869TIP3   OH260021   0.872   1.854   6.469 -0.0321  0.5567  0.8548
12869TIP3    H160022   0.917   1.845   6.553 -1.7819  2.3033  2.0578
12869TIP3    H260023   0.793   1.800   6.477 -0.3040  0.8742  0.3960
12870TIP3   OH260024   0.407   2.953   3.740 -0.6897 -0.1390 -0.2781
12870TIP3    H160025   0.426   3.032   3.689 -0.0920 -0.9700 -1.3765
12870TIP3    H260026   0.312   2.954   3.751 -0.8226  0.0624 -1.4004
12871TIP3   OH260027   3.187   2.426   3.485  0.1953 -0.1650  0.2313
12871TIP3    H160028   3.266   2.467   3.517  0.2379  0.6805 -0.8853
12871TIP3    H260029   3.124   2.498   3.474 -0.9485 -0.8897  1.6691
12872TIP3   OH260030   5.104   5.315  16.172  0.8420 -0.3571  0.0582
12872TIP3    H160031   5.059   5.232  16.190 -0.8294  0.4421 -0.1871
12872TIP3    H260032   5.166   5.325  16.243 -0.1697 -0.9901  1.0587
12873TIP3   OH260033   1.302   6.030  15.035  0.1354  0.5863  0.0729
12873TIP3    H160034   1.373   6.042  14.972  0.5264  2.0940  0.7622
12873TIP3    H260035   1.293   5.935  15.042 -1.1246  0.2999 -3.5354
12874TIP3   OH260036   3.079   0.939   4.648  0.7693  0.4194  0.4783
12874TIP3    H160037   3.140   0.872   4.678  0.7338  0.1077 -0.1407
12874TIP3    H260038   3.132   0.999   4.596  0.2496 -0.8408 -1.5987
12875TIP3   OH260039   4.947   5.650   0.912  0.0255 -0.1439  0.3434
12875TIP3    H160040   4.874   5.612   0.961  1.6572 -1.3972  1.9514
12875TIP3    H260041   4.964   5.733   0.956 -0.9752  0.6236 -0.6416
12876TIP3   OH260042   0.552   1.555  12.574 -0.1409 -0.7761 -0.5631
12876TIP3    H160043   0.524   1.466  12.598 -1.9464  0.0206  0.4264
12876TIP3    H260044   0.586   1.545  12.485  0.9244 -2.6882 -0.0076
12877TIP3   OH260045   2.550   4.723   0.794  0.4153 -0.3368 -0.4920
12877TIP3    H160046   2.529   4.716   0.701  0.7926 -1.4763 -0.5076
12877TIP3    H260047   2.484   4.782   0.830  0.0688 -0.1517 -1.4198
12878TIP3   OH260048   5.760   0.661   3.444 -0.5208 -0.3555 -0.0383
12878TIP3    H160049   5.812   0.720   3.498 -0.3186 -0.2541 -0.3405
12878TIP3    H260050   5.720   0.718   3.378 -0.9422 -0.4458  0.1362
12879TIP3   OH260051   5.558   3.714   2.417 -0.0362  0.3387 -0.3967
12879TIP3    H160052   5.653   3.708   2.417  0.1620  2.4275 -1.9006
12879TIP3    H260053   5.535   3.739   2.328 -1.9318  0.8243  0.1702
12880TIP3   OH260054   6.596   2.345  16.945 -0.2090 -0.4576  0.1129
12880TIP3    H160055   6.505   2.375  16.951 -0.1136 -0.1406 -0.0088
12880TIP3    H260056   6.589   2.250  16.931 -0.5328 -0.3666 -0.3941
12881TIP3   OH260057   6.334   6.513  15.625 -0.2285  0.4004 -0.6749
12881TIP3    H160058   6.310   6.420  15.621 -0.7864  0.4401  0.8999
12881TIP3    H260059   6.296   6.543  15.708 -0.5396  2.1866 -1.4463
12882TIP3   OH260060   1.267   5.735   1.841  0.1040 -0.0794 -0.0057
12882TIP3    H160061   1.362   5.742   1.850  0.0588  0.1776  0.2589
12882TIP3    H260062   1.232   5.802   1.899 -0.2239  0.4795 -0.8481
12883TIP3   OH260063   2.149   2.372  15.184 -0.5790  0.0671  0.1036
12883TIP3    H160064   2.200   2.452  15.178  1.3486 -1.0498  0.8798
12883TIP3    H260065   2.113   2.360  15.096  1.5790  0.2259 -0.8623
12884TIP3   OH260066   2.652   2.091  15.333 -0.0581 -0.0093  0.4811
12884TIP3    H160067   2.603   2.119  15.256 -0.0318 -1.0835  0.0583
12884TIP3    H260068   2.656   1.995  15.325 -0.1281 -0.1425  1.8549
12885TIP3   OH260069   4.164   1.848   4.740  0.1466  0.2248  0.7530
12885TIP3    H160070   4.230   1.786   4.772  2.0322  1.2379 -0.9363
12885TIP3    H260071   4.083   1.821   4.783  1.3493 -1.9874  1.8138
12886TIP3   OH260072   2.545   4.225  14.593 -0.1273  0.0926  0.3179
12886TIP3    H160073   2.545   4.148  14.536 -0.4598 -0.3827  0.9436
12886TIP3    H260074   2.521   4.191  14.679  3.1463  0.3070  1.4312
12887TIP3   OH260075   4.909   4.495  11.259  0.0751 -0.1174 -0.1084
12887TIP3    H160076   4.920   4.416  11.204  2.0834  0.7084 -0.9799
12887TIP3    H260077   4.941   4.468  11.345  0.2630 -0.4203 -0.2665
12888TIP3   OH260078   5.023   5.131   0.491 -0.3095 -0.3754 -0.1557
12888TIP3    H160079   5.081   5.067   0.451  1.1177 -0.1784  1.4946
12888TIP3    H260080   4.943   5.082   0.512  0.6960 -1.5978  0.9305
12889TIP3   OH260081   5.824   4.713   1.621 -0.4966 -0.6100  0.5700
12889TIP3    H160082   5.887   4.651   1.586  0.2194 -0.6193  1.7992
12889TIP3    H260083   5.738   4.675   1.601 -0.0786 -1.4875  0.4327
12890TIP3   OH260084   5.661   0.986   3.557  0.1748 -0.2949  0.4553
12890TIP3    H160085   5.617   0.972   3.473  1.4265 -2.0619  0.0358
12890TIP3    H260086   5.741   1.034   3.534  1.5748 -2.5464  0.2351
12891TIP3   OH260087   6.505   3.510   0.739  0.6748  0.1546 -0.0320
12891TIP3    H160088   6.477   3.480   0.652  0.9807  1.0471 -0.4547
12891TIP3    H260089   6.595   3.481   0.746  1.0237  1.0680 -0.5089
12892TIP3   OH260090   5.601   3.882  16.502  0.4090 -0.1475  0.3462
12892TIP3    H160091   5.664   3.936  16.550  2.4681 -2.2635  0.1712
12892TIP3    H260092   5.603   3.916  16.413  2.3888 -1.0179  0.0159
12893TIP3   OH260093   0.394   3.717   6.460 -0.4683  0.0943  0.4258
12893TIP3    H160094   0.383   3.630   6.498  1.3097 -0.4903 -0.2677
12893TIP3    H260095   0.305   3.748   6.444 -1.1514 -1.3229  1.2704
12894TIP3   OH260096   4.355   4.310  14.564 -0.1991  1.0047 -0.1057
12894TIP3    H160097   4.334   4.226  14.524 -1.1426  1.6425 -0.9911
12894TIP3    H260098   4.355   4.292  14.658 -2.5875  0.4413 -0.1461
12895TIP3   OH260099   5.889   2.775  15.499  0.2566 -0.2681 -0.1117
12895TIP3    H160100   5.866   2.783  15.407  0.9341  1.5959 -0.1707
12895TIP3    H260101   5.866   2.685  15.522  0.7767 -1.0223 -2.2766
12896TIP3   OH260102   0.689   3.703   2.166  0.2330 -0.1930 -0.0611
12896TIP3    H160103   0.769   3.738   2.204  0.4722  0.9387 -1.5175
12896TIP3    H260104   0.712   3.683   2.075 -0.3934 -2.5302  0.2316
12897TIP3   OH260105   2.670   3.663  13.707 -0.2881  0.0763 -0.0986
12897TIP3    H160106   2.584   3.699  13.731 -0.9285 -2.2093  1.4022
12897TIP3    H260107   2.655   3.619  13.624 -0.4405  0.1264 -0.0988
12898TIP3   OH260108   1.352   2.482  14.092 -0.4690  0.1721  0.0503
12898TIP3    H160109   1.408   2.512  14.162 -1.2156  0.9497  0.3306
12898TIP3    H260110   1.395   2.513  14.012  0.6962 -1.2272  0.0950
12899TIP3   OH260111   4.876   1.105   1.912 -0.3177  0.4510 -0.1305
12899TIP3    H160112   4.850   1.050   1.838  3.4539  1.0530 -2.1997
12899TIP3    H260113   4.821   1.183   1.905 -2.3806 -0.9209 -0.0991
12900TIP3   OH260114   2.373   1.481   2.483  0.1180 -0.4214 -0.3787
12900TIP3    H160115   2.332   1.544   2.424  0.4411 -0.1571 -0.3179
12900TIP3    H260116   2.317   1.482   2.561 -0.1459 -0.5623 -0.5626
12901TIP3   OH260117   1.689   1.462  14.674  0.0488 -0.3382  0.2455
12901TIP3    H160118   1.627   1.399  14.711 -1.1489  0.0116 -1.0888
12901TIP3    H260119   1.688   1.444  14.580  1.6448 -0.0033  0.1375
12902TIP3   OH260120   3.958   1.230   6.030 -0.1037 -0.0861 -0.7799
12902TIP3    H160121   3.904   1.242   6.108 -0.0052 -0.0751 -0.7150
12902TIP3    H260122   4.042   1.269   6.051 -0.8685  2.2954 -1.7860
12903TIP3   OH260123   5.806   0.367  14.669  0.3593 -0.2876 -0.3228
12903TIP3    H160124   5.728   0.377  14.724  0.9525  1.4489  0.2690
12903TIP3    H260125   5.772   0.351  14.581 -0.7424  1.9790 -0.3732
12904TIP3   OH260126   6.619   3.353  15.191  0.1579 -0.2173 -0.6876
12904TIP3    H160127   6.531   3.329  15.222  0.3193  1.3171  1.1722
12904TIP3    H260128   6.678   3.293  15.237  0.3781  1.9095  2.0828
12905TIP3   OH260129   2.187   6.788   0.195  0.3433  0.1662 -0.7416
12905TIP3    H160130   2.253   6.723   0.175  1.2309  0.9210 -0.3458
12905TIP3    H260131   2.172   6.834   0.112  0.4627  0.1272 -0.7847
12906TIP3   OH260132   0.897   5.242   6.538 -0.0746  0.1067 -0.1882
12906TIP3    H160133   0.866   5.245   6.448 -0.5298  0.6193 -0.0236
12906TIP3    H260134   0.987   5.275   6.534  0.0735 -0.3284 -0.5155
12907TIP3   OH260135   5.987   3.785  14.269  0.0513 -0.0309 -0.5762
12907TIP3    H160136   5.960   3.721  14.335  0.9319  2.1163  2.0628
12907TIP3    H260137   5.905   3.814  14.228 -0.7265 -0.1749  0.8143
12908TIP3   OH260138   1.397   3.687  14.019 -0.2997  0.0918 -0.0488
12908TIP3    H160139   1.323   3.738  13.986 -1.8380 -0.0827  2.8066
12908TIP3    H260140   1.474   3.733  13.987 -1.6287  1.7240 -1.0659
12909TIP3   OH260141   2.725   5.344  15.303 -0.6337  0.3412 -0.2992
12909TIP3    H160142   2.630   5.350  15.305 -0.6866 -0.4853 -0.2215
12909TIP3    H260143   2.751   5.398  15.227 -1.2612 -0.5973 -1.1951
12910TIP3   OH260144   0.699   0.336  15.012  0.6311 -0.3499 -0.4222
12910TIP3    H160145   0.610   0.308  15.032  0.9717 -0.1233  1.6415
12910TIP3    H260146   0.689   0.407  14.949 -0.9702  2.2346  2.4598
12911TIP3   OH260147   2.020   3.513  16.015 -0.1166 -0.3373  0.0904
12911TIP3    H160148   1.937   3.465  16.017 -1.1135  1.3184  2.1681
12911TIP3    H260149   2.069   3.479  16.089  0.9423 -0.9777 -0.8589
12912TIP3   OH260150   6.218   1.273  12.512  0.6153  0.0105 -0.4300
12912TIP3    H160151   6.183   1.200  12.461  0.5437 -0.6504  0.5577
12912TIP3    H260152   6.164   1.276  12.591  0.5968  1.1570 -0.4642
12913TIP3   OH260153   3.242   6.711   2.108  0.0907 -0.6734 -0.1847
12913TIP3    H160154   3.156   6.746   2.132  0.1104 -0.9089  0.2570
12913TIP3    H260155   3.303   6.783   2.126  0.2271 -1.1519  1.4664
12914TIP3   OH260156   4.524   1.606   2.985  0.4587 -0.0350 -0.4359
12914TIP3    H160157   4.467   1.667   2.938 -0.6704  1.1596  2.2759
12914TIP3    H260158   4.464   1.544   3.026  1.4497 -1.4367 -1.0051
12915TIP3   OH260159   0.101   4.830  13.232  0.6825  0.2551  0.3565
12915TIP3    H160160   0.007   4.814  13.239  0.6315  0.1590 -0.4640
12915TIP3    H260161   0.136   4.805  13.317 -0.3290  2.5163  1.5296
12916TIP3   OH260162   3.869   1.361   5.152 -0.6942 -0.0781 -0.0761
12916TIP3    H160163   3.815   1.332   5.079 -4.3304  1.0729  1.9373
12916TIP3    H260164   3.923   1.285   5.173 -0.6784 -0.9447 -2.8490
12917TIP3   OH260165   3.202   5.454  12.227 -0.2387  0.2934 -0.5151
12917TIP3    H160166   3.154   5.386  12.275 -0.9669 -1.1679 -3.1070
12917TIP3    H260167   3.279   5.409  12.194 -0.1126  1.0580 -1.2804
12918TIP3   OH260168   1.161   5.491   1.552 -0.1838  0.1236 -0.0722
12918TIP3    H160169   1.084   5.473   1.606 -0.6037  0.6511 -0.4781
12918TIP3    H260170   1.154   5.430   1.479  0.3134 -0.4998  0.3945
12919TIP3   OH260171   0.267   1.643  12.582  1.1506 -0.1663  0.8025
12919TIP3    H160172   0.296   1.724  12.623  0.2676  0.4484  0.2550
12919TIP3    H260173   0.338   1.620  12.521  0.5978  1.2482 -0.4336
12920TIP3   OH260174   1.786   5.403   0.491  0.4711  0.0787 -0.3966
12920TIP3    H160175   1.852   5.400   0.561 -0.7302  1.6770  0.8801
12920TIP3    H260176   1.750   5.491   0.496 -2.3839 -0.9963 -0.4604
12921TIP3   OH260177   1.042   1.797  13.832  0.0870  0.0728  0.0422
12921TIP3    H160178   0.992   1.856  13.775  0.2032 -0.5367 -0.7143
12921TIP3    H260179   1.006   1.811  13.919 -0.9646  0.1202 -0.3861
12922TIP3   OH260180   1.612   3.799  15.926 -0.4738 -0.1400 -0.0547
12922TIP3    H160181   1.579   3.770  15.842  0.2574 -1.5121  0.1041
12922TIP3    H260182   1.689   3.853  15.904  0.1453 -1.0823 -0.2643
12923TIP3   OH260183   1.312   2.093   0.764 -0.2831  0.1433 -0.6178
12923TIP3    H160184   1.350   2.156   0.703 -0.3534  0.7209 -0.0751
12923TIP3    H260185   1.341   2.007   0.732  2.5346  0.6000  0.4882
12924TIP3   OH260186   5.727   5.369   0.000  0.0634 -0.1805  0.0181
12924TIP3    H160187   5.669   5.392   0.072  1.8184 -1.0424  1.8240
12924TIP3    H260188   5.724   5.273  -0.003  0.3964 -0.1747 -0.7349
12925TIP3   OH260189   0.103   2.367  13.301 -0.1417 -0.8395 -0.2905
12925TIP3    H160190   0.074   2.370  13.210 -0.3594 -0.8912 -0.2234
12925TIP3    H260191   0.025   2.391  13.352  0.4783  1.2630 -0.2094
12926TIP3   OH260192   3.192   5.394  15.311 -0.2564 -0.6724 -0.1612
12926TIP3    H160193   3.271   5.383  15.258 -1.4205 -1.7065 -1.7717
12926TIP3    H260194   3.152   5.307  15.311 -1.9942  0.1016 -0.3859
12927TIP3   OH260195   4.522   5.346  11.908 -0.7154  0.1746  0.1979
12927TIP3    H160196   4.550   5.262  11.945  0.3200  0.3353 -0.1617
12927TIP3    H260197   4.543   5.411  11.976 -1.7470  0.1273  0.5761
12928TIP3   OH260198   3.110   0.068  12.279 -0.9289 -0.0248  0.2130
12928TIP3    H160199   3.182   0.121  12.244 -1.4983 -0.0796 -1.1258
12928TIP3    H260200   3.112   0.083  12.373  2.1912 -1.6742  0.5325
12929TIP3   OH260201   3.289   6.642  16.521  0.4915 -0.0105 -0.1425
12929TIP3    H160202   3.254   6.731  16.525 -0.7333 -0.4669 -0.3221
12929TIP3    H260203   3.218   6.586  16.553  0.9051 -1.0107 -0.8948
12930TIP3   OH260204   2.773   4.085  12.175  0.2989 -0.2874 -0.2784
12930TIP3    H160205   2.725   4.167  12.167  0.3366 -0.0741  1.3200
12930TIP3    H260206   2.706   4.019  12.190  0.3897 -0.2467  0.3178
12931TIP3   OH260207   0.786   1.364  12.100  0.4036 -0.1915 -0.5218
12931TIP3    H160208   0.873   1.329  12.079  0.8110  0.2388  0.3714
12931TIP3    H260209   0.739   1.364  12.017  1.1373 -0.7761 -0.9480
12932TIP3   OH260210   4.846   5.269   6.195 -0.1842  0.5223 -0.1075
12932TIP3    H160211   4.823   5.247   6.285 -0.9286 -0.1257 -0.4392
12932TIP3    H260212   4.886   5.356   6.201  1.4382 -0.2586  1.0582
12933TIP3   OH260213   4.201   6.324  13.674  0.4463 -0.2907  0.4113
12933TIP3    H160214   4.200   6.414  13.640 -0.1023 -0.7182 -0.7321
12933TIP3    H260215   4.117   6.316  13.720 -0.5829 -0.9343 -1.4816
12934TIP3   OH260216   5.406   1.037   0.086 -0.3373  0.3015  0.5847
12934TIP3    H160217   5.476   1.055   0.148 -1.4146 -2.4344  2.7965
12934TIP3    H260218   5.413   0.943   0.067 -0.9319  0.7442 -2.4258
12935TIP3   OH260219   0.693   4.614  13.188 -0.2711 -0.3017 -0.4567
12935TIP3    H160220   0.710   4.577  13.275 -1.7785 -2.2937 -0.9416
12935TIP3    H260221   0.764   4.677  13.175  1.7169 -2.0783  1.0118
12936TIP3   OH260222   4.605   4.355   5.746  0.3014  0.1097 -0.1267
12936TIP3    H160223   4.653   4.420   5.797 -2.2084  0.7983  1.5812
12936TIP3    H260224   4.570   4.404   5.672  1.0396 -0.0765 -0.6104
12937TIP3   OH260225   0.383   2.702   2.515 -0.2022  0.4124  0.3793
12937TIP3    H160226   0.466   2.746   2.494 -0.5666  0.6958 -0.5479
12937TIP3    H260227   0.406   2.610   2.524  0.0832  0.3337 -0.8836
12938TIP3   OH260228   0.232   6.609  16.736 -0.1205  0.4991  0.2236
12938TIP3    H160229   0.159   6.670  16.724  0.1604  0.5798 -1.2882
12938TIP3    H260230   0.222   6.546  16.665 -0.7441 -1.6171  2.0843
12939TIP3   OH260231   2.463   5.919   1.031 -0.2776  0.2062  0.5891
12939TIP3    H160232   2.371   5.933   1.010  0.4551  1.5547 -2.1984
12939TIP3    H260233   2.469   5.825   1.050 -2.2797  0.1954  1.3796
12940TIP3   OH260234   3.069   0.241  15.533  0.1088 -0.0146  0.0580
12940TIP3    H160235   3.119   0.248  15.614 -2.3920  0.4981  1.6833
12940TIP3    H260236   3.079   0.326  15.490 -0.7087  0.7041  1.2395
12941TIP3   OH260237   0.387   0.465  11.043 -0.4771 -0.3098 -0.3935
12941TIP3    H160238   0.335   0.524  10.988  0.9370 -0.3698 -1.8716
12941TIP3    H260239   0.399   0.387  10.990 -1.3261 -1.5012  1.0936
12942TIP3   OH260240   4.340   4.603   3.706  0.2639 -0.4459 -0.1498
12942TIP3    H160241   4.421   4.652   3.726 -0.8782  1.0284  1.1369
12942TIP3    H260242   4.368   4.536   3.644  2.4398  0.1595  0.0683
12943TIP3   OH260243   2.277   3.279  13.966  0.3277 -0.2038  0.3513
12943TIP3    H160244   2.210   3.283  13.898 -1.1121 -3.8551  1.2825
12943TIP3    H260245   2.358   3.259  13.919  0.6853  3.1097 -0.6799
12944TIP3   OH260246   5.008   5.359   5.736 -0.1494  0.3600  0.1936
12944TIP3    H160247   4.917   5.356   5.765  0.2095 -3.4759  1.5438
12944TIP3    H260248   5.003   5.358   5.641 -1.4695  1.4719  0.2255
12945TIP3   OH260249   4.849   1.975  13.120  0.0754 -0.0760 -0.6068
12945TIP3    H160250   4.939   1.947  13.104  0.0765  0.0201 -0.7727
12945TIP3    H260251   4.817   1.917  13.190  0.2107 -0.2186 -0.6637
12946TIP3   OH260252   1.068   0.865  15.217  0.0732  0.0875 -0.0538
12946TIP3    H160253   0.986   0.848  15.170 -0.3109  1.6943 -0.0174
12946TIP3    H260254   1.070   0.800  15.286 -0.4838 -0.8480 -0.8909
12947TIP3   OH260255   2.822   5.736   3.368 -0.2048 -0.1508 -0.1736
12947TIP3    H160256   2.762   5.811   3.373 -0.9476 -0.7162 -0.5002
12947TIP3    H260257   2.792   5.676   3.436 -0.3638 -0.6845 -0.7071
12948TIP3   OH260258   4.463   4.876  13.779 -0.0908  0.1214 -0.0974
12948TIP3    H160259   4.463   4.832  13.864 -2.5373 -0.9242 -0.5599
12948TIP3    H260260   4.372   4.902  13.765  0.9116  3.8568 -0.6741
12949TIP3   OH260261   2.817   3.162   2.143 -0.0191 -0.2680  0.1962
12949TIP3    H160262   2.903   3.121   2.147  0.9303  1.6718  1.6940
12949TIP3    H260263   2.773   3.134   2.223  0.0143  0.3135  0.4255
12950TIP3   OH260264   1.779   0.772  12.991 -0.1587 -0.0093  0.2544
12950TIP3    H160265   1.857   0.826  12.982 -0.9564  1.2257  0.4774
12950TIP3    H260266   1.741   0.798  13.075 -0.9057 -0.4681  0.0713
12951TIP3   OH260267   3.799   0.718  16.671  0.2342  0.8504 -0.4394
12951TIP3    H160268   3.819   0.730  16.764 -1.5714  0.6892  0.0020
12951TIP3    H260269   3.840   0.634  16.649 -2.7125 -1.2437  1.3401
12952TIP3   OH260270   0.170   5.031   4.511 -0.9459  0.2878 -0.6648
12952TIP3    H160271   0.260   5.064   4.504 -1.1201  0.9677  0.0392
12952TIP3    H260272   0.174   4.963   4.577 -1.3440  2.0378  1.2801
12953TIP3   OH260273   0.679   1.171  16.110 -0.1442 -0.2821  1.0183
12953TIP3    H160274   0.706   1.081  16.094  0.6478  0.1406 -0.1939
12953TIP3    H260275   0.656   1.205  16.023  0.4667  0.9467  1.3131
12954TIP3   OH260276   0.752   4.458  13.421 -0.0071 -0.1391  0.9651
12954TIP3    H160277   0.829   4.493  13.465  1.1091 -1.9366  0.5491
12954TIP3    H260278   0.683   4.462  13.487  0.5647  0.9854  1.5243
12955TIP3   OH260279   5.181   1.273   2.289  0.1860  0.3114  0.0139
12955TIP3    H160280   5.211   1.364   2.302  0.7714 -0.0935  1.7607
12955TIP3    H260281   5.094   1.282   2.250 -1.2118  1.7716  3.0833
12956TIP3   OH260282   5.308   1.644   5.694 -0.0814  0.1973  0.0443
12956TIP3    H160283   5.245   1.679   5.757 -1.2030 -0.3911 -0.7362
12956TIP3    H260284   5.258   1.584   5.639  0.9035  0.5587 -1.3106
12957TIP3   OH260285   2.095   4.513  13.351  0.3206  0.8438 -0.4381
12957TIP3    H160286   2.019   4.479  13.398  1.5406 -2.7713 -0.7655
12957TIP3    H260287   2.062   4.533  13.264 -0.4946  0.2912 -0.2655
12958TIP3   OH260288   0.593   2.082   1.576  1.1264  0.0247  0.0515
12958TIP3    H160289   0.677   2.038   1.579  0.8554 -0.5061 -0.1279
12958TIP3    H260290   0.582   2.108   1.484  0.6247 -0.8315 -0.1391
12959TIP3   OH260291   4.007   0.942   4.671  0.1962  0.0479  0.7027
12959TIP3    H160292   4.075   0.874   4.673  3.4173  2.9805  1.0125
12959TIP3    H260293   3.981   0.946   4.579  1.3899 -0.3444  0.3184
12960TIP3   OH260294   2.622   2.092   2.241 -0.5233 -0.2760 -0.5838
12960TIP3    H160295   2.608   2.079   2.148  2.0294 -0.6652 -0.9749
12960TIP3    H260296   2.644   2.005   2.275 -1.4089 -0.1365  0.3950
12961TIP3   OH260297   6.221   2.340   4.121 -0.4475  0.2021 -0.1233
12961TIP3    H160298   6.298   2.388   4.151 -0.0827 -1.8299  2.5457
12961TIP3    H260299   6.255   2.269   4.068 -0.6251  0.3485 -0.4346
12962TIP3   OH260300   1.570   4.234   6.412  0.3961  0.0613  0.5599
12962TIP3    H160301   1.530   4.148   6.399  0.9460 -0.0423 -0.5197
12962TIP3    H260302   1.497   4.296   6.403  0.3071 -0.1816 -0.4541
12963TIP3   OH260303   5.976   2.682   5.769 -0.0887 -0.1267 -0.1941
12963TIP3    H160304   6.007   2.610   5.714  0.4381 -0.3850  0.4350
12963TIP3    H260305   5.882   2.685   5.753 -0.7814 -3.1522  2.2409
12964TIP3   OH260306   0.584   2.136   0.823 -0.4132 -0.4476  0.6889
12964TIP3    H160307   0.637   2.206   0.784 -1.7739 -0.8465 -2.1249
12964TIP3    H260308   0.637   2.057   0.812  0.0002 -0.2951  1.4662
12965TIP3   OH260309   2.848   6.674  14.286 -0.5355 -0.1273 -0.0366
12965TIP3    H160310   2.930   6.634  14.256 -0.6937 -0.7876  0.3921
12965TIP3    H260311   2.820   6.728  14.213 -0.5250 -1.1332 -0.8112
12966TIP3   OH260312   3.687   5.137  12.365 -0.0498 -0.4171  0.0137
12966TIP3    H160313   3.645   5.222  12.380  1.0031  0.4878 -1.7120
12966TIP3    H260314   3.623   5.073  12.393 -0.8844  0.9416  1.3827
12967TIP3   OH260315   5.762   6.481   5.677 -0.4655  0.3493 -0.1212
12967TIP3    H160316   5.754   6.408   5.616  1.3451  0.7515 -0.9034
12967TIP3    H260317   5.786   6.440   5.760 -0.5542 -0.0281 -0.2776
12968TIP3   OH260318   6.243   4.523   2.602  0.4879 -0.0783 -0.1555
12968TIP3    H160319   6.186   4.550   2.530  1.7082  0.7368 -0.8341
12968TIP3    H260320   6.332   4.539   2.570  1.0994 -0.9400  1.0401
12969TIP3   OH260321   6.245   3.410  11.155  0.5964  0.5151  0.1846
12969TIP3    H160322   6.258   3.464  11.077 -0.8972  1.0748  0.3042
12969TIP3    H260323   6.261   3.320  11.126  4.5547  1.0104  0.2964
12970TIP3   OH260324   4.542   5.978  14.327 -0.3060  0.1380 -0.5240
12970TIP3    H160325   4.560   5.952  14.417 -0.8986  1.9276  0.1505
12970TIP3    H260326   4.622   6.020  14.297 -0.4617  0.4588 -0.4860
12971TIP3   OH260327   5.589   4.124   0.084 -0.1145 -0.4569  0.5498
12971TIP3    H160328   5.668   4.119   0.138  0.3301 -2.6278 -0.2275
12971TIP3    H260329   5.534   4.051   0.114 -1.6622  0.7249  0.7572
12972TIP3   OH260330   5.211   2.576   5.228 -0.4061 -0.1448  0.3069
12972TIP3    H160331   5.154   2.640   5.270 -0.6228  0.4924 -0.9063
12972TIP3    H260332   5.295   2.584   5.274 -0.5081  0.8250  0.3475
12973TIP3   OH260333   4.324   2.152  14.935 -0.1835  0.1998 -0.1589
12973TIP3    H160334   4.401   2.096  14.926 -0.7872 -0.6978  0.1459
12973TIP3    H260335   4.261   2.117  14.872 -0.7609  0.1868  0.4113
12974TIP3   OH260336   1.020   3.273  14.803  0.7471 -0.4745 -0.3197
12974TIP3    H160337   1.082   3.275  14.730 -0.6149  0.6589 -1.5199
12974TIP3    H260338   1.000   3.365  14.820  1.5261 -0.6715  1.9709
12975TIP3   OH260339   0.009   3.649  14.437  0.1283 -0.0816 -0.3393
12975TIP3    H160340   0.028   3.639  14.530  2.6794 -0.2910 -0.8175
12975TIP3    H260341   0.015   3.743  14.421 -2.0585  0.1702 -0.0257
12976TIP3   OH260342   3.775   1.043   2.640 -0.0127 -0.6432 -0.2067
12976TIP3    H160343   3.800   1.134   2.653 -0.2930 -0.4363 -1.0443
12976TIP3    H260344   3.720   1.022   2.715  0.3622 -0.2414  0.1844
12977TIP3   OH260345   2.234   0.252  15.310  0.5283  0.6520  0.0654
12977TIP3    H160346   2.170   0.192  15.348  1.3482  1.4366  2.9349
12977TIP3    H260347   2.314   0.200  15.302  0.6981  0.7995  0.6953
12978TIP3   OH260348   0.114   6.763   3.733 -0.7327  0.0305  0.6468
12978TIP3    H160349   0.064   6.832   3.777  1.1471  1.7317  0.2424
12978TIP3    H260350   0.127   6.795   3.644  1.5603 -0.0346  0.8923
12979TIP3   OH260351   4.685   6.151  16.215 -0.1596  0.7730  0.0365
12979TIP3    H160352   4.742   6.109  16.279  1.9640 -1.9569 -3.2604
12979TIP3    H260353   4.725   6.237  16.199  0.3609  0.7181  1.0088
12980TIP3   OH260354   4.590   0.532   3.328 -0.1722 -0.6365  0.4411
12980TIP3    H160355   4.564   0.464   3.266 -1.2468 -0.2849  0.4864
12980TIP3    H260356   4.668   0.497   3.371  1.4758 -0.3015 -2.0755
12981TIP3   OH260357   1.485   2.813  14.810 -0.0105 -0.6260  0.6517
12981TIP3    H160358   1.459   2.789  14.899  0.4846 -0.0805  0.9507
12981TIP3    H260359   1.462   2.736  14.757 -1.0342 -0.6565  1.1070
12982TIP3   OH260360   1.027   5.513  10.914 -0.5563 -0.1046 -0.0190
12982TIP3    H160361   1.099   5.483  10.968  0.3645  1.2002 -0.4580
12982TIP3    H260362   1.046   5.478  10.827 -1.3900 -1.1918  0.2196
12983TIP3   OH260363   0.370   2.662  11.640 -0.1407  0.5096 -0.1448
12983TIP3    H160364   0.391   2.745  11.681 -0.6977 -0.3386  1.9770
12983TIP3    H260365   0.307   2.684  11.571  0.0311  1.8742  0.1200
12984TIP3   OH260366   6.442   3.682  13.210  0.1171 -0.4569  0.0354
12984TIP3    H160367   6.504   3.722  13.149  0.6148 -0.8782  0.2549
12984TIP3    H260368   6.491   3.610  13.250 -0.4755 -0.7185  0.3055
12985TIP3   OH260369   6.420   2.574  16.981  0.0574 -0.0665  0.1757
12985TIP3    H160370   6.470   2.655  16.973 -2.1592  1.5541  1.4595
12985TIP3    H260371   6.358   2.578  16.908  0.0031 -0.6577  0.1907
12986TIP3   OH260372   3.625   0.658   1.606  0.5179 -0.3249  0.5488
12986TIP3    H160373   3.664   0.571   1.613 -0.8299 -0.9881  0.2647
12986TIP3    H260374   3.588   0.662   1.518  0.9734  0.7342  0.3840
12987TIP3   OH260375   6.383   4.566   3.630  0.4507 -0.2408  0.0719
12987TIP3    H160376   6.301   4.530   3.662  0.1282  1.3285  1.1309
12987TIP3    H260377   6.360   4.652   3.596  1.6014  0.1095  0.1268
12988TIP3   OH260378   3.972   3.915  16.778 -0.3726 -0.0131 -0.0037
12988TIP3    H160379   4.040   3.862  16.736  0.1508  0.6580 -0.0079
12988TIP3    H260380   3.989   3.906  16.872  1.6127  2.5115 -0.0059
12989TIP3   OH260381   4.588   1.836  14.377 -0.0173 -0.3135 -0.1943
12989TIP3    H160382   4.601   1.928  14.400 -1.6792 -0.2475  0.6093
12989TIP3    H260383   4.603   1.832  14.283  2.6912  0.2418  0.1350
12990TIP3   OH260384   2.367   4.229   0.252  0.4642 -0.3303 -0.3169
12990TIP3    H160385   2.444   4.286   0.245 -0.0140  0.8315  2.4044
12990TIP3    H260386   2.390   4.167   0.322 -0.6398 -0.7488 -0.3079
12991TIP3   OH260387   4.622   3.008   2.365 -0.8445 -0.8412  0.3637
12991TIP3    H160388   4.648   3.021   2.274 -1.0080  0.7049  0.5089
12991TIP3    H260389   4.631   2.914   2.380  1.6090 -0.8051 -0.5000
12992TIP3   OH260390   4.325   2.908   1.602  0.2108 -0.0198 -0.3253
12992TIP3    H160391   4.377   2.942   1.530 -1.0741  2.4819 -0.1905
12992TIP3    H260392   4.386   2.900   1.676  0.9104  0.2635 -0.8698
12993TIP3   OH260393   2.649   2.384   0.772  0.0804  0.0796  0.1247
12993TIP3    H160394   2.741   2.395   0.746  0.2824  1.8828  1.4356
12993TIP3    H260395   2.605   2.355   0.693  1.6545 -0.1701 -0.7015
12994TIP3   OH260396   6.512   2.961  16.391 -0.3300  0.1462 -0.3318
12994TIP3    H160397   6.509   3.020  16.467 -1.4241 -0.8227  0.4003
12994TIP3    H260398   6.474   3.013  16.320  0.4301  0.9551 -0.1835
12995TIP3   OH260399   1.074   5.827  13.230 -0.0491 -0.7505  0.0509
12995TIP3    H160400   0.990   5.781  13.227 -0.6141  0.1439  1.4246
12995TIP3    H260401   1.093   5.838  13.323  1.2481 -0.2998 -0.2376
12996TIP3   OH260402   0.720   3.545   1.233  0.2354  0.5377 -0.3037
12996TIP3    H160403   0.806   3.550   1.275 -0.4183  0.8387  1.0608
12996TIP3    H260404   0.668   3.613   1.276 -0.5632  0.6644 -1.4218
12997TIP3   OH260405   2.928   3.332  15.838  0.2588  0.6971  0.2609
12997TIP3    H160406   2.838   3.363  15.838  0.8508  2.5230 -0.3255
12997TIP3    H260407   2.971   3.380  15.767  0.9327 -2.5935 -1.7724
12998TIP3   OH260408   5.079   5.362   6.423 -0.1678 -0.5104  0.2874
12998TIP3    H160409   5.031   5.442   6.446 -0.9735 -0.3103 -1.9135
12998TIP3    H260410   5.071   5.307   6.501  1.7677  2.0684  2.5504
12999TIP3   OH260411   6.012   6.543  15.564  0.3149  0.4673 -0.5325
12999TIP3    H160412   6.000   6.638  15.563 -1.1625  0.3858  1.8068
12999TIP3    H260413   5.945   6.511  15.624  0.3836 -2.1461 -1.7020
13000TIP3   OH260414   1.399   1.698   0.071 -0.4545 -0.0941 -0.1098
13000TIP3    H160415   1.430   1.788   0.059 -3.9759  1.5588  1.7272
13000TIP3    H260416   1.466   1.644   0.029  2.3892  3.2675 -0.3586
13001TIP3   OH260417   4.642   6.012   4.117  0.1074 -0.2774  0.0494
13001TIP3    H160418   4.732   5.979   4.113 -0.1200 -0.9917  0.5790
13001TIP3    H260419   4.614   6.015   4.025  0.6153 -0.1887 -0.1086
13002TIP3   OH260420   1.530   4.677  11.275 -0.0101 -1.2462 -0.1624
13002TIP3    H160421   1.465   4.698  11.343  0.0648 -0.2087 -0.4081
13002TIP3    H260422   1.495   4.716  11.195  0.8259 -0.8325 -0.3362
13003TIP3   OH260423   0.857   5.415  17.134  0.3057  0.4153  0.1255
13003TIP3    H160424   0.938   5.427  17.083  0.1080 -0.1690 -0.3312
13003TIP3    H260425   0.795   5.376  17.073 -0.3180  0.8273  0.4868
13004TIP3   OH260426   2.084   6.333   2.993  0.1981 -0.3427 -0.1227
13004TIP3    H160427   2.157   6.388   3.022  0.0242  0.2674 -0.8093
13004TIP3    H260428   2.011   6.395   2.983 -0.4555 -0.9624  0.6784
13005TIP3   OH260429   1.256   2.794  11.303  0.0447  0.0880  0.3338
13005TIP3    H160430   1.265   2.716  11.248  0.3716  0.4677 -0.1518
13005TIP3    H260431   1.300   2.863  11.255 -1.3170  0.8740  0.1641
13006TIP3   OH260432   4.354   3.821   6.465 -0.3986 -0.2825 -0.3388
13006TIP3    H160433   4.342   3.813   6.371 -1.7504 -1.7741 -0.0832
13006TIP3    H260434   4.360   3.730   6.496 -3.5776 -0.0225  1.4094
13007TIP3   OH260435   5.145   3.370   3.734 -0.0700 -1.0576  0.6396
13007TIP3    H160436   5.110   3.433   3.796 -2.8975 -0.3831 -1.4644
13007TIP3    H260437   5.142   3.286   3.781 -0.2314 -0.2831  2.0607
13008TIP3   OH260438   2.126   4.779  15.215  0.3228 -0.8079 -0.1122
13008TIP3    H160439   2.178   4.777  15.135  0.8264 -0.4046  0.2018
13008TIP3    H260440   2.128   4.870  15.244  0.1035 -0.9367  0.3275
13009TIP3   OH260441   6.352   0.935  16.058 -0.2249 -0.1187 -0.4024
13009TIP3    H160442   6.354   0.967  16.148  0.3099  1.8965 -1.0733
13009TIP3    H260443   6.272   0.973  16.022  0.1830  0.0923 -1.0996
13010TIP3   OH260444   1.929   4.006  14.057 -0.3058  0.0287  0.1190
13010TIP3    H160445   1.884   4.076  14.105 -1.0832  0.2259 -0.8498
13010TIP3    H260446   1.919   4.030  13.965 -1.1704 -1.6811 -0.2759
13011TIP3   OH260447   5.310   6.162  14.360  0.3163  0.0745  0.3805
13011TIP3    H160448   5.222   6.177  14.325  0.8980  1.1298 -0.7120
13011TIP3    H260449   5.331   6.072  14.336  0.5067  0.6223 -1.6500
13012TIP3   OH260450   1.386   6.174   1.026 -0.1442 -0.4666  0.4956
13012TIP3    H160451   1.309   6.141   1.072  0.6554 -2.0297  0.7823
13012TIP3    H260452   1.394   6.265   1.054 -1.0777 -0.6939  1.5409
13013TIP3   OH260453   3.486   6.355   5.883 -0.1402  0.6956 -0.1479
13013TIP3    H160454   3.449   6.273   5.852 -1.5859  2.2591 -2.9318
13013TIP3    H260455   3.430   6.380   5.957 -0.5183 -0.1805 -0.1349
13014TIP3   OH260456   0.880   3.063  15.878 -0.3002 -0.3960 -0.0036
13014TIP3    H160457   0.806   3.092  15.931 -0.3189  2.3535 -1.3474
13014TIP3    H260458   0.849   3.070  15.788  1.4707  0.6150 -0.5943
13015TIP3   OH260459   2.101   0.086  14.679 -0.2315  0.2128 -0.2744
13015TIP3    H160460   2.176   0.088  14.620  0.2499 -0.2731  0.2970
13015TIP3    H260461   2.140   0.093  14.767 -1.0317  2.8361 -0.0396
13016TIP3   OH260462   6.418   1.753  13.894  0.3269 -0.0328  0.3421
13016TIP3    H160463   6.475   1.827  13.910  1.3376 -0.9575  1.1615
13016TIP3    H260464   6.422   1.739  13.799  1.8821 -0.4062  0.4476
13017TIP3   OH260465   1.471   2.687   3.910 -0.3050 -0.5367  0.7070
13017TIP3    H160466   1.492   2.741   3.834  1.1368  1.4779  2.3688
13017TIP3    H260467   1.377   2.699   3.923 -0.5153 -0.6765 -0.5592
13018TIP3   OH260468   5.583   1.053  13.091  0.3913 -0.5791  0.0313
13018TIP3    H160469   5.498   1.064  13.135  0.3647 -0.4245 -0.0576
13018TIP3    H260470   5.563   1.004  13.012  0.4147 -0.7120  0.1064
13019TIP3   OH260471   4.906   5.077   5.890 -0.1065  0.1576  0.7256
13019TIP3    H160472   4.999   5.065   5.908  0.0270 -2.2630 -1.1213
13019TIP3    H260473   4.862   5.020   5.953 -0.3257  0.8563  1.2130
13020TIP3   OH260474   0.149   0.394   3.329 -0.2567 -0.4203 -0.0180
13020TIP3    H160475   0.112   0.463   3.383  2.4970  3.1371 -2.2329
13020TIP3    H260476   0.108   0.406   3.243  1.0408 -0.7795 -0.7175
13021TIP3   OH260477   0.492   0.924   0.716 -0.6226 -0.1506  0.4938
13021TIP3    H160478   0.411   0.902   0.669 -1.3656  0.4075  1.4917
13021TIP3    H260479   0.470   0.913   0.808 -0.3663  2.5185  0.9418
13022TIP3   OH260480   1.662   0.537  14.855  0.4141 -0.2821  0.4701
13022TIP3    H160481   1.716   0.532  14.776  0.2404  0.7581  0.2767
13022TIP3    H260482   1.650   0.445  14.881  0.1030 -0.6777 -0.9532
13023TIP3   OH260483   1.854   0.045  14.560  0.0727  0.5743 -0.0535
13023TIP3    H160484   1.859  -0.016  14.487 -0.5436 -0.2435  0.5735
13023TIP3    H260485   1.943   0.045  14.597  0.4224  1.0798 -0.8334
13024TIP3   OH260486   5.952   3.417  15.676 -0.1140 -0.2306 -0.0911
13024TIP3    H160487   5.957   3.426  15.771  1.5495  0.2891 -0.2088
13024TIP3    H260488   5.894   3.489  15.648  0.0875  0.1460  0.4540
13025TIP3   OH260489   2.989   0.322   6.056  0.5735 -0.6661 -0.0563
13025TIP3    H160490   3.004   0.393   5.993 -0.3812  1.0138  1.5467
13025TIP3    H260491   2.900   0.292   6.037  0.7032 -0.9460 -0.2346
13026TIP3   OH260492   2.675   1.622   5.626 -0.3535  0.3918  0.0163
13026TIP3    H160493   2.741   1.567   5.668 -0.7339 -0.5040 -0.5510
13026TIP3    H260494   2.687   1.607   5.532  0.8226  2.7458 -0.3077
13027TIP3   OH260495   3.450   3.462   5.704  0.4996  0.5739 -0.3500
13027TIP3    H160496   3.387   3.518   5.750 -1.7142 -0.3538 -2.1024
13027TIP3    H260497   3.446   3.378   5.750 -0.2194  0.2520 -0.9865
13028TIP3   OH260498   2.013   2.692   4.401  0.3086 -0.5645 -0.2297
13028TIP3    H160499   2.013   2.597   4.409  2.4084 -0.6723 -0.8653
13028TIP3    H260500   1.923   2.718   4.420 -0.4421 -2.7114 -0.5738
13029TIP3   OH260501   5.101   6.657   5.667 -0.1027  0.1138 -0.0754
13029TIP3    H160502   5.011   6.660   5.700 -0.1833 -0.9810 -0.1586
13029TIP3    H260503   5.155   6.678   5.743 -0.4241  1.2344 -0.1276
13030TIP3   OH260504   5.086   6.006   2.407  0.5911  0.4687 -0.0760
13030TIP3    H160505   5.063   6.098   2.395 -0.5243  0.2151  0.0075
13030TIP3    H260506   5.070   5.966   2.322  2.3072  0.5772 -0.4809
13031TIP3   OH260507   6.744   6.515   4.998 -0.6389 -0.3988 -0.1769
13031TIP3    H160508   6.785   6.527   4.912  1.0704 -2.6111  0.2457
13031TIP3    H260509   6.767   6.594   5.047  2.4862 -1.1218 -0.2703
13032TIP3   OH260510   0.482   2.434   0.684 -0.1204 -0.4017 -0.8179
13032TIP3    H160511   0.429   2.357   0.706  1.1393 -1.2206 -0.5491
13032TIP3    H260512   0.572   2.403   0.687  0.3411  0.6025 -2.6723
13033TIP3   OH260513   6.405   5.339  13.332 -0.2413  0.1131  0.3193
13033TIP3    H160514   6.337   5.375  13.276  0.4796 -0.2748 -0.8296
13033TIP3    H260515   6.460   5.288  13.274 -0.7605 -2.2124  1.7332
13034TIP3   OH260516   1.166   4.042  15.984 -0.6994  0.7340  0.1118
13034TIP3    H160517   1.170   4.128  15.942 -0.7260  0.7442  0.1308
13034TIP3    H260518   1.200   3.981  15.918 -3.2270  0.3548 -0.9471
13035TIP3   OH260519   4.055   4.289   5.167  0.0274 -0.1601 -0.0242
13035TIP3    H160520   3.989   4.258   5.104 -0.1404  1.4671 -0.6893
13035TIP3    H260521   4.005   4.306   5.246 -0.3546  0.9698 -0.4953
13036TIP3   OH260522   3.001   3.108  11.101  0.3357 -0.6820 -0.0862
13036TIP3    H160523   3.076   3.120  11.160  1.2291  0.1858 -1.3395
13036TIP3    H260524   3.040   3.107  11.013 -1.0964 -0.6147 -0.7443
13037TIP3   OH260525   5.458   4.174  14.849 -0.4027  0.1096 -0.2870
13037TIP3    H160526   5.401   4.130  14.912 -0.5851  1.9364  0.9218
13037TIP3    H260527   5.482   4.107  14.786 -1.2748 -1.4878  1.0176
13038TIP3   OH260528   4.500   6.267   4.177  0.4220  0.0713  0.0523
13038TIP3    H160529   4.446   6.234   4.105 -0.2443  0.9999  0.1187
13038TIP3    H260530   4.564   6.197   4.192  0.0160 -0.5155 -0.8458
13039TIP3   OH260531   1.244   1.630  15.373 -0.3634 -0.1567 -0.2396
13039TIP3    H160532   1.298   1.670  15.305 -0.0645 -0.3790 -0.1361
13039TIP3    H260533   1.229   1.700  15.437 -0.2395 -0.0837 -0.2918
13040TIP3   OH260534   3.459   0.373   2.772  0.2423 -0.0076  0.1611
13040TIP3    H160535   3.421   0.304   2.719  1.5034  0.0616 -0.9021
13040TIP3    H260536   3.535   0.403   2.722  0.3999  1.3590  1.1320
13041TIP3   OH260537   3.909   4.540   3.498  0.2765 -0.4030 -0.4788
13041TIP3    H160538   3.872   4.514   3.582 -0.6285 -0.6336 -0.9398
13041TIP3    H260539   3.986   4.593   3.521  0.0345 -0.4536  0.4850
13042TIP3   OH260540   1.675   5.184  11.664 -0.3103  0.1007  1.2198
13042TIP3    H160541   1.697   5.118  11.598 -1.3777 -1.2885  2.1977
13042TIP3    H260542   1.723   5.156  11.742  1.3325  2.0036  0.9553
13043TIP3   OH260543   2.304   0.147   4.407  0.3594  0.1195  0.9077
13043TIP3    H160544   2.242   0.076   4.395 -0.1397  0.8089 -0.7739
13043TIP3    H260545   2.250   0.222   4.431  0.7387  0.2906  1.2370
13044TIP3   OH260546   5.637   6.352   4.186  0.1990 -0.5344  0.3363
13044TIP3    H160547   5.590   6.278   4.147  0.2827  0.2489 -1.3147
13044TIP3    H260548   5.674   6.317   4.267  0.9767 -2.5449 -0.8389
13045TIP3   OH260549   1.849   5.482   1.703  0.0476 -0.1833 -0.3740
13045TIP3    H160550   1.831   5.391   1.726  0.7979 -0.1942  0.2065
13045TIP3    H260551   1.941   5.484   1.677 -0.0272  0.3635 -0.6248
13046TIP3   OH260552   1.613   0.266   0.970 -0.8431 -0.2564 -0.1879
13046TIP3    H160553   1.539   0.205   0.973 -0.8310 -0.2565  0.2394
13046TIP3    H260554   1.690   0.211   0.983 -0.8408 -0.1435  0.3300
13047TIP3   OH260555   0.276   4.945  16.419  0.2123  0.5363 -0.3090
13047TIP3    H160556   0.217   4.918  16.348  0.9290 -0.0568 -0.6968
13047TIP3    H260557   0.290   5.039  16.403 -0.8214  0.7532 -0.0482
13048TIP3   OH260558   1.641   1.191   3.681 -0.0634 -0.0765  0.0626
13048TIP3    H160559   1.581   1.126   3.643 -0.1062  1.5125 -2.8338
13048TIP3    H260560   1.606   1.206   3.769 -1.2246 -2.4480  0.1009
13049TIP3   OH260561   6.580   2.084  12.847  0.3506  0.3379  0.2361
13049TIP3    H160562   6.563   2.111  12.757  0.9579 -0.0906 -0.0119
13049TIP3    H260563   6.556   1.992  12.850 -0.0942  0.4622  0.6341
13050TIP3   OH260564   4.783   6.169  16.932  0.3572 -0.3667 -0.5404
13050TIP3    H160565   4.831   6.242  16.970 -1.8496  1.1489 -0.5295
13050TIP3    H260566   4.840   6.137  16.862  3.2786 -1.4725  2.0976
13051TIP3   OH260567   6.692   5.076   6.178  0.0885 -0.5114  0.2161
13051TIP3    H160568   6.638   5.149   6.149 -1.2688 -1.7547 -0.5239
13051TIP3    H260569   6.758   5.116   6.234 -0.8676  1.2200  0.1783
13052TIP3   OH260570   3.957   2.919  15.761 -1.0499 -0.0609  0.2051
13052TIP3    H160571   4.028   2.869  15.801 -1.4030  0.2670  1.2489
13052TIP3    H260572   3.962   2.896  15.668  1.5251  1.3091 -0.0845
13053TIP3   OH260573   5.587   0.970  13.370  0.0148 -0.7039  0.1661
13053TIP3    H160574   5.630   0.919  13.302 -1.1658 -0.2411 -0.9720
13053TIP3    H260575   5.502   0.928  13.383 -0.0064 -0.4490  0.9649
13054TIP3   OH260576   5.962   5.209   5.089 -0.4072  0.0554 -0.4301
13054TIP3    H160577   5.925   5.225   5.002 -3.6035 -0.9468  0.6237
13054TIP3    H260578   5.942   5.288   5.139 -2.4199 -0.9944  0.5133
13055TIP3   OH260579   0.003   2.710   5.330 -0.1017 -0.2164 -0.4963
13055TIP3    H160580   0.075   2.768   5.307 -0.1630 -0.3923 -1.1408
13055TIP3    H260581  -0.053   2.762   5.388  0.6257 -0.1336  0.1476
13056TIP3   OH260582   2.757   5.705   1.133  0.5415 -0.4493  0.3168
13056TIP3    H160583   2.694   5.766   1.095  1.9033 -0.0353 -1.4280
13056TIP3    H260584   2.839   5.755   1.136  1.0221 -1.2675  1.6322
13057TIP3   OH260585   1.620   0.121  11.516  0.6379 -0.6948  0.4488
13057TIP3    H160586   1.661   0.081  11.439  1.8088 -1.2643  1.3449
13057TIP3    H260587   1.580   0.201  11.482  1.6313 -0.6398 -0.6601
13058TIP3   OH260588   4.144   2.497   4.700 -0.0335  0.2771  0.2694
13058TIP3    H160589   4.212   2.460   4.755 -0.2334  0.7581  0.8489
13058TIP3    H260590   4.066   2.444   4.718 -0.0537  0.3196  0.3059
13059TIP3   OH260591   3.700   4.396  12.441 -0.3084  0.0552  0.2126
13059TIP3    H160592   3.685   4.490  12.436 -0.6123  0.0203  0.4793
13059TIP3    H260593   3.614   4.357  12.425 -0.2801 -0.1689  0.5971
13060TIP3   OH260594   1.274   1.610  13.594 -0.0130 -0.0324 -0.0060
13060TIP3    H160595   1.345   1.585  13.535 -1.5729  0.4042 -2.1780
13060TIP3    H260596   1.317   1.622  13.679  2.0205 -2.5983 -0.5368
13061TIP3   OH260597   0.630   1.626  15.766  0.7798  0.2153  0.0736
13061TIP3    H160598   0.655   1.702  15.819  1.4555  0.8583 -1.1233
13061TIP3    H260599   0.630   1.553  15.827  0.3674  1.1312  1.2044
13062TIP3   OH260600   5.305   3.228   1.403  0.1507 -0.0792 -0.4008
13062TIP3    H160601   5.362   3.166   1.358  0.9538  0.0833  0.3690
13062TIP3    H260602   5.219   3.185   1.403  0.7355 -1.2919  0.3032
13063TIP3   OH260603   0.173   0.478   4.638  0.1173  0.8604 -1.0009
13063TIP3    H160604   0.180   0.383   4.644  0.8432  0.9733  0.2378
13063TIP3    H260605   0.263   0.509   4.640 -0.1581  1.6302 -0.0816
13064TIP3   OH260606   1.616   0.424  13.147  0.3118  0.3613  0.3692
13064TIP3    H160607   1.670   0.458  13.075 -0.2137  0.3256 -0.0466
13064TIP3    H260608   1.528   0.417  13.110  0.3418 -1.1429  0.5518
13065TIP3   OH260609   0.706   2.443   6.099  0.0048  0.4193  0.0947
13065TIP3    H160610   0.692   2.387   6.022  0.5002 -0.7767  0.8528
13065TIP3    H260611   0.704   2.532   6.064  0.2527 -0.0987 -1.3048
13066TIP3   OH260612   1.194   6.604   1.029 -0.1187  0.3675  0.2311
13066TIP3    H160613   1.226   6.537   0.970  1.1982  1.6150 -0.5512
13066TIP3    H260614   1.208   6.686   0.982 -1.0209  1.2423  1.4278
13067TIP3   OH260615   2.079   1.077   5.197 -0.0815  0.0299 -0.2549
13067TIP3    H160616   2.071   1.159   5.245 -0.3323  1.1070 -2.0560
13067TIP3    H260617   2.100   1.103   5.108  0.0917 -1.8907 -0.8238
13068TIP3   OH260618   4.805   3.339  16.736  0.5910  0.3337 -0.1022
13068TIP3    H160619   4.741   3.346  16.666  0.2527 -0.5242  0.0987
13068TIP3    H260620   4.841   3.427  16.746 -1.4062  1.1133  0.5901
13069TIP3   OH260621   3.755   5.093  15.711  0.1763 -0.5085 -0.4751
13069TIP3    H160622   3.742   5.188  15.709  0.9903 -0.3566  0.6703
13069TIP3    H260623   3.815   5.075  15.639  0.3658 -0.0912 -0.4231
13070TIP3   OH260624   6.227   3.943  10.940 -0.3523  0.0577 -0.1135
13070TIP3    H160625   6.241   4.030  10.902 -1.7125  0.2103 -0.2972
13070TIP3    H260626   6.271   3.883  10.880  1.5419  0.6818  0.5838
13071TIP3   OH260627   6.459   4.232  11.925 -0.2303 -0.4210  0.1701
13071TIP3    H160628   6.407   4.160  11.961  1.1027 -1.0901  0.8249
13071TIP3    H260629   6.441   4.305  11.983  0.0678 -0.8322  0.7908
13072TIP3   OH260630   1.397   0.064   4.851  0.7063 -0.1758  0.4107
13072TIP3    H160631   1.387   0.095   4.761  0.2383 -3.3209 -0.7491
13072TIP3    H260632   1.325   0.003   4.863 -0.3217  1.4710  3.6321
13073TIP3   OH260633   1.569   6.411   6.106  0.1217 -0.3969 -0.0467
13073TIP3    H160634   1.611   6.495   6.126 -0.2371 -0.0575 -0.6984
13073TIP3    H260635   1.620   6.347   6.155  0.5653  0.1711  0.2486
13074TIP3   OH260636   1.113   5.483  13.140 -0.1695 -0.5356  0.0487
13074TIP3    H160637   1.195   5.489  13.091 -0.1492 -0.9540  0.0294
13074TIP3    H260638   1.061   5.556  13.107 -0.0273 -0.6124 -0.3554
13075TIP3   OH260639   5.067   2.084   5.655  0.2507 -0.1410  0.0981
13075TIP3    H160640   5.126   2.127   5.717 -0.0076 -1.0017  0.9611
13075TIP3    H260641   4.982   2.124   5.671  0.1812 -0.3737  0.3137
13076TIP3   OH260642   2.936   3.113   0.621  0.0192 -0.0449 -0.3765
13076TIP3    H160643   2.964   3.142   0.534 -0.5436  0.2920 -0.4508
13076TIP3    H260644   2.942   3.018   0.617 -1.0721 -0.1118 -1.1836
13077TIP3   OH260645   3.696   4.608   1.256  0.3765  0.2891 -0.0997
13077TIP3    H160646   3.724   4.686   1.210  0.1623  0.2247 -0.3405
13077TIP3    H260647   3.624   4.573   1.204  2.9878 -2.3419 -2.3028
13078TIP3   OH260648   5.437   3.405  16.179 -0.5097  0.2016  0.2132
13078TIP3    H160649   5.375   3.340  16.213 -0.8638  0.5858  0.3194
13078TIP3    H260650   5.504   3.413  16.247 -0.0218 -0.6443 -0.1589
13079TIP3   OH260651   3.534   1.683  13.475 -0.1998  0.3421 -0.1128
13079TIP3    H160652   3.447   1.655  13.446 -0.7677 -0.8726  2.4992
13079TIP3    H260653   3.587   1.604  13.470 -0.1004  0.3064  1.2564
13080TIP3   OH260654   5.224   0.498  15.050  0.6465 -0.4985 -0.1122
13080TIP3    H160655   5.229   0.451  15.133 -2.6932 -0.1781  0.4256
13080TIP3    H260656   5.209   0.429  14.984  1.5393 -0.5984 -0.2287
13081TIP3   OH260657   6.318   1.885  11.377 -0.0522  0.5377 -0.4411
13081TIP3    H160658   6.260   1.832  11.323 -0.7406  2.2695 -1.4659
13081TIP3    H260659   6.279   1.884  11.464 -1.0203  0.7687 -0.8666
13082TIP3   OH260660   3.088   3.238   6.004  0.2831  0.2231  0.1118
13082TIP3    H160661   3.106   3.144   6.003 -2.0147 -0.2700  0.1988
13082TIP3    H260662   3.103   3.266   5.914  0.4201 -0.3371 -0.0446
13083TIP3   OH260663   2.850   3.450   1.548  0.2938  0.1837 -0.3257
13083TIP3    H160664   2.764   3.474   1.513  0.2655  0.3683 -0.1367
13083TIP3    H260665   2.889   3.533   1.574  0.2230  0.0374  0.2758
13084TIP3   OH260666   5.020   1.997  12.482 -0.2193 -0.4036  0.4157
13084TIP3    H160667   4.976   2.036  12.406  1.1872  2.9317  1.1206
13084TIP3    H260668   5.101   1.960  12.447 -0.5659 -0.8167  0.0320
13085TIP3   OH260669   4.733   5.640   4.516  0.2515  0.0305  0.3275
13085TIP3    H160670   4.811   5.588   4.533 -0.8346 -1.4841  0.9332
13085TIP3    H260671   4.679   5.627   4.594 -0.0405  2.1807  0.5516
13086TIP3   OH260672   2.026   2.593   3.388 -0.0879  0.0122 -0.2173
13086TIP3    H160673   2.060   2.644   3.314 -2.0801  1.9995  0.1469
13086TIP3    H260674   2.033   2.652   3.463 -2.5896 -0.1450  0.2086
13087TIP3   OH260675   0.763   5.669  17.004 -0.0256  0.2695 -0.3227
13087TIP3    H160676   0.831   5.604  17.020 -0.8871 -0.6840 -0.4195
13087TIP3    H260677   0.762   5.680  16.909 -1.9749 -1.9915 -0.6694
13088TIP3   OH260678   4.538   5.668   0.044  0.5123 -0.2928  0.3825
13088TIP3    H160679   4.486   5.741   0.009 -0.3694 -1.9207 -1.9695
13088TIP3    H260680   4.482   5.629   0.111 -0.6330 -0.9432 -0.8924
13089TIP3   OH260681   1.003   0.382   3.622 -0.0962  0.0804 -0.3767
13089TIP3    H160682   1.039   0.397   3.534 -0.3063 -0.5146 -0.5617
13089TIP3    H260683   0.927   0.326   3.608  1.2406 -2.0612  0.3814
13090TIP3   OH260684   6.147   6.516   3.694  0.5523  0.2655  0.5379
13090TIP3    H160685   6.214   6.459   3.731 -0.1045 -1.3720 -0.6731
13090TIP3    H260686   6.066   6.491   3.739  0.7803  2.9038  2.7175
13091TIP3   OH260687   4.121   0.930  16.836 -0.4388  0.6711  0.8797
13091TIP3    H160688   4.125   0.835  16.848  0.7296  0.6495  0.4220
13091TIP3    H260689   4.037   0.956  16.875 -1.0992 -0.6345  0.3737
13092TIP3   OH260690   3.227   5.126  15.071 -0.2469  0.0160 -0.7550
13092TIP3    H160691   3.195   5.111  15.160  0.0629 -2.3629 -0.9717
13092TIP3    H260692   3.164   5.187  15.034 -0.4383  0.9842  1.0501
13093TIP3   OH260693   5.478   6.058   5.832 -0.7111  0.3571 -0.1178
13093TIP3    H160694   5.459   6.124   5.765 -0.1494  0.5108 -0.1268
13093TIP3    H260695   5.414   6.076   5.901 -1.7221 -0.2118 -0.8817
13094TIP3   OH260696   0.441   3.164   3.022 -0.3373 -0.5714 -0.0965
13094TIP3    H160697   0.413   3.126   3.106  0.6388  0.7945  0.9022
13094TIP3    H260698   0.490   3.242   3.047 -1.5062  0.8580 -2.0252
13095TIP3   OH260699   6.776   1.736   2.303 -0.4124  0.1957 -1.5211
13095TIP3    H160700   6.806   1.712   2.391 -2.2232  0.3187 -0.8151
13095TIP3    H260701   6.805   1.664   2.247 -0.1860 -0.4274 -0.6170
13096TIP3   OH260702   2.070   5.788  14.087 -0.2072  1.0287 -0.0017
13096TIP3    H160703   2.012   5.795  14.010 -1.8698 -1.5500  0.8734
13096TIP3    H260704   2.010   5.787  14.162  1.2083  1.1388  1.1662
13097TIP3   OH260705   6.728   4.577   5.326  0.1173  0.7289 -0.2436
13097TIP3    H160706   6.659   4.604   5.386 -1.8857 -0.3329 -1.9459
13097TIP3    H260707   6.710   4.626   5.246  3.1981  2.7470  0.1068
13098TIP3   OH260708   1.050   1.704   1.926  0.0157  0.0099 -0.0092
13098TIP3    H160709   1.086   1.617   1.909  0.3059 -0.0446  0.8302
13098TIP3    H260710   0.985   1.717   1.856  0.5577 -0.5286 -0.6244
13099TIP3   OH260711   0.330   4.018   1.001 -0.1854 -0.5446  0.2647
13099TIP3    H160712   0.355   4.090   1.059  0.3189 -0.7581  0.3178
13099TIP3    H260713   0.248   4.047   0.961  0.4074  0.3980 -0.2980
13100TIP3   OH260714   6.126   1.578   3.374 -0.5665 -0.0814  0.5314
13100TIP3    H160715   6.113   1.611   3.463 -0.5764  0.9698  0.1513
13100TIP3    H260716   6.078   1.640   3.318  0.4504 -0.0304 -0.3045
13101TIP3   OH260717   1.743   6.556  15.618  0.4960  0.5976  0.3875
13101TIP3    H160718   1.835   6.536  15.637  0.3201  1.1868  2.0489
13101TIP3    H260719   1.740   6.651  15.611 -0.2096  0.7279  1.9407
13102TIP3   OH260720   2.022   2.242   3.622  0.0963 -0.7934  0.1010
13102TIP3    H160721   1.986   2.200   3.544  0.4095 -1.5694  0.3695
13102TIP3    H260722   1.956   2.308   3.645  0.6144  0.3892 -1.5777
13103TIP3   OH260723   2.276   0.728  14.056  0.1830 -0.0530 -0.1092
13103TIP3    H160724   2.320   0.665  14.000  0.8802  0.5232 -0.2170
13103TIP3    H260725   2.204   0.762  14.002 -0.0298 -0.5470 -0.1418
13104TIP3   OH260726   5.992   0.606   2.459  0.5231  0.1549 -0.2801
13104TIP3    H160727   6.062   0.586   2.396  0.5563 -0.3833 -0.0790
13104TIP3    H260728   6.013   0.552   2.535 -0.4897 -0.5262 -0.4700
13105TIP3   OH260729   1.254   4.546  15.817  0.1856 -0.1979  0.4121
13105TIP3    H160730   1.346   4.521  15.825 -0.1555 -0.8598  3.3206
13105TIP3    H260731   1.207   4.463  15.812 -0.3241  0.1302 -0.4956
13106TIP3   OH260732   5.596   4.623   3.700 -0.4352 -0.6419 -0.8920
13106TIP3    H160733   5.666   4.581   3.650  0.1454  1.0631 -1.5557
13106TIP3    H260734   5.529   4.644   3.634  0.2393  1.4219 -0.9788
13107TIP3   OH260735   3.788   2.093  13.274 -0.5334  0.3179  0.8071
13107TIP3    H160736   3.808   2.104  13.367  0.7477 -0.3533  0.6379
13107TIP3    H260737   3.818   2.173  13.233 -2.1934  1.1388  1.0860
13108TIP3   OH260738   3.034   2.798  11.507 -0.6707  1.0340 -0.2770
13108TIP3    H160739   3.039   2.888  11.474 -1.1276  1.6181  1.1539
13108TIP3    H260740   3.125   2.776  11.530 -0.5407  1.0781 -0.7360
13109TIP3   OH260741   5.428   6.242  12.568 -0.0685 -0.0310  0.2901
13109TIP3    H160742   5.524   6.239  12.570 -0.0807  0.0876  1.7165
13109TIP3    H260743   5.408   6.329  12.534  0.3416  0.2925  0.8532
13110TIP3   OH260744   4.579   0.392   1.430 -0.1854 -0.0556 -0.0954
13110TIP3    H160745   4.625   0.474   1.411 -0.3742  0.0575 -0.0702
13110TIP3    H260746   4.648   0.333   1.462 -0.3295  0.7305  1.8538
13111TIP3   OH260747   5.229   2.181   5.870  0.2555 -0.0739 -0.1693
13111TIP3    H160748   5.233   2.095   5.912 -2.7682 -1.7624 -2.8748
13111TIP3    H260749   5.202   2.241   5.940  2.4388 -1.2248  1.7811
13112TIP3   OH260750   4.860   0.156   0.616  0.0252 -0.1798 -0.2970
13112TIP3    H160751   4.952   0.132   0.623  0.5304  1.0213 -2.2135
13112TIP3    H260752   4.814   0.091   0.669  1.9849 -0.5630  1.0451
13113TIP3   OH260753   1.120   4.799   3.873  0.4183  0.0923  0.3481
13113TIP3    H160754   1.044   4.775   3.820  0.5789  0.4533 -0.0531
13113TIP3    H260755   1.166   4.716   3.888  0.1310 -0.0769  0.3048
13114TIP3   OH260756   4.979   4.441  11.960  0.5360 -0.1964 -0.3377
13114TIP3    H160757   5.045   4.384  11.923  0.4489  0.0166 -0.8321
13114TIP3    H260758   5.024   4.525  11.973  0.4864 -0.1832 -0.2513
13115TIP3   OH260759   4.121   3.890  17.024 -0.0816  0.2625 -0.0306
13115TIP3    H160760   4.077   3.885  17.109 -0.0815 -1.5151 -0.1050
13115TIP3    H260761   4.159   3.978  17.022 -3.0824  1.7154  0.2837
13116TIP3   OH260762   6.275   4.272   2.342 -0.2993  0.4766  0.5473
13116TIP3    H160763   6.359   4.290   2.384  2.1058 -0.3330 -3.3842
13116TIP3    H260764   6.264   4.177   2.348  0.0017  0.3717 -0.4978
13117TIP3   OH260765   3.162   2.491   0.928 -0.8516  0.3950 -0.2931
13117TIP3    H160766   3.133   2.580   0.910 -0.9239  0.6717  1.1298
13117TIP3    H260767   3.129   2.471   1.015  0.9747 -0.2402  0.3099
13118TIP3   OH260768   4.456   1.831   0.291 -0.5357 -0.1156  0.3263
13118TIP3    H160769   4.390   1.772   0.255 -0.3190 -0.0244 -0.2270
13118TIP3    H260770   4.539   1.795   0.262 -0.3766  0.1525  0.4460
13119TIP3   OH260771   6.545   4.594   1.033  0.2923 -0.2431 -1.0749
13119TIP3    H160772   6.491   4.528   0.988  0.1212 -1.5950  0.9644
13119TIP3    H260773   6.634   4.558   1.030  0.1997 -0.6148  0.0427
13120TIP3   OH260774   0.093   5.318   0.091 -0.1542  0.6295  0.0762
13120TIP3    H160775   0.023   5.374   0.057 -2.3188 -2.1141 -0.3535
13120TIP3    H260776   0.174   5.358   0.060 -1.5035  3.7339  0.2568
13121TIP3   OH260777   0.231   0.540  14.832 -0.2669 -0.0552 -0.6043
13121TIP3    H160778   0.187   0.618  14.864 -1.2544 -0.7403 -0.2432
13121TIP3    H260779   0.166   0.470  14.839  0.8328 -1.0848 -0.1831
13122TIP3   OH260780   4.571   3.445  14.995  0.3480  0.4088 -0.2952
13122TIP3    H160781   4.519   3.495  15.057  0.4996  1.4617 -0.9894
13122TIP3    H260782   4.658   3.440  15.034 -0.4119 -2.1515  1.3160
13123TIP3   OH260783   2.179   1.030  13.204 -0.0655 -0.1506 -0.0311
13123TIP3    H160784   2.156   1.099  13.266  0.1661  0.6698 -0.8474
13123TIP3    H260785   2.265   1.000  13.232 -1.5991 -2.7512  2.6131
13124TIP3   OH260786   2.969   0.049   3.592 -0.4454 -0.1521 -0.2436
13124TIP3    H160787   2.888   0.096   3.613 -1.2896 -1.5045 -0.3157
13124TIP3    H260788   2.940  -0.040   3.573  1.2608 -1.1413  1.4527
13125TIP3   OH260789   0.928   5.202  11.535 -0.0276 -0.3249 -0.0591
13125TIP3    H160790   0.852   5.218  11.480 -0.0572 -0.0759  0.0548
13125TIP3    H260791   0.985   5.148  11.480 -0.5598 -1.0419  0.0832
13126TIP3   OH260792   1.107   4.362   4.627 -0.0629  0.0488 -0.1739
13126TIP3    H160793   1.147   4.309   4.558 -1.2433  0.5283 -1.2663
13126TIP3    H260794   1.092   4.448   4.586  0.6618  0.8598  1.1749
13127TIP3   OH260795   1.319   4.377   1.299 -0.2875 -0.3137 -0.4124
13127TIP3    H160796   1.327   4.421   1.384 -0.4790  0.0398 -0.5782
13127TIP3    H260797   1.337   4.285   1.319  2.4683  0.1327 -0.4592
13128TIP3   OH260798   0.277   1.005  11.587  0.1344 -0.0478  0.7352
13128TIP3    H160799   0.267   0.983  11.680 -0.9001  1.0467  0.9133
13128TIP3    H260800   0.363   0.971  11.563 -0.2244 -1.7439  1.6744
13129TIP3   OH260801   4.949   6.290  13.009 -0.7817 -0.4946 -0.2475
13129TIP3    H160802   4.956   6.270  12.916  3.2326 -0.3583 -0.1420
13129TIP3    H260803   4.930   6.206  13.051 -0.5166 -0.9453 -1.0291
13130TIP3   OH260804   2.064   2.909   2.215  0.1227  1.0412  1.2239
13130TIP3    H160805   2.021   2.987   2.251 -1.0499  0.9165  0.1333
13130TIP3    H260806   2.095   2.937   2.129 -1.5747 -0.0578  0.1965
13131TIP3   OH260807   0.278   6.278   4.801  0.1603 -0.2600 -0.2616
13131TIP3    H160808   0.238   6.364   4.815 -0.2739 -0.7658  1.9311
13131TIP3    H260809   0.205   6.216   4.808  0.9500 -1.0356  1.6584
13132TIP3   OH260810   6.403   1.149  16.876 -0.0534  0.0905 -0.1313
13132TIP3    H160811   6.430   1.100  16.953  0.5360 -0.0567 -0.4275
13132TIP3    H260812   6.356   1.086  16.822 -1.1085  0.3729  0.4348
13133TIP3   OH260813   4.630   1.351   6.200 -0.1689  0.1965 -0.1254
13133TIP3    H160814   4.573   1.288   6.243  2.0798 -2.0820 -0.2395
13133TIP3    H260815   4.668   1.403   6.271  3.7004 -3.6726  1.1432
13134TIP3   OH260816   3.582   4.197   1.989 -1.0326  0.6845 -0.1939
13134TIP3    H160817   3.604   4.225   1.900 -2.0168  0.5728 -0.4913
13134TIP3    H260818   3.534   4.115   1.976 -1.7186  0.9823  0.3974
13135TIP3   OH260819   2.543   3.274   1.187  0.0443  0.3419 -0.2252
13135TIP3    H160820   2.554   3.186   1.223  0.2855  0.7072  0.6139
13135TIP3    H260821   2.475   3.264   1.120  0.7278 -0.6580 -0.8027
13136TIP3   OH260822   5.688   2.104  15.187  0.7674 -0.3071  0.6888
13136TIP3    H160823   5.710   2.197  15.196  0.6805 -0.3174  1.0279
13136TIP3    H260824   5.750   2.071  15.122 -0.4419  0.4028 -0.8833
13137TIP3   OH260825   2.531   1.477   5.978  0.9182  0.6420 -0.1759
13137TIP3    H160826   2.520   1.474   5.883  2.8840  1.7485 -0.5013
13137TIP3    H260827   2.546   1.385   6.003 -1.7512  0.0172 -0.5465
13138TIP3   OH260828   1.420   0.999   5.607 -0.5836 -0.0520  0.6966
13138TIP3    H160829   1.399   0.913   5.570  1.0669  0.8229 -2.6032
13138TIP3    H260830   1.334   1.038   5.626 -1.4362 -1.5509  0.1380
13139TIP3   OH260831   3.536   4.542   4.972  0.3601 -0.1142 -0.1397
13139TIP3    H160832   3.501   4.485   5.041 -1.8725  1.2059 -0.0805
13139TIP3    H260833   3.563   4.621   5.019  0.3918  0.1440 -0.5934
13140TIP3   OH260834   5.211   2.342   4.060  0.4313  0.6539 -0.0343
13140TIP3    H160835   5.231   2.304   4.146  0.2880 -1.5109 -0.9127
13140TIP3    H260836   5.292   2.387   4.035  2.2571 -2.6769 -0.7436
13141TIP3   OH260837   0.636   1.961   5.335  0.0337  0.3495  0.2185
13141TIP3    H160838   0.726   1.930   5.350  0.7949  0.1111 -3.8300
13141TIP3    H260839   0.641   2.056   5.347  1.5821  0.6917 -2.4616
13142TIP3   OH260840   6.470   6.790   4.998  0.1140 -0.4422  0.8371
13142TIP3    H160841   6.479   6.738   5.078 -0.3368 -1.2340  0.3873
13142TIP3    H260842   6.519   6.740   4.932 -0.3804 -0.3344  0.3835
13143TIP3   OH260843   6.655   5.934  17.127  0.2499 -0.1805  0.1257
13143TIP3    H160844   6.578   5.892  17.165  2.3919 -1.0903  4.0236
13143TIP3    H260845   6.625   6.021  17.100 -2.3781 -0.9783  0.2843
13144TIP3   OH260846   3.253   0.608  11.653  0.0199 -0.2494 -0.1708
13144TIP3    H160847   3.300   0.560  11.721 -0.1929 -0.1893  0.0200
13144TIP3    H260848   3.293   0.578  11.571 -0.8900 -1.6619 -0.1418
13145TIP3   OH260849   6.212   2.976   1.894  0.0885 -0.4161 -0.2729
13145TIP3    H160850   6.196   3.070   1.900  0.1412 -0.2722 -1.9161
13145TIP3    H260851   6.237   2.950   1.983 -0.7264  0.9531  0.3894
13146TIP3   OH260852   4.793   0.198   5.557  0.3148 -0.9926  0.6694
13146TIP3    H160853   4.868   0.245   5.591  1.1599 -0.3052 -1.8966
13146TIP3    H260854   4.830   0.133   5.497 -1.0696 -0.0715 -1.3197
13147TIP3   OH260855   2.832   6.438  11.139 -0.1919 -0.8788 -0.2386
13147TIP3    H160856   2.878   6.367  11.094 -0.2900  0.3907 -2.4652
13147TIP3    H260857   2.884   6.516  11.120 -1.8216  0.1677 -0.6045
13148TIP3   OH260858   0.186   3.299   1.035 -0.3959  0.5326  0.3713
13148TIP3    H160859   0.244   3.342   0.972  0.6808 -0.7284  0.4433
13148TIP3    H260860   0.156   3.369   1.092 -0.4526  1.5147 -0.8315
13149TIP3   OH260861   5.650   4.081  12.062  0.5279  0.0779 -1.0094
13149TIP3    H160862   5.622   4.170  12.083 -0.5309 -0.2109 -1.1448
13149TIP3    H260863   5.647   4.035  12.146 -0.4467 -0.2180 -1.1937
13150TIP3   OH260864   2.059   0.986  12.059 -0.3007 -0.0272  0.2693
13150TIP3    H160865   2.142   0.940  12.048 -0.7374 -0.7563 -0.0711
13150TIP3    H260866   2.011   0.969  11.978  0.2035  2.5212 -0.6556
13151TIP3   OH260867   3.550   3.920   4.996  0.4011  0.0903  0.4945
13151TIP3    H160868   3.504   3.991   5.040 -0.6156  1.1576 -2.1123
13151TIP3    H260869   3.640   3.953   4.986  0.4659  0.1178  1.1358
13152TIP3   OH260870   3.701   5.661  15.684  0.2821  0.1825 -0.9085
13152TIP3    H160871   3.699   5.757  15.690  1.0494  0.1893 -0.5726
13152TIP3    H260872   3.792   5.638  15.707  0.2268 -0.5939 -1.4430
13153TIP3   OH260873   5.714   6.754  12.568 -0.1773 -0.0654 -0.0469
13153TIP3    H160874   5.708   6.711  12.653 -1.8200 -0.8483 -0.5346
13153TIP3    H260875   5.659   6.702  12.510 -1.3825  2.0392 -0.9199
13154TIP3   OH260876   1.814   5.948  15.411  0.4179  0.5229 -0.2840
13154TIP3    H160877   1.727   5.980  15.385  0.9475  1.6360 -0.7803
13154TIP3    H260878   1.812   5.855  15.392 -2.2133 -0.5626  3.9017
13155TIP3   OH260879   4.069   6.067   4.648 -0.4235 -0.0148 -0.3723
13155TIP3    H160880   4.136   6.009   4.682 -0.6682 -0.8088 -1.2028
13155TIP3    H260881   4.000   6.009   4.616 -1.3257  0.7666  0.0792
13156TIP3   OH260882   4.765   0.411  13.991 -0.0805 -0.0418 -0.1153
13156TIP3    H160883   4.701   0.348  14.024  0.0298 -0.9180 -1.5274
13156TIP3    H260884   4.834   0.358  13.952  1.4148  0.8935  1.1182
13157TIP3   OH260885   5.258   1.095   2.490 -0.4938 -0.7115  0.4042
13157TIP3    H160886   5.266   1.021   2.429 -0.6756 -0.6561  0.3106
13157TIP3    H260887   5.216   1.164   2.438  2.5490  0.6194 -0.5375
13158TIP3   OH260888   4.953   5.792  12.714  0.0676  0.5446  0.2530
13158TIP3    H160889   5.044   5.819  12.720  0.1363  0.4792 -0.4823
13158TIP3    H260890   4.907   5.870  12.682  0.3632 -0.3453 -2.5266
13159TIP3   OH260891   3.879   1.437  13.866  0.1119  0.4124  0.0405
13159TIP3    H160892   3.802   1.391  13.898  1.2852 -2.6110 -1.0648
13159TIP3    H260893   3.850   1.481  13.786 -0.6168 -0.2519 -0.0704
13160TIP3   OH260894   0.310   4.821  16.662 -0.2060 -0.3347  0.2055
13160TIP3    H160895   0.289   4.869  16.581 -0.0323  0.9092  0.8665
13160TIP3    H260896   0.288   4.730  16.642 -1.9538  0.2181 -0.6380
13161TIP3   OH260897   2.609   4.128   5.605  0.4210  0.2041 -0.6935
13161TIP3    H160898   2.631   4.156   5.516  0.3940  0.7183 -0.5449
13161TIP3    H260899   2.575   4.039   5.595  1.4821 -0.1841 -1.0729
13162TIP3   OH260900   0.075   3.981   3.118 -0.5607  0.3980  0.0211
13162TIP3    H160901   0.143   3.927   3.078 -0.0592  0.3496  0.9247
13162TIP3    H260902   0.000   3.922   3.128 -0.2013  0.0119  0.4882
13163TIP3   OH260903   1.532   4.858  13.414 -0.5873  0.1594 -0.5492
13163TIP3    H160904   1.568   4.846  13.502  0.6836 -0.9374 -1.1788
13163TIP3    H260905   1.609   4.858  13.357 -1.1838  3.1434 -1.4931
13164TIP3   OH260906   5.670   1.443  11.564 -0.2549 -0.3190  0.4475
13164TIP3    H160907   5.750   1.473  11.607 -0.3941 -0.1842  0.6148
13164TIP3    H260908   5.605   1.509  11.586 -0.1844  0.0583 -0.4633
13165TIP3   OH260909   6.081   4.142  13.710  0.0625 -0.1649 -0.3635
13165TIP3    H160910   6.038   4.197  13.646 -0.4668  0.3591  0.4212
13165TIP3    H260911   6.172   4.172  13.711 -0.4162  1.3512  0.7140
13166TIP3   OH260912   3.427   2.457  15.810 -0.3459 -0.2252  0.4555
13166TIP3    H160913   3.508   2.414  15.783 -0.7275 -0.4694 -0.3451
13166TIP3    H260914   3.426   2.539  15.761 -1.6707 -1.2445 -1.4143
13167TIP3   OH260915   0.432   6.342   2.091 -0.2094  0.3015 -0.3189
13167TIP3    H160916   0.392   6.412   2.039 -1.7427 -1.5442 -1.7813
13167TIP3    H260917   0.460   6.278   2.026 -2.0441 -2.0341  1.0521
13168TIP3   OH260918   4.516   1.034  14.340 -0.2807 -0.2995 -0.5004
13168TIP3    H160919   4.462   0.967  14.297 -1.0724  0.4779 -0.7336
13168TIP3    H260920   4.474   1.047  14.425  0.4564 -0.8007 -0.0440
13169TIP3   OH260921   6.304   0.254   5.615 -0.5524 -0.3954 -0.6213
13169TIP3    H160922   6.365   0.201   5.666  1.0542  0.4756 -1.5539
13169TIP3    H260923   6.350   0.337   5.601 -2.4140  0.7343 -0.4302
13170TIP3   OH260924   6.696   0.315  11.812  0.3423  0.2464 -0.1127
13170TIP3    H160925   6.727   0.397  11.850  0.3118 -0.5384  1.7416
13170TIP3    H260926   6.616   0.338  11.766 -1.2042  0.9015  2.6937
13171TIP3   OH260927   0.457   3.909   5.116  0.5700  0.3281 -0.0981
13171TIP3    H160928   0.422   3.823   5.092 -0.5187  0.9400 -0.8144
13171TIP3    H260929   0.432   3.922   5.207  0.9759 -0.2281  0.0914
13172TIP3   OH260930   4.181   3.246  15.066  0.4738 -0.1183  0.7601
13172TIP3    H160931   4.122   3.321  15.061  0.5831 -0.0719  0.1539
13172TIP3    H260932   4.138   3.178  15.014  0.4422 -0.4348  1.1907
13173TIP3   OH260933   5.786   4.178   1.986  0.1696 -0.2738  0.4919
13173TIP3    H160934   5.693   4.157   1.995  0.5237 -1.0437  3.6172
13173TIP3    H260935   5.787   4.271   1.963 -1.3053 -0.8486 -2.4354
13174TIP3   OH260936   2.321   4.023  14.243 -0.2901 -0.4163 -0.4269
13174TIP3    H160937   2.286   4.084  14.179 -0.3377 -0.4118 -0.3959
13174TIP3    H260938   2.281   3.939  14.221 -0.5168 -0.3602 -0.2345
13175TIP3   OH260939   1.539   4.588   3.456  0.1086 -0.4329 -0.5117
13175TIP3    H160940   1.588   4.572   3.375 -1.7199  1.0225 -1.9878
13175TIP3    H260941   1.463   4.530   3.450  0.2576 -0.7590  0.4875
13176TIP3   OH260942   1.933   4.202   2.012 -0.1021 -0.2782 -0.2698
13176TIP3    H160943   1.839   4.218   2.014 -0.2871 -1.3582  0.4467
13176TIP3    H260944   1.968   4.258   2.081 -0.0610  0.9653 -1.2715
13177TIP3   OH260945   6.620   0.427   1.539 -0.0390  0.1621  0.0492
13177TIP3    H160946   6.697   0.371   1.552 -1.4974 -2.4510 -1.7599
13177TIP3    H260947   6.652   0.516   1.555  3.3761 -0.7865 -0.7339
13178TIP3   OH260948   5.005   1.817  10.668  0.2510  0.7535  0.3225
13178TIP3    H160949   4.988   1.767  10.748 -0.2646  0.2595 -0.0829
13178TIP3    H260950   5.056   1.757  10.613 -1.0620  0.3442 -0.4965
13179TIP3   OH260951   3.137   1.785  16.337 -0.6553  0.1801  0.3191
13179TIP3    H160952   3.139   1.722  16.408 -2.2535 -0.7696 -0.4003
13179TIP3    H260953   3.226   1.785  16.301 -0.3654 -0.8868  1.0001
13180TIP3   OH260954   2.963   2.078  11.525  0.3507  0.0418  0.1253
13180TIP3    H160955   2.937   2.168  11.546  2.5160  0.4190  1.4593
13180TIP3    H260956   3.005   2.046  11.604 -1.1987 -2.5415  0.0207
13181TIP3   OH260957   6.601   2.614  15.130  0.0787 -0.2831 -0.2875
13181TIP3    H160958   6.608   2.621  15.225  1.1886 -0.5972 -0.3276
13181TIP3    H260959   6.538   2.682  15.105  0.2501  0.2230  0.6092
13182TIP3   OH260960   2.836   1.788   4.594  0.4272  0.1578  0.3308
13182TIP3    H160961   2.759   1.741   4.626 -1.4525  1.1874 -2.2914
13182TIP3    H260962   2.857   1.746   4.511  1.6657  0.9960  0.1912
13183TIP3   OH260963   3.353   4.356  11.303  0.4492 -0.4410  0.1427
13183TIP3    H160964   3.401   4.274  11.314  1.3313 -0.4514 -2.8371
13183TIP3    H260965   3.416   4.415  11.260 -0.5464  1.3981  1.0978
13184TIP3   OH260966   4.328   1.541   0.845  0.5547  0.1064 -0.6362
13184TIP3    H160967   4.374   1.552   0.928  1.7075  0.0883 -1.2521
13184TIP3    H260968   4.338   1.625   0.800 -1.2310  0.5804 -0.2196
13185TIP3   OH260969   4.089   5.170  11.205 -0.4897 -0.2246 -0.4869
13185TIP3    H160970   4.066   5.236  11.139  0.8959 -0.5258 -1.3046
13185TIP3    H260971   4.015   5.109  11.204 -0.4576 -0.2832 -1.8637
13186TIP3   OH260972   1.774   2.967  11.733  0.2799  0.2847  0.4801
13186TIP3    H160973   1.821   2.946  11.652  0.2997 -1.1084  0.8254
13186TIP3    H260974   1.689   2.998  11.704  0.3177 -0.1198 -0.0843
13187TIP3   OH260975   5.842   2.421  16.647 -0.5437  0.5365  0.6908
13187TIP3    H160976   5.875   2.374  16.724 -0.4857  1.6620  1.3745
13187TIP3    H260977   5.884   2.376  16.573  0.4435  0.2593  1.3889
13188TIP3   OH260978   3.449   2.773  12.416  0.6662  0.4231 -0.2852
13188TIP3    H160979   3.485   2.706  12.474 -1.5472 -0.4955  0.1459
13188TIP3    H260980   3.453   2.854  12.467 -0.6370 -0.2496  0.9669
13189TIP3   OH260981   2.707   5.495  12.020 -0.3418  0.2240 -0.1550
13189TIP3    H160982   2.802   5.505  12.028 -0.2471 -1.3930  1.8303
13189TIP3    H260983   2.671   5.554  12.086 -0.6528  0.0471 -0.1644
13190TIP3   OH260984   6.122   4.981   6.209  0.9018  0.3225  0.4101
13190TIP3    H160985   6.162   5.049   6.154  0.3908  0.9445  0.7811
13190TIP3    H260986   6.195   4.937   6.251  1.3031 -0.1446 -0.7372
13191TIP3   OH260987   6.183   0.364   3.531  0.2684  0.2184  0.3735
13191TIP3    H160988   6.257   0.379   3.590  0.3162 -1.3756  0.7556
13191TIP3    H260989   6.215   0.298   3.469 -0.3508  0.6045 -0.3725
13192TIP3   OH260990   3.576   5.363   0.484 -0.1416  0.0219 -0.0479
13192TIP3    H160991   3.619   5.314   0.553  2.4977  1.6938 -0.3513
13192TIP3    H260992   3.532   5.435   0.528 -0.3969 -0.1772  0.0304
13193TIP3   OH260993   6.105   6.220  17.149 -0.2254  0.1526 -0.2195
13193TIP3    H160994   6.148   6.145  17.190  0.2790  1.6121  2.1518
13193TIP3    H260995   6.011   6.202  17.158 -0.1099 -0.2900  0.1174
13194TIP3   OH260996   6.117   0.343  11.515 -0.1857 -0.0748 -0.1942
13194TIP3    H160997   6.040   0.297  11.481  0.7135 -2.2457  0.5311
13194TIP3    H260998   6.119   0.321  11.608  0.7808  0.7347 -0.0101
13195TIP3   OH260999   6.205   4.494  17.029  0.0314  0.0084  0.1464
13195TIP3    H161000   6.124   4.444  17.019 -1.0258  1.8851 -1.6539
13195TIP3    H261001   6.187   4.577  16.983  1.5217  2.2083  3.1457
13196TIP3   OH261002   3.818   2.156   5.092  0.3138 -0.2877 -0.1711
13196TIP3    H161003   3.802   2.203   5.174  1.5478  0.3178 -0.2590
13196TIP3    H261004   3.756   2.083   5.094 -1.5111  1.1697  0.0958
13197TIP3   OH261005   6.302   1.000  12.524  0.1158 -0.2690  0.2742
13197TIP3    H161006   6.320   0.938  12.454 -0.9788  1.8616 -2.0753
13197TIP3    H261007   6.218   0.971  12.561  0.1236 -0.7644 -0.0846
13198TIP3   OH261008   2.217   1.892   2.187  0.4098  0.2431  0.1092
13198TIP3    H161009   2.142   1.899   2.128 -0.4397  1.7419  1.2928
13198TIP3    H261010   2.286   1.941   2.143  0.6764 -0.9971 -0.9053
13199TIP3   OH261011   5.535   1.313   5.032 -0.5325  0.7050  0.1934
13199TIP3    H161012   5.595   1.249   4.994 -2.3073 -0.6260 -0.5459
13199TIP3    H261013   5.576   1.338   5.115  0.7049 -0.6566  0.0382
13200TIP3   OH261014   3.517   2.492   4.337  0.0961 -0.0581  0.1286
13200TIP3    H161015   3.424   2.474   4.325  0.0654 -3.4410  3.4586
13200TIP3    H261016   3.562   2.416   4.300  1.3785  0.5107  0.4581
13201TIP3   OH261017   1.805   2.879  15.703 -0.3924  0.1746 -0.5389
13201TIP3    H161018   1.727   2.903  15.753 -1.9889 -0.4020 -2.5970
13201TIP3    H261019   1.773   2.869  15.613  2.1424  0.2246 -1.5088
13202TIP3   OH261020   1.419   1.922   6.237  0.6274 -0.3283 -0.5356
13202TIP3    H161021   1.508   1.944   6.266  0.4520 -0.4863  0.1608
13202TIP3    H261022   1.369   2.001   6.255  0.3837 -0.6397  0.2245
13203TIP3   OH261023   1.329   2.704   5.416  0.5657  0.3815  0.0929
13203TIP3    H161024   1.373   2.787   5.435  0.8995  0.1225  0.4755
13203TIP3    H261025   1.345   2.650   5.494  0.4439 -0.0775 -0.1957
13204TIP3   OH261026   4.953   2.598  10.922  0.5947 -0.3735  0.7103
13204TIP3    H161027   4.875   2.610  10.867 -0.0872 -0.1095  1.7081
13204TIP3    H261028   4.926   2.535  10.988  0.7135  0.8681  1.9955
13205TIP3   OH261029   2.558   4.964  17.088  0.7504 -0.4865  0.1103
13205TIP3    H161030   2.599   4.884  17.054  0.4462 -0.8706  0.6285
13205TIP3    H261031   2.566   4.957  17.183 -0.6704 -0.6641  0.2352
13206TIP3   OH261032   5.800   0.522   3.191 -0.2643  0.0475 -0.5531
13206TIP3    H161033   5.800   0.532   3.286  2.4720  1.1398 -0.5709
13206TIP3    H261034   5.821   0.429   3.177 -0.2846 -0.0297 -0.0926
13207TIP3   OH261035   0.432   0.754   6.715  0.6184  0.2475  0.1919
13207TIP3    H161036   0.423   0.818   6.644  2.4169  0.3932  0.0480
13207TIP3    H261037   0.399   0.798   6.793  0.4648  0.8130 -0.1959
13208TIP3   OH261038   4.173   0.345  15.784 -0.2267 -0.1365  0.1171
13208TIP3    H161039   4.253   0.397  15.776  0.5270 -1.3853 -0.8393
13208TIP3    H261040   4.102   0.409  15.781  0.7204  0.9455  0.3615
13209TIP3   OH261041   5.611   2.905  12.734 -0.3486 -0.3004 -0.0373
13209TIP3    H161042   5.521   2.872  12.734 -0.9218  1.1465  1.0980
13209TIP3    H261043   5.602   3.000  12.724  1.1244 -0.2217 -0.9516
13210TIP3   OH261044   3.075   2.785  17.106 -0.1229  0.0655  0.0739
13210TIP3    H161045   3.070   2.697  17.142 -0.3646 -0.1436 -0.4595
13210TIP3    H261046   2.986   2.803  17.074 -0.0220  0.4157 -0.0197
13211TIP3   OH261047   0.591   1.235  13.446 -0.4115 -0.6598 -0.0332
13211TIP3    H161048   0.630   1.152  13.472  0.6263  0.0113  0.6651
13211TIP3    H261049   0.526   1.253  13.513  1.4657  0.5120  1.6034
13212TIP3   OH261050   5.995   0.061  13.891 -0.4520  0.2049  0.3003
13212TIP3    H161051   5.950   0.011  13.822  1.2180 -3.3456  1.5112
13212TIP3    H261052   6.079   0.085  13.852  0.3839 -1.5761  0.8652
13213TIP3   OH261053   3.386   5.343  17.098 -0.2837 -0.9353  0.3733
13213TIP3    H161054   3.481   5.358  17.099 -0.3472 -0.1813 -1.5162
13213TIP3    H261055   3.357   5.369  17.186  1.3656 -2.2260  1.3752
13214TIP3   OH261056   1.695   6.595  16.898  0.1647 -0.3339  0.6401
13214TIP3    H161057   1.672   6.599  16.991  1.4378 -0.4539  0.9796
13214TIP3    H261058   1.782   6.636  16.893  0.5158 -1.1619 -0.3460
13215TIP3   OH261059   5.085   4.878  14.995  0.2114  0.3533  0.4216
13215TIP3    H161060   5.172   4.918  14.999  0.3539  0.1699 -0.6108
13215TIP3    H261061   5.029   4.939  15.044  0.2133  2.4143 -1.9282
13216TIP3   OH261062   1.096   5.885  10.856 -0.2096  0.0382 -0.2364
13216TIP3    H161063   1.168   5.824  10.873 -0.0340 -0.4849 -2.5292
13216TIP3    H261064   1.028   5.832  10.816 -0.7014  1.0430 -0.7862
13217TIP3   OH261065   6.050   1.492   4.782  0.3188  0.3428  0.4035
13217TIP3    H161066   6.012   1.560   4.726  1.8597  2.7873  2.1673
13217TIP3    H261067   6.127   1.461   4.734  0.1129  0.4530 -0.0047
13218TIP3   OH261068   3.742   1.483  17.134 -0.7669 -0.6891  0.1593
13218TIP3    H161069   3.650   1.485  17.111 -1.0959 -1.4645  1.2907
13218TIP3    H261070   3.743   1.480  17.230  0.4803  0.8175  0.2406
13219TIP3   OH261071   1.734   1.717  15.851 -0.5298  0.1754 -0.1844
13219TIP3    H161072   1.757   1.640  15.904 -1.8602  0.2821  0.5940
13219TIP3    H261073   1.737   1.790  15.913  0.1218  0.6750 -0.7846
13220TIP3   OH261074   0.733   1.082   3.408  0.5319  0.6506  0.8912
13220TIP3    H161075   0.708   1.165   3.367  0.4334  0.5637  0.7779
13220TIP3    H261076   0.741   1.020   3.335 -1.0353  0.1298  1.1263
13221TIP3   OH261077   1.638   0.155  14.660  0.0159 -0.0707  0.3153
13221TIP3    H161078   1.708   0.120  14.605 -0.4499  1.4686 -1.3481
13221TIP3    H261079   1.591   0.215  14.603 -0.2203  1.9832  2.5458
13222TIP3   OH261080   5.136   0.338   3.130  0.0985 -0.4980 -0.2983
13222TIP3    H161081   5.077   0.341   3.055  0.9965  0.7578 -0.9995
13222TIP3    H261082   5.087   0.382   3.200  0.1627  0.5169 -0.8661
13223TIP3   OH261083   1.622   1.042  12.410 -0.5102 -0.2298  0.0848
13223TIP3    H161084   1.682   1.038  12.485  0.0805 -0.6379 -0.4012
13223TIP3    H261085   1.548   1.094  12.441  0.1963  0.4689  0.6269
13224TIP3   OH261086   5.050   2.415  12.427 -0.1871  0.0207  0.0429
13224TIP3    H161087   5.041   2.360  12.350  1.1955 -0.4008  0.1530
13224TIP3    H261088   5.139   2.450  12.421 -0.4212  0.8135  0.9125
13225TIP3   OH261089   5.218   2.036  12.748  0.3369  0.3127 -0.7253
13225TIP3    H161090   5.191   2.124  12.721  0.8411  0.7226  0.0493
13225TIP3    H261091   5.306   2.025  12.711  0.0495 -0.0934 -1.2937
13226TIP3   OH261092   1.343   5.154  15.909  0.2679  0.4954 -0.9019
13226TIP3    H161093   1.384   5.154  15.996  1.8941  1.4620 -1.6137
13226TIP3    H261094   1.260   5.107  15.921  1.2976 -1.0173  0.7502
13227TIP3   OH261095   2.751   2.757   1.419 -0.2472  0.5555  0.4347
13227TIP3    H161096   2.831   2.725   1.378 -0.8366 -1.1291  0.5343
13227TIP3    H261097   2.782   2.805   1.496  0.6775  0.0499  0.3974
13228TIP3   OH261098   2.777   0.937  14.566 -0.2282  0.2834 -0.3486
13228TIP3    H161099   2.710   0.950  14.633  0.2198  1.3861 -0.0772
13228TIP3    H261100   2.855   0.911  14.615  0.4702  2.3727 -0.2344
13229TIP3   OH261101   5.428   5.352   4.445 -0.2122 -0.3180  0.0720
13229TIP3    H161102   5.507   5.377   4.397 -1.3067 -0.7463 -2.0632
13229TIP3    H261103   5.453   5.359   4.537  1.4630  2.3155 -0.4809
13230TIP3   OH261104   6.585   4.999  16.952 -0.2079  0.0086  0.2375
13230TIP3    H161105   6.499   5.011  16.991  0.1640  0.7395  0.8501
13230TIP3    H261106   6.646   5.036  17.016  0.5969 -0.8236 -0.0165
13231TIP3   OH261107   5.250   0.432   5.922 -0.0497 -0.4094 -0.5066
13231TIP3    H161108   5.203   0.424   6.005  1.8770  1.5029  0.8766
13231TIP3    H261109   5.307   0.355   5.918 -1.0588 -1.1600 -0.7176
13232TIP3   OH261110   0.976   4.783  10.375  0.4250 -0.0407  0.0964
13232TIP3    H161111   0.992   4.870  10.410  0.8957 -0.3898  0.7858
13232TIP3    H261112   0.986   4.724  10.450  1.4125 -0.8086 -0.6007
13233TIP3   OH261113   0.001   4.626  12.257  0.2220 -0.1252 -0.7449
13233TIP3    H161114  -0.043   4.693  12.206 -0.9974 -0.3252 -0.0053
13233TIP3    H261115   0.089   4.660  12.271  0.0546  0.6770 -1.5444
13234TIP3   OH261116   4.126   2.860  13.190 -0.3825 -0.1051 -0.5222
13234TIP3    H161117   4.043   2.872  13.236 -0.4076  0.5233 -0.7359
13234TIP3    H261118   4.193   2.876  13.257 -0.3672  3.0444 -1.1721
13235TIP3   OH261119   4.774   3.135   4.550  0.5252  0.4411  0.6035
13235TIP3    H161120   4.708   3.194   4.587  0.4064 -0.5412  2.0280
13235TIP3    H261121   4.743   3.047   4.571  0.6543 -0.1839 -1.5619
13236TIP3   OH261122   2.694   0.061  11.175  0.0947 -0.4400 -0.1245
13236TIP3    H161123   2.680   0.096  11.087 -0.0614  1.4812  0.5999
13236TIP3    H261124   2.650  -0.024  11.175 -3.0384  1.0392 -0.9144
13237TIP3   OH261125   1.698   1.278   1.257  0.2598 -0.8381  0.4970
13237TIP3    H161126   1.674   1.213   1.191 -1.6077 -0.2973  0.5909
13237TIP3    H261127   1.681   1.234   1.341  0.2086 -0.6740  0.5728
13238TIP3   OH261128   5.062   0.248   5.063  0.7304 -0.7653  0.3672
13238TIP3    H161129   5.024   0.163   5.041 -0.1394 -0.7721  1.8202
13238TIP3    H261130   5.144   0.250   5.013 -0.2247 -1.5576 -1.3313
13239TIP3   OH261131   1.931   3.424   6.201  0.1261  0.5710 -0.1924
13239TIP3    H161132   1.993   3.356   6.175  0.8841  0.9055  0.6853
13239TIP3    H261133   1.848   3.378   6.214  0.4493 -0.0571 -0.3311
13240TIP3   OH261134   6.377   6.548  15.246  0.2229 -0.4647 -0.1725
13240TIP3    H161135   6.411   6.476  15.194  0.9140 -1.7570  1.9577
13240TIP3    H261136   6.301   6.511  15.291  0.2448  0.3004  0.5087
13241TIP3   OH261137   5.777   3.442  11.071  0.0773 -0.4842  0.1317
13241TIP3    H161138   5.759   3.352  11.045  2.1022 -0.8436 -0.2443
13241TIP3    H261139   5.692   3.478  11.096 -0.5823 -2.9775  1.8359
13242TIP3   OH261140   5.041   5.036   3.965 -0.4405  0.4972  0.3462
13242TIP3    H161141   5.133   5.017   3.981 -0.5275 -0.2722 -0.0178
13242TIP3    H261142   5.034   5.044   3.870 -0.6730  0.9472  0.4032
13243TIP3   OH261143   2.208   3.520  14.269  0.0244  0.5098 -0.3160
13243TIP3    H161144   2.169   3.607  14.272  0.4013  0.6534  0.8941
13243TIP3    H261145   2.161   3.470  14.336  0.1892 -0.0571 -0.6182
13244TIP3   OH261146   6.067   2.524   4.763  0.2611  0.4551  0.0562
13244TIP3    H161147   5.976   2.553   4.764 -0.1711 -0.7926  2.1599
13244TIP3    H261148   6.093   2.530   4.671 -2.3942 -0.5170 -0.8604
13245TIP3   OH261149   5.348   0.874   2.339 -0.1816 -0.1098 -0.1715
13245TIP3    H161150   5.345   0.881   2.244 -2.1694  0.9724 -0.0820
13245TIP3    H261151   5.439   0.894   2.362 -0.0683  1.3877 -1.7285
13246TIP3   OH261152   1.691   3.518  15.310 -0.1583  0.3239  0.6377
13246TIP3    H161153   1.786   3.516  15.318 -0.0912 -1.1510 -0.0559
13246TIP3    H261154   1.659   3.533  15.399  0.7084 -1.5964  1.3270
13247TIP3   OH261155   3.461   1.473  11.175 -0.5220 -0.1892  0.5269
13247TIP3    H161156   3.547   1.466  11.135 -0.2849 -0.4989  1.0705
13247TIP3    H261157   3.472   1.541  11.242 -0.9181  0.3475  0.0480
13248TIP3   OH261158   5.500   3.137   3.960 -0.4479  0.3489 -0.2309
13248TIP3    H161159   5.483   3.080   4.035  1.4932 -0.9844 -0.7144
13248TIP3    H261160   5.457   3.219   3.982 -0.7723 -0.3137  1.8853
13249TIP3   OH261161   2.420   5.459  15.084  0.0389 -0.0647  0.1018
13249TIP3    H161162   2.388   5.420  15.002  0.7394 -0.8953  0.2040
13249TIP3    H261163   2.369   5.539  15.094 -1.2537 -0.8128 -0.2686
13250TIP3   OH261164   6.508   6.205  11.594  0.1834 -0.3672  0.3219
13250TIP3    H161165   6.436   6.252  11.551 -0.6072 -1.8020  0.0335
13250TIP3    H261166   6.491   6.217  11.687 -1.0023 -1.4905  0.2757
13251TIP3   OH261167   2.233   0.732   5.362 -0.0989  0.6262 -0.0793
13251TIP3    H161168   2.184   0.723   5.444  1.9523  0.7816  1.2413
13251TIP3    H261169   2.318   0.768   5.389  1.2593 -0.8727 -2.0574
13252TIP3   OH261170   1.818   2.703  14.081 -0.0193 -0.0689  0.2144
13252TIP3    H161171   1.816   2.632  14.146  0.0345  0.8033  1.2104
13252TIP3    H261172   1.777   2.666  14.003 -0.0325 -1.1738  0.7285
13253TIP3   OH261173   1.862   4.094  13.509 -0.6076 -0.0021  0.3099
13253TIP3    H161174   1.948   4.056  13.493  0.2859  1.3248  1.7021
13253TIP3    H261175   1.872   4.187  13.486 -2.3908 -0.2352 -1.8818
13254TIP3   OH261176   1.388   1.931  11.705 -0.0119 -0.0878 -0.4497
13254TIP3    H161177   1.449   1.981  11.760  0.4262  0.7014 -1.6155
13254TIP3    H261178   1.391   1.842  11.740  3.8910 -0.7948 -2.0720
13255TIP3   OH261179   0.733   4.827  14.271 -0.0342 -0.2571 -0.0293
13255TIP3    H161180   0.781   4.774  14.334  2.3540  1.0087 -0.6444
13255TIP3    H261181   0.677   4.884  14.325 -0.3045 -1.2539  0.7651
13256TIP3   OH261182   1.766   6.622   4.097  0.2488 -0.0396 -0.3686
13256TIP3    H161183   1.760   6.685   4.025 -0.1711  0.4663  0.1031
13256TIP3    H261184   1.710   6.549   4.070  0.6724 -0.1866 -0.8800
13257TIP3   OH261185   6.683   1.568   2.955  0.0666  0.1520 -0.0071
13257TIP3    H161186   6.691   1.535   2.866 -1.1083  1.7754 -0.7554
13257TIP3    H261187   6.678   1.663   2.946 -1.3562  0.2925  1.6818
13258TIP3   OH261188   4.967   1.240   0.541  0.4296 -0.0169 -0.5526
13258TIP3    H161189   4.905   1.313   0.544 -0.4992 -0.7736 -0.7955
13258TIP3    H261190   5.021   1.250   0.619 -0.4783  0.2490  0.0495
13259TIP3   OH261191   1.936   4.422  12.550 -0.0475  0.3400  0.5688
13259TIP3    H161192   1.872   4.354  12.573  0.1532 -0.4436 -1.0397
13259TIP3    H261193   1.988   4.433  12.630  0.2729 -1.8215  0.7279
13260TIP3   OH261194   2.056   4.917  15.631  0.0585  0.1489  0.0057
13260TIP3    H161195   2.120   4.988  15.619 -0.1556  0.5660  1.1721
13260TIP3    H261196   2.106   4.837  15.616  1.1935  0.4076  1.9938
13261TIP3   OH261197   2.439   5.356  15.341  0.0783 -0.0613 -0.0922
13261TIP3    H161198   2.455   5.394  15.254  4.2437 -1.1024  0.0094
13261TIP3    H261199   2.393   5.425  15.389 -1.3280  0.9864 -2.6808
13262TIP3   OH261200   1.230   4.361   5.626 -0.0853  0.1382 -0.6250
13262TIP3    H161201   1.322   4.377   5.604 -0.4054  0.3891 -1.8187
13262TIP3    H261202   1.227   4.368   5.722  1.1071  0.2750 -0.5848
13263TIP3   OH261203   5.219   0.779   4.442 -0.0477  0.4100  0.5011
13263TIP3    H161204   5.217   0.863   4.489 -0.3273  0.9952 -0.5310
13263TIP3    H261205   5.130   0.769   4.408  0.0360 -0.2218  0.4550
13264TIP3   OH261206   2.720   2.398  10.599  0.2244  0.1899 -0.2403
13264TIP3    H161207   2.693   2.351  10.520  2.3071  0.5328 -1.2035
13264TIP3    H261208   2.776   2.337  10.645 -1.6661 -0.3391  1.5081
13265TIP3   OH261209   3.406   5.810  11.759  0.4122  0.1717 -0.5453
13265TIP3    H161210   3.480   5.752  11.777 -0.3442 -1.0589 -1.2905
13265TIP3    H261211   3.329   5.757  11.778 -0.3131  1.5194  0.4785
13266TIP3   OH261212   0.703   5.200   4.242  0.0719 -0.5150  0.2356
13266TIP3    H161213   0.615   5.237   4.236 -0.1906 -1.3916 -2.9139
13266TIP3    H261214   0.689   5.109   4.270 -0.0902 -0.7976 -0.7398
13267TIP3   OH261215   0.703   6.506   3.010 -0.0504 -0.0572  0.0994
13267TIP3    H161216   0.799   6.511   3.007 -0.0250 -0.4741  0.1305
13267TIP3    H261217   0.680   6.452   2.934 -0.3843  1.5087 -0.9665
13268TIP3   OH261218   5.726   4.460   3.457  0.5480 -0.1659  0.8050
13268TIP3    H161219   5.690   4.549   3.453  0.2812 -0.0431  3.8641
13268TIP3    H261220   5.650   4.404   3.443  0.0870  0.1191  2.0336
13269TIP3   OH261221   6.153   6.606   1.989 -0.7914 -0.1461 -0.0666
13269TIP3    H161222   6.077   6.648   1.950 -0.8617  1.5394  1.7104
13269TIP3    H261223   6.119   6.525   2.027 -1.3471 -0.1983 -0.6543
13270TIP3   OH261224   4.662   5.180   3.983 -0.4998 -0.1951 -0.2129
13270TIP3    H161225   4.671   5.100   3.931 -3.7532  1.1790 -3.2250
13270TIP3    H261226   4.750   5.217   3.984  0.9198 -3.2075  0.4868
13271TIP3   OH261227   0.995   1.687  14.566  0.2369  0.4411 -0.4525
13271TIP3    H161228   0.950   1.643  14.494  1.2393  1.1959 -1.5662
13271TIP3    H261229   1.053   1.750  14.524  1.0301  0.7378  1.0144
13272TIP3   OH261230   6.743   2.011   4.026  0.5758 -0.5004 -0.0132
13272TIP3    H161231   6.834   2.036   4.044  1.3425 -1.9284 -1.5993
13272TIP3    H261232   6.746   1.975   3.937 -1.1191 -2.5530  0.6852
13273TIP3   OH261233   4.158   3.140   4.186  0.0848  0.6809  0.3721
13273TIP3    H161234   4.144   3.158   4.279 -2.8497  0.3985  0.1073
13273TIP3    H261235   4.070   3.122   4.153  1.2063 -0.5389 -2.2002
13274TIP3   OH261236   4.312   3.588  16.520 -0.0538 -0.0144  0.5238
13274TIP3    H161237   4.341   3.500  16.545  0.8029  0.1724  0.2069
13274TIP3    H261238   4.390   3.630  16.484 -0.2953  1.1174  1.2771
13275TIP3   OH261239   5.175   3.635  11.121 -0.2726  0.3380 -0.0163
13275TIP3    H161240   5.246   3.698  11.108  0.8712 -1.2879 -2.2934
13275TIP3    H261241   5.097   3.682  11.092  0.4002  1.0656 -0.7236
13276TIP3   OH261242   2.271   2.833   5.570  0.0176  0.6274 -0.2495
13276TIP3    H161243   2.293   2.766   5.634  1.4115  0.8350 -0.4903
13276TIP3    H261244   2.335   2.822   5.500 -1.7119  0.1511 -1.8287
13277TIP3   OH261245   4.422   2.450   3.706  0.1681 -0.3595 -0.9347
13277TIP3    H161246   4.422   2.398   3.786 -0.2317 -0.3423 -0.9253
13277TIP3    H261247   4.336   2.492   3.704  0.1788 -0.3561 -1.3712
13278TIP3   OH261248   2.413   6.573   1.253 -0.3868  0.3828 -0.4392
13278TIP3    H161249   2.439   6.664   1.240  1.4376  0.0680  0.6835
13278TIP3    H261250   2.390   6.568   1.346 -2.3729  0.0941 -0.8985
13279TIP3   OH261251   2.868   4.877  11.933  0.3558  0.1074  0.1482
13279TIP3    H161252   2.888   4.948  11.994  1.2696 -1.1570  1.3727
13279TIP3    H261253   2.891   4.912  11.847 -0.6432  1.8073  0.5197
13280TIP3   OH261254   2.428   0.865   4.439 -0.3372 -0.2892 -0.0141
13280TIP3    H161255   2.481   0.822   4.505  0.5213 -0.4859 -0.8042
13280TIP3    H261256   2.461   0.955   4.437  0.5373 -0.6007 -1.0357
13281TIP3   OH261257   5.423   6.145   1.994 -0.1017  0.6016  0.4726
13281TIP3    H161258   5.373   6.109   2.067 -0.9533  0.4159 -0.1754
13281TIP3    H261259   5.358   6.192   1.942  0.4172  0.4514 -0.3323
13282TIP3   OH261260   5.927   4.503  12.288 -0.0135 -0.3422 -0.3839
13282TIP3    H161261   5.989   4.576  12.286 -1.3844  0.8661 -0.9037
13282TIP3    H261262   5.925   4.472  12.197  1.3385 -1.7660  0.0245
13283TIP3   OH261263   0.741   6.748  11.412 -0.4051  0.3345 -0.1209
13283TIP3    H161264   0.809   6.752  11.344 -0.0429  0.5684  0.2494
13283TIP3    H261265   0.666   6.707  11.369  0.2306 -0.6521 -0.3183
13284TIP3   OH261266   5.054   3.127   2.887  0.1075 -0.0148 -0.0308
13284TIP3    H161267   5.067   3.059   2.953 -2.7615 -2.5513 -1.8021
13284TIP3    H261268   5.119   3.108   2.820 -0.2339 -0.6068 -0.2004
13285TIP3   OH261269   5.050   2.064  16.227  0.1286 -0.2195 -0.6763
13285TIP3    H161270   4.962   2.092  16.201  0.2857  4.0017  2.3259
13285TIP3    H261271   5.108   2.101  16.161 -0.1568 -0.0705 -0.8452
13286TIP3   OH261272   6.354   6.766   1.394 -0.3791  0.0778 -0.0530
13286TIP3    H161273   6.296   6.768   1.319 -0.8459 -2.2574  0.1583
13286TIP3    H261274   6.417   6.696   1.374  0.2127  0.2175  1.2069
13287TIP3   OH261275   2.346   2.946  15.629  0.2916 -0.1229  0.0801
13287TIP3    H161276   2.265   2.960  15.678 -0.1686  0.2904 -0.7850
13287TIP3    H261277   2.404   3.015  15.659 -0.3349  0.7513 -0.6784
13288TIP3   OH261278   6.096   5.020  10.639  0.5601  0.1092  0.6181
13288TIP3    H161279   6.022   5.047  10.693 -1.3162  0.6950 -2.0700
13288TIP3    H261280   6.067   4.940  10.595  1.5259  0.3048 -0.4389
13289TIP3   OH261281   3.932   6.285   5.786 -0.3574 -0.2137 -0.5017
13289TIP3    H161282   4.012   6.294   5.839 -0.5801 -0.3452 -0.1402
13289TIP3    H261283   3.863   6.267   5.850 -1.3682  3.4004 -0.4070
13290TIP3   OH261284   0.229   3.774  17.130 -0.4561  0.2031 -0.0075
13290TIP3    H161285   0.227   3.730  17.045 -2.2732 -0.0598  0.1194
13290TIP3    H261286   0.239   3.867  17.109 -1.5684  0.2156 -0.5826
13291TIP3   OH261287   1.206   0.267  17.121  0.3048  0.1924 -0.0179
13291TIP3    H161288   1.282   0.251  17.176  1.9654 -2.4630 -2.8027
13291TIP3    H261289   1.238   0.326  17.052 -0.4311 -0.1606 -0.6790
13292TIP3   OH261290   3.858   2.353   1.043  0.2649  0.0737  0.0221
13292TIP3    H161291   3.913   2.274   1.043 -1.0396 -0.9194  2.1020
13292TIP3    H261292   3.865   2.387   1.132 -1.5780  0.5747  0.0094
13293TIP3   OH261293   1.876   1.222   4.334 -0.3539 -0.1851 -0.8058
13293TIP3    H161294   1.866   1.166   4.412  0.8525 -1.0023 -1.2034
13293TIP3    H261295   1.952   1.277   4.354 -1.0895  0.8226 -0.7246
13294TIP3   OH261296   4.243   6.688   6.283 -0.2827  0.4750 -0.4451
13294TIP3    H161297   4.265   6.601   6.251  0.6608  0.6522 -0.2973
13294TIP3    H261298   4.318   6.714   6.337 -1.4400  0.5431  1.2146
13295TIP3   OH261299   3.805   1.836   5.628 -0.2486  0.5817  0.2224
13295TIP3    H161300   3.784   1.805   5.540 -1.1796  0.3988  0.5054
13295TIP3    H261301   3.751   1.783   5.687  0.5021  0.5639  0.9297
13296TIP3   OH261302   6.400   1.669   1.567 -0.1600  0.0584  0.1586
13296TIP3    H161303   6.466   1.607   1.534  0.0875  0.4602 -0.1091
13296TIP3    H261304   6.321   1.647   1.518  0.0738  0.3215 -0.3452
13297TIP3   OH261305   5.405   5.998  12.190  0.0360  0.6192 -0.3670
13297TIP3    H161306   5.364   5.943  12.122 -0.1348  2.7207 -2.0704
13297TIP3    H261307   5.481   5.947  12.219 -0.3041 -0.6709 -1.6080
13298TIP3   OH261308   3.769   1.025   6.403 -0.5694  0.1561  0.1272
13298TIP3    H161309   3.832   0.963   6.365  1.6383  0.8896  2.3180
13298TIP3    H261310   3.717   0.973   6.463  1.6470  0.3356  2.3846
13299TIP3   OH261311   2.620   2.460   2.837 -0.7033 -0.4227  0.0241
13299TIP3    H161312   2.686   2.519   2.802  0.5819 -0.9938  1.3805
13299TIP3    H261313   2.537   2.503   2.817 -0.1019 -0.5331 -3.3131
13300TIP3   OH261314   5.686   3.242  16.334  0.3447  0.0210 -0.1037
13300TIP3    H161315   5.599   3.254  16.373 -0.1495  1.2711 -1.4749
13300TIP3    H261316   5.731   3.181  16.392 -1.4881 -0.7288  0.5847
13301TIP3   OH261317   0.216   4.958  10.889 -0.2958 -0.0756  0.1034
13301TIP3    H161318   0.205   4.868  10.858 -0.9140 -0.6900  1.9652
13301TIP3    H261319   0.311   4.968  10.898 -0.2730 -1.0458  1.1982
13302TIP3   OH261320   6.683   5.727  16.484  0.0050 -0.5754  0.1044
13302TIP3    H161321   6.777   5.711  16.471  0.3729  2.3415 -1.6222
13302TIP3    H261322   6.680   5.802  16.542 -1.2907 -0.6493  0.1489
13303TIP3   OH261323   4.159   4.349  15.704 -0.1959  0.1101 -0.3036
13303TIP3    H161324   4.201   4.422  15.659  1.9967 -0.9779 -0.1327
13303TIP3    H261325   4.130   4.291  15.634 -1.8138  0.9996 -0.4340
13304TIP3   OH261326   6.273   1.588  15.554 -0.3191  0.3370  0.6587
13304TIP3    H161327   6.327   1.537  15.494 -0.2268  1.2694 -0.0890
13304TIP3    H261328   6.243   1.662  15.501 -2.5455 -0.2764  0.9677
13305TIP3   OH261329   4.721   0.129  11.341 -0.2608 -0.4857  0.5242
13305TIP3    H161330   4.769   0.193  11.288 -0.1364  0.8268  2.1335
13305TIP3    H261331   4.661   0.182  11.394 -1.5642 -1.8830  0.5047
13306TIP3   OH261332   1.293   5.592  15.944  0.4386  0.4644 -0.1149
13306TIP3    H161333   1.207   5.553  15.961  0.8534 -0.3918  0.0618
13306TIP3    H261334   1.347   5.564  16.018  0.6894  1.5921  0.1446
13307TIP3   OH261335   0.909   5.686  15.997 -0.5538 -0.2723  0.0028
13307TIP3    H161336   0.937   5.750  15.931  0.6707 -0.0380  0.7215
13307TIP3    H261337   0.966   5.703  16.072 -1.2351 -1.2169  0.7482
13308TIP3   OH261338   6.562   3.701   3.560 -0.4419  0.2244  0.0110
13308TIP3    H161339   6.518   3.717   3.477 -3.0856 -0.6315  1.1209
13308TIP3    H261340   6.585   3.608   3.557 -1.9778 -0.2336  0.7461
13309TIP3   OH261341   6.294   1.638   3.949  0.2280  0.0744  0.1786
13309TIP3    H161342   6.385   1.627   3.975  0.5246  1.1629 -0.3511
13309TIP3    H261343   6.266   1.551   3.923  1.8341  0.1059 -1.8784
13310TIP3   OH261344   5.519   3.179  12.626  0.2987 -0.1792 -0.3152
13310TIP3    H161345   5.584   3.207  12.562 -0.6699 -0.0870 -1.2985
13310TIP3    H261346   5.526   3.242  12.697 -1.3645  2.2606 -2.1476
13311TIP3   OH261347   3.653   0.001   5.788  0.3587  0.5419  0.0649
13311TIP3    H161348   3.597  -0.073   5.763  0.2621  0.8042 -0.5219
13311TIP3    H261349   3.742  -0.029   5.771  0.3454  0.4090  0.2314
13312TIP3   OH261350   3.000   4.136  15.854 -0.2953 -0.4142  0.0400
13312TIP3    H161351   2.906   4.120  15.857 -0.1296 -2.0545 -1.3618
13312TIP3    H261352   3.017   4.163  15.764  0.3538  1.8186  0.7824
13313TIP3   OH261353   3.924   5.577  10.873 -0.0618 -0.1124 -0.5042
13313TIP3    H161354   3.868   5.634  10.820  1.0029 -0.6473 -2.3181
13313TIP3    H261355   3.875   5.494  10.879 -0.0580 -0.1445 -0.9098
13314TIP3   OH261356   6.289   3.345   5.956 -0.0147 -0.3697 -0.2040
13314TIP3    H161357   6.278   3.422   6.011 -0.3131  0.0008 -0.7686
13314TIP3    H261358   6.384   3.336   5.946  0.0791 -1.0492  1.1990
13315TIP3   OH261359   2.174   3.638   2.500  0.1555 -0.5691 -0.3623
13315TIP3    H161360   2.267   3.615   2.503  0.2338 -0.1693  1.4764
13315TIP3    H261361   2.171   3.728   2.532 -0.8784 -0.6134 -0.3146
13316TIP3   OH261362   3.437   1.399   0.382  0.7895  0.1377 -0.3913
13316TIP3    H161363   3.475   1.414   0.469 -1.9131  3.5965  0.4197
13316TIP3    H261364   3.510   1.411   0.321  1.8162  3.0358  1.2339
13317TIP3   OH261365   6.091   1.688   4.258  0.0846 -0.0526 -0.0204
13317TIP3    H161366   6.162   1.625   4.247  0.8996  0.6962  0.7934
13317TIP3    H261367   6.101   1.720   4.348  0.2234  1.8629 -0.6690
13318TIP3   OH261368   3.114   2.694   4.053  0.3247  0.6964 -0.4797
13318TIP3    H161369   3.184   2.718   4.114  1.3807  1.2467 -1.8461
13318TIP3    H261370   3.150   2.714   3.967 -0.9673 -0.4206 -1.3217
13319TIP3   OH261371   5.205   2.857  13.002 -0.0484 -0.5008  0.1183
13319TIP3    H161372   5.300   2.862  13.009  0.0625  1.4357 -1.7404
13319TIP3    H261373   5.189   2.812  12.919 -0.7008  0.4607 -0.2989
13320TIP3   OH261374   0.637   6.340  11.652  0.0219 -0.2563 -0.8070
13320TIP3    H161375   0.683   6.266  11.691 -0.3480  0.4266  1.0632
13320TIP3    H261376   0.573   6.301  11.592  1.6645 -1.2866 -1.9606
13321TIP3   OH261377   0.054   3.515  13.862  0.3099 -0.0141  0.5940
13321TIP3    H161378   0.082   3.494  13.951 -1.6479 -2.4456  0.7413
13321TIP3    H261379  -0.039   3.535  13.870 -0.0261 -0.7972 -0.9200
13322TIP3   OH261380   3.821   6.405  12.502 -0.6817  0.1000 -0.0334
13322TIP3    H161381   3.760   6.422  12.430 -1.7596 -1.0395  0.5803
13322TIP3    H261382   3.772   6.350  12.563  0.7999 -0.4462  0.7197
13323TIP3   OH261383   0.172   2.508   0.836  0.1483 -0.4186 -0.5088
13323TIP3    H161384   0.145   2.592   0.800  0.1291 -0.2834 -0.1778
13323TIP3    H261385   0.265   2.501   0.812  0.5114  0.3066  0.5996
13324TIP3   OH261386   4.328   3.486  15.153 -0.8629  0.3578  0.0363
13324TIP3    H161387   4.276   3.408  15.138 -0.2512 -0.1697  0.5588
13324TIP3    H261388   4.269   3.559  15.135 -1.3924 -0.2227 -0.6151
13325TIP3   OH261389   0.321   1.289   4.458  0.6656 -0.0719  0.7702
13325TIP3    H161390   0.287   1.200   4.457  0.6234 -0.0731  1.6386
13325TIP3    H261391   0.360   1.299   4.545  2.9659 -0.0948 -0.1993
13326TIP3   OH261392   3.286   4.069   1.312  0.6948 -0.4639 -0.0742
13326TIP3    H161393   3.368   4.020   1.316  1.1579  0.2084 -1.0606
13326TIP3    H261394   3.293   4.124   1.234 -0.3957  0.1411  0.2171
13327TIP3   OH261395   5.769   3.821   6.587 -0.1637  0.2306  0.4727
13327TIP3    H161396   5.733   3.779   6.665 -0.3088 -1.5326 -0.4955
13327TIP3    H261397   5.692   3.850   6.538 -0.2576 -1.7469 -0.6314
13328TIP3   OH261398   6.371   0.159   4.352 -0.0015 -0.0942  0.3079
13328TIP3    H161399   6.453   0.179   4.307 -1.1179  0.2334 -1.7493
13328TIP3    H261400   6.356   0.233   4.410  0.5707  0.4483 -0.2219
13329TIP3   OH261401   3.780   2.866  14.003 -0.1037 -0.1635  0.8973
13329TIP3    H161402   3.849   2.900  14.060 -0.4593 -0.1663  1.3452
13329TIP3    H261403   3.760   2.779  14.039 -0.4177 -0.1137  0.8497
13330TIP3   OH261404   1.263   4.440  11.345  0.3008  0.2647 -0.0109
13330TIP3    H161405   1.268   4.436  11.249  3.7856  0.3049  0.0108
13330TIP3    H261406   1.252   4.349  11.372 -0.4894  0.2278 -0.4335
13331TIP3   OH261407   5.949   3.565   5.140  0.0469  0.2036  0.1375
13331TIP3    H161408   5.896   3.496   5.100 -0.0930  0.9191 -0.9658
13331TIP3    H261409   5.904   3.647   5.117  1.1928  0.7795 -0.1852
13332TIP3   OH261410   5.530   0.888   5.972  0.3031  0.2643  0.0768
13332TIP3    H161411   5.538   0.861   5.881 -1.0000  1.2218 -0.3561
13332TIP3    H261412   5.486   0.816   6.015 -0.3086  0.3734 -0.3602
13333TIP3   OH261413   3.400   4.253   0.331 -0.3522 -0.0170 -0.4826
13333TIP3    H161414   3.340   4.327   0.341 -0.5211 -0.2781  0.6690
13333TIP3    H261415   3.390   4.226   0.240  0.3004  1.8489 -1.1652
13334TIP3   OH261416   3.296   6.521  15.305  0.0386 -0.2866 -0.1363
13334TIP3    H161417   3.363   6.510  15.372  2.8184 -0.3968 -2.7341
13334TIP3    H261418   3.280   6.616  15.303  1.8672  0.0579 -0.9477
13335TIP3   OH261419   1.803   3.542  14.547  0.1059 -0.0494  0.0468
13335TIP3    H161420   1.756   3.461  14.567  1.3592 -0.7725  0.1662
13335TIP3    H261421   1.758   3.578  14.470 -0.8507 -0.5245  0.3728
13336TIP3   OH261422   0.779   3.966   6.575  0.1227 -0.0427  0.3038
13336TIP3    H161423   0.742   3.984   6.489 -1.4268  0.9402  1.1283
13336TIP3    H261424   0.764   3.873   6.589 -0.0757 -0.1026 -0.2704
13337TIP3   OH261425   1.347   2.913  13.258 -0.9709  0.2994  0.1546
13337TIP3    H161426   1.294   2.850  13.307 -1.0804  0.3768  0.1367
13337TIP3    H261427   1.325   2.998  13.297 -2.2848  0.5697 -1.0912
13338TIP3   OH261428   1.984   6.655  12.232  0.0876  0.2319 -0.3136
13338TIP3    H161429   1.998   6.733  12.286 -1.9273  0.3026  0.2028
13338TIP3    H261430   1.972   6.584  12.295 -0.4744 -0.0360 -0.7111
13339TIP3   OH261431   1.136   0.014   3.969 -0.1477 -0.0014 -0.2087
13339TIP3    H161432   1.098   0.027   4.056 -3.3055  0.6001 -1.5282
13339TIP3    H261433   1.143   0.103   3.933  0.6103 -0.2775 -0.7531
13340TIP3   OH261434   3.466   6.122   1.428  0.7103 -0.2497  0.5500
13340TIP3    H161435   3.374   6.136   1.404 -0.6740 -2.2716  4.0092
13340TIP3    H261436   3.493   6.205   1.466 -0.1497 -0.0357  0.7353
13341TIP3   OH261437   1.718   5.393   3.853  0.0606  0.2669  0.1150
13341TIP3    H161438   1.737   5.441   3.772 -1.0628 -0.1802 -0.4312
13341TIP3    H261439   1.626   5.411   3.871  0.2663  0.2545  1.2286
13342TIP3   OH261440   6.657   3.937   5.356  0.3313 -0.8106 -0.1118
13342TIP3    H161441   6.662   3.965   5.265  0.0549 -1.9850 -0.5017
13342TIP3    H261442   6.637   4.018   5.405  1.8927  0.0974 -0.9054
13343TIP3   OH261443   5.428   6.200   4.061 -0.2028  0.6780  0.3004
13343TIP3    H161444   5.444   6.169   3.972 -1.1946  1.7393 -0.2715
13343TIP3    H261445   5.354   6.149   4.092 -0.6067  1.1062  0.0650
13344TIP3   OH261446   2.170   2.792   0.332  0.0887  0.0525  0.4415
13344TIP3    H161447   2.264   2.802   0.344  0.3355  1.7176 -2.1245
13344TIP3    H261448   2.132   2.874   0.363 -0.6504 -0.8020  1.9503
13345TIP3   OH261449   3.087   0.521  15.544 -0.0530 -0.0227  0.1761
13345TIP3    H161450   3.162   0.524  15.486 -0.9690 -1.4194 -1.1644
13345TIP3    H261451   3.025   0.584  15.507  0.6816  1.7016  1.7148
13346TIP3   OH261452   5.456   0.041  14.220  0.1698 -0.8567  0.2313
13346TIP3    H161453   5.544   0.034  14.184 -0.4348  0.4920 -1.6482
13346TIP3    H261454   5.468   0.085  14.305  1.2542  0.1312 -0.4044
13347TIP3   OH261455   4.464   5.875  12.414  0.5617 -0.3553 -0.7260
13347TIP3    H161456   4.491   5.853  12.324  1.5212 -0.6527 -0.3756
13347TIP3    H261457   4.478   5.794  12.463  1.3642  0.1971 -0.0206
13348TIP3   OH261458   2.391   1.884   1.374 -0.4172  0.3175  0.1625
13348TIP3    H161459   2.427   1.874   1.462 -0.0037 -0.6331 -0.1076
13348TIP3    H261460   2.382   1.979   1.363 -1.5880  0.4295  1.6690
13349TIP3   OH261461   5.214   5.276  12.980 -0.1513  0.7056 -0.6278
13349TIP3    H161462   5.301   5.297  13.013 -0.7182 -0.3648  1.7677
13349TIP3    H261463   5.230   5.230  12.897  1.6853 -0.6501  0.4004
13350TIP3   OH261464   2.476   3.584  10.896 -0.5712  0.1686  0.0174
13350TIP3    H161465   2.477   3.522  10.823 -0.9928  0.2746 -0.0824
13350TIP3    H261466   2.513   3.535  10.969  0.9574  0.4303 -0.5452
13351TIP3   OH261467   2.478   6.704  14.392  0.4041 -0.2197  0.2147
13351TIP3    H161468   2.523   6.689  14.475  0.6528 -1.1090 -0.0665
13351TIP3    H261469   2.396   6.655  14.400  0.1501  0.1987  0.1707
13352TIP3   OH261470   1.727   3.718   0.201  0.2416  0.0701 -0.2394
13352TIP3    H161471   1.811   3.674   0.184  0.0377 -0.8453  0.9983
13352TIP3    H261472   1.751   3.808   0.222  0.8728 -0.0509 -0.3906
13353TIP3   OH261473   2.491   3.504   4.995  0.2339  0.5857 -0.1640
13353TIP3    H161474   2.551   3.530   5.064 -1.3109 -0.2913  1.6157
13353TIP3    H261475   2.508   3.410   4.983  0.5608  0.7525 -1.0761
13354TIP3   OH261476   2.775   4.494  13.913 -0.5625 -0.2792  0.4613
13354TIP3    H161477   2.683   4.467  13.918 -0.3536 -0.8483  2.2400
13354TIP3    H261478   2.773   4.589  13.925 -1.0900  0.2019 -2.6951
13355TIP3   OH261479   0.333   4.069  16.337  0.0183  0.0720 -1.1248
13355TIP3    H161480   0.407   4.092  16.280  0.5255 -2.0574 -1.4206
13355TIP3    H261481   0.327   3.974  16.331 -2.2302  0.1063 -0.4176
13356TIP3   OH261482   0.341   4.701  13.103  0.8396  0.6770  0.0041
13356TIP3    H161483   0.258   4.740  13.131  0.0716  0.2982 -1.6270
13356TIP3    H261484   0.332   4.608  13.125  0.6862  0.5760 -0.4786
13357TIP3   OH261485   4.569   5.775  14.527  0.1973  0.3565  0.2127
13357TIP3    H161486   4.540   5.691  14.492 -0.0172  1.2497 -1.8973
13357TIP3    H261487   4.620   5.752  14.605  0.1052 -1.7145 -0.2771
13358TIP3   OH261488   0.611   1.431  14.454 -0.2850  0.0448 -0.0034
13358TIP3    H161489   0.568   1.369  14.513  1.6225 -0.5711  0.8098
13358TIP3    H261490   0.677   1.379  14.408 -0.7696  0.8264 -1.6571
13359TIP3   OH261491   1.838   5.694   4.280  0.3419  0.1372  0.5998
13359TIP3    H161492   1.873   5.650   4.202  0.3243 -0.0864  0.7188
13359TIP3    H261493   1.838   5.627   4.348 -1.5557 -0.2467  0.2785
13360TIP3   OH261494   2.723   6.331  16.194 -0.0227 -0.7650  0.4067
13360TIP3    H161495   2.719   6.324  16.098  2.2421  0.9041  0.1147
13360TIP3    H261496   2.657   6.398  16.215 -0.3844 -0.9876  0.0060
13361TIP3   OH261497   0.032   5.469  16.959  0.3870  0.2755 -0.3033
13361TIP3    H161498  -0.011   5.518  16.889 -0.0137  0.2316 -0.0878
13361TIP3    H261499  -0.039   5.427  17.007  0.7420 -0.7412 -0.6477
13362TIP3   OH261500   6.092   1.368  10.894 -0.1988 -0.2356 -0.7360
13362TIP3    H161501   6.187   1.378  10.888 -0.3432  0.5791 -1.9909
13362TIP3    H261502   6.072   1.296  10.834 -0.4140 -0.0830 -0.8500
13363TIP3   OH261503   3.292   0.537  15.357 -0.5998 -0.2772  0.4023
13363TIP3    H161504   3.254   0.496  15.280  0.6975  0.3409 -0.6053
13363TIP3    H261505   3.360   0.476  15.386  0.3965  0.4764 -0.2781
13364TIP3   OH261506   5.475   1.709   1.559  0.0285  0.2008 -0.2132
13364TIP3    H161507   5.418   1.634   1.542  1.3475 -0.9299  0.2580
13364TIP3    H261508   5.529   1.683   1.633 -0.5651  2.2492  1.0165
13365TIP3   OH261509   0.189   0.593  10.831 -0.1408 -0.1564  0.3318
13365TIP3    H161510   0.109   0.639  10.807  0.5167 -0.1633 -2.0669
13365TIP3    H261511   0.260   0.653  10.805  0.7113 -1.9974 -1.8446
13366TIP3   OH261512   1.121   6.331  11.402  0.1247  0.1100 -0.0960
13366TIP3    H161513   1.075   6.266  11.348 -1.1529 -0.0040  1.0738
13366TIP3    H261514   1.055   6.398  11.419  0.6167  0.3324  0.9932
13367TIP3   OH261515   5.758   2.580   5.473 -0.0001  0.3747 -0.1982
13367TIP3    H161516   5.717   2.497   5.500 -1.9620  1.0787 -0.8034
13367TIP3    H261517   5.852   2.564   5.482 -0.2676 -2.1438 -0.8831
13368TIP3   OH261518   3.329   0.020   2.992  0.5296 -0.2039  0.3509
13368TIP3    H161519   3.321   0.006   3.086  0.1078 -1.6891  0.1296
13368TIP3    H261520   3.300   0.110   2.978  0.0610 -0.1474  1.5727
13369TIP3   OH261521   0.934   2.011  15.610  0.1838 -0.1947  0.2081
13369TIP3    H161522   0.962   2.096  15.576 -0.5923  0.0094  0.0533
13369TIP3    H261523   0.841   2.007  15.589 -0.0718 -0.5348  1.3409
13370TIP3   OH261524   5.633   2.791  16.093 -0.3124  0.0286  0.4331
13370TIP3    H161525   5.591   2.857  16.148  0.3808 -0.0640  1.0930
13370TIP3    H261526   5.614   2.708  16.136  2.1760  0.1262  1.8978
13371TIP3   OH261527   2.684   1.362   3.212  0.1329 -0.1696 -0.3556
13371TIP3    H161528   2.719   1.285   3.257  1.6688  0.1047 -1.0018
13371TIP3    H261529   2.757   1.424   3.212 -0.8612  1.0309 -0.4380
13372TIP3   OH261530   1.990   5.769   6.345  0.0347 -0.1751 -0.2328
13372TIP3    H161531   1.903   5.761   6.307 -0.5059 -0.8534  1.0736
13372TIP3    H261532   1.992   5.858   6.380 -0.1497 -0.1692 -0.2358
13373TIP3   OH261533   6.131   1.750   1.895 -0.4579  0.0978  0.7919
13373TIP3    H161534   6.199   1.801   1.938 -1.4309  0.3743  2.0657
13373TIP3    H261535   6.085   1.705   1.967 -0.4467 -1.5488 -0.1883
13374TIP3   OH261536   2.635   2.339  11.584 -0.2670 -0.3460 -0.0156
13374TIP3    H161537   2.583   2.309  11.509 -1.8019 -0.1718  0.9239
13374TIP3    H261538   2.711   2.281  11.585 -0.6582 -0.9231 -1.1859
13375TIP3   OH261539   0.186   5.698   3.664 -0.4215  0.0944 -0.2063
13375TIP3    H161540   0.171   5.655   3.580  1.4628  0.8030 -0.9583
13375TIP3    H261541   0.175   5.791   3.646 -0.4145  0.2203  0.4259
13376TIP3   OH261542   6.225   0.912   1.017 -0.2753 -0.2068 -0.4723
13376TIP3    H161543   6.218   0.816   1.017 -0.0977 -0.2332 -1.2735
13376TIP3    H261544   6.153   0.941   0.962 -1.0540  0.2031  0.7312
13377TIP3   OH261545   4.814   6.407   0.587 -0.1292 -0.3252  0.1665
13377TIP3    H161546   4.833   6.363   0.670  0.0892 -1.3983 -0.4288
13377TIP3    H261547   4.854   6.350   0.521 -1.8623 -0.4578 -0.8210
13378TIP3   OH261548   1.817   1.171  11.053  0.2355  0.2793 -0.2666
13378TIP3    H161549   1.831   1.197  10.962 -0.2940  0.3467 -0.3338
13378TIP3    H261550   1.873   1.095  11.066 -0.0208 -0.0049 -0.7866
13379TIP3   OH261551   1.717   4.874  15.364 -0.1663 -0.3328  0.1225
13379TIP3    H161552   1.771   4.934  15.415  0.1637 -0.0208 -0.5819
13379TIP3    H261553   1.703   4.799  15.423 -0.1589  0.2002  0.8222
13380TIP3   OH261554   4.803   6.040  12.129 -0.1458 -0.4804  0.1027
13380TIP3    H161555   4.799   5.988  12.209  0.5211  0.4376  0.7429
13380TIP3    H261556   4.842   6.123  12.155 -1.2140  0.3784 -0.9064
13381TIP3   OH261557   6.123   1.535  12.478  0.1517 -0.4745  0.5598
13381TIP3    H161558   6.170   1.453  12.494  0.2172 -0.6102 -0.2723
13381TIP3    H261559   6.068   1.517  12.401  0.4326  0.3667  0.1440
13382TIP3   OH261560   5.234   0.557   1.268 -0.0477 -0.5364  0.1495
13382TIP3    H161561   5.259   0.466   1.281  0.1433 -0.4686  0.2598
13382TIP3    H261562   5.256   0.575   1.176  2.2608  0.1244  0.7714
13383TIP3   OH261563   3.533   1.271  16.646 -0.1219 -0.1856 -0.1480
13383TIP3    H161564   3.528   1.308  16.734 -4.0217  0.9511 -0.6664
13383TIP3    H261565   3.489   1.186  16.653 -0.6257 -0.0073 -1.0266
13384TIP3   OH261566   1.859   0.633   1.262 -0.7386 -0.0096 -0.4031
13384TIP3    H161567   1.800   0.569   1.221 -0.5189 -0.3012 -0.2702
13384TIP3    H261568   1.909   0.582   1.325  1.2769 -0.2425 -2.0824
13385TIP3   OH261569   5.896   4.487  10.606  0.1262 -0.8548  0.3726
13385TIP3    H161570   5.801   4.472  10.610  0.0306 -0.1320  1.1966
13385TIP3    H261571   5.916   4.530  10.689  1.2931 -1.6048  0.5009
13386TIP3   OH261572   2.067   3.298   5.960 -0.1947 -0.6366 -0.0699
13386TIP3    H161573   2.097   3.208   5.969  2.0056  0.0603  0.0543
13386TIP3    H261574   2.147   3.350   5.952 -1.4056  1.2953 -0.3723
13387TIP3   OH261575   5.904   6.194   3.567  0.3568 -0.4208  0.4452
13387TIP3    H161576   5.873   6.283   3.585  1.8279 -0.2192  2.3189
13387TIP3    H261577   5.978   6.182   3.627  0.5466 -2.7193 -0.1606
13388TIP3   OH261578   6.287   6.642   5.441 -0.0269 -0.0029 -0.1818
13388TIP3    H161579   6.354   6.671   5.380  0.7482 -1.7224 -0.2090
13388TIP3    H261580   6.287   6.708   5.510 -0.6565  1.7750 -1.8000
13389TIP3   OH261581   0.755   0.819   5.411  0.8734  0.1243  0.2727
13389TIP3    H161582   0.798   0.884   5.356  0.6118 -0.2087 -0.3288
13389TIP3    H261583   0.769   0.736   5.367  0.6199 -0.1427  0.6843
13390TIP3   OH261584   3.146   2.874   4.734 -0.1059 -0.3276  0.4455
13390TIP3    H161585   3.219   2.837   4.784 -2.1661 -2.5322  2.0488
13390TIP3    H261586   3.157   2.838   4.646  0.1716 -1.5196  0.9452
13391TIP3   OH261587   4.671   5.834  13.329  0.1674 -0.2038 -0.0265
13391TIP3    H161588   4.765   5.853  13.323  0.2467 -0.8706 -1.2147
13391TIP3    H261589   4.655   5.769  13.260 -1.3218  0.5132 -0.4027
13392TIP3   OH261590   4.037   0.693   3.043 -0.2544  0.8778 -0.7809
13392TIP3    H161591   4.072   0.715   2.956 -0.7818  2.0405 -0.7088
13392TIP3    H261592   4.019   0.777   3.084 -1.2144  0.3224 -0.0308
13393TIP3   OH261593   4.735   2.840   3.195 -0.7085 -0.0588 -0.0262
13393TIP3    H161594   4.694   2.892   3.126  0.5143 -0.6962 -1.2801
13393TIP3    H261595   4.690   2.755   3.192  0.3174 -0.6037 -1.1016
13394TIP3   OH261596   5.698   6.630  15.444 -0.3062 -0.1613 -0.3081
13394TIP3    H161597   5.754   6.708  15.443  0.1847 -0.4968 -1.6576
13394TIP3    H261598   5.697   6.600  15.353 -0.8051 -1.5039  0.1118
13395TIP3   OH261599   1.116   6.584   2.592 -0.2727 -0.0814 -0.6418
13395TIP3    H161600   1.199   6.599   2.636  0.6859  1.9902 -2.9968
13395TIP3    H261601   1.138   6.530   2.516 -1.3475 -0.7460 -0.5075
13396TIP3   OH261602   4.192   0.226   0.671 -0.3213  0.2324 -0.0116
13396TIP3    H161603   4.234   0.190   0.748 -0.1898 -0.1843 -0.2736
13396TIP3    H261604   4.258   0.215   0.601 -0.6005  0.2068 -0.2719
13397TIP3   OH261605   0.128   5.586  16.502 -0.2735 -0.2376  0.1542
13397TIP3    H161606   0.081   5.505  16.519 -0.6644 -0.1674 -0.5834
13397TIP3    H261607   0.220   5.560  16.499 -0.2949 -0.4557  1.0870
13398TIP3   OH261608   4.287   1.626  13.451  0.2237  0.1555  0.1607
13398TIP3    H161609   4.231   1.703  13.450  0.4596  0.3438 -1.4013
13398TIP3    H261610   4.228   1.554  13.425  0.1207 -0.1140  1.1091
13399TIP3   OH261611   6.052   1.582  11.787 -0.1424 -0.1099 -0.2751
13399TIP3    H161612   6.049   1.503  11.733  0.5872  0.4814 -1.2094
13399TIP3    H261613   5.980   1.636  11.755  0.0995  0.1106 -0.4506
13400TIP3   OH261614   2.430   1.892   4.004 -0.0624 -0.0742  0.1530
13400TIP3    H161615   2.343   1.919   3.976  0.0687 -0.1879 -0.3695
13400TIP3    H261616   2.456   1.825   3.941  0.8129  0.6712 -0.2906
13401TIP3   OH261617   4.314   1.026   6.281  0.2110  0.4189  0.1914
13401TIP3    H161618   4.403   1.055   6.265 -0.7640  2.3569 -2.5563
13401TIP3    H261619   4.310   0.938   6.245  0.6797  0.9492 -1.2524
13402TIP3   OH261620   1.050   2.166  14.866 -0.4091 -0.7078  0.0826
13402TIP3    H161621   1.047   2.071  14.867  0.1546 -0.7218  1.0245
13402TIP3    H261622   0.985   2.191  14.800  0.1585 -1.7647 -0.9327
13403TIP3   OH261623   4.706   6.013   4.583 -0.0941 -0.1604 -0.2414
13403TIP3    H161624   4.673   5.936   4.538  1.1768 -0.8315 -0.0554
13403TIP3    H261625   4.783   6.039   4.534 -0.0318  0.4934  0.1916
13404TIP3   OH261626   4.346   5.140   0.790 -0.2419  0.0192 -0.0485
13404TIP3    H161627   4.273   5.168   0.734 -0.6568  1.1518  0.9933
13404TIP3    H261628   4.422   5.141   0.733 -1.0854 -1.5702 -1.2639
13405TIP3   OH261629   4.896   3.833  16.904 -0.0099  0.1750  0.1436
13405TIP3    H161630   4.891   3.747  16.861  0.4608  0.3157 -0.1912
13405TIP3    H261631   4.936   3.815  16.989 -0.4006 -0.0159  0.2876
13406TIP3   OH261632   3.644   0.754  15.102  0.0657  0.0468 -0.5032
13406TIP3    H161633   3.672   0.840  15.072 -0.9437  0.2521 -0.8949
13406TIP3    H261634   3.563   0.770  15.151 -0.7386 -0.7801 -1.5040
13407TIP3   OH261635   5.609   2.965   4.791 -0.2909 -0.0932 -0.4156
13407TIP3    H161636   5.644   3.048   4.760  0.7898 -0.5079 -0.3345
13407TIP3    H261637   5.683   2.920   4.831 -1.0237 -0.7850  0.2232
13408TIP3   OH261638   6.048   1.932   3.677  0.3692  0.5205  0.0615
13408TIP3    H161639   6.079   2.023   3.682  0.7514  0.3280  1.6685
13408TIP3    H261640   6.117   1.881   3.718 -0.3391 -0.3700  0.1674
13409TIP3   OH261641   5.353   0.636   2.486 -0.2952 -0.1909 -0.2444
13409TIP3    H161642   5.283   0.575   2.462 -1.6446  1.1216  0.1503
13409TIP3    H261643   5.341   0.711   2.427  1.3426 -0.2783 -0.7447
13410TIP3   OH261644   1.850   3.219   5.787 -0.2170  0.2848 -0.3445
13410TIP3    H161645   1.900   3.141   5.761 -0.8479 -0.5463  0.8359
13410TIP3    H261646   1.910   3.267   5.845 -0.8813 -0.9859  1.5099
13411TIP3   OH261647   5.589   2.224   2.614  0.3813  0.1000  0.6175
13411TIP3    H161648   5.573   2.251   2.705 -0.6528  1.0237  0.1868
13411TIP3    H261649   5.607   2.306   2.567 -0.1029 -0.2429 -0.1939
13412TIP3   OH261650   0.885   4.858   0.693 -0.1410  0.0810  0.3444
13412TIP3    H161651   0.911   4.802   0.620  1.7116  0.6315  0.5415
13412TIP3    H261652   0.894   4.802   0.770 -2.7731 -0.7241  0.1808
13413TIP3   OH261653   6.024   2.457   5.621  0.8139  0.1734 -0.4523
13413TIP3    H161654   6.067   2.491   5.543  0.7944 -2.2745 -1.6139
13413TIP3    H261655   6.080   2.386   5.651  0.4600  0.6223  1.3887
13414TIP3   OH261656   5.249   0.461   2.828  0.0764  0.4006  0.3236
13414TIP3    H161657   5.339   0.463   2.861  0.5492  0.9077 -0.9494
13414TIP3    H261658   5.234   0.550   2.795 -0.2936 -0.1289 -0.9938
13415TIP3   OH261659   0.619   3.844   1.082 -0.3505 -0.2214 -0.0940
13415TIP3    H161660   0.646   3.902   1.153 -1.8261 -0.4950  0.7327
13415TIP3    H261661   0.692   3.847   1.020  2.1874 -2.0083  2.5670
13416TIP3   OH261662   4.448   0.062   2.359 -0.1632 -0.1183 -0.4167
13416TIP3    H161663   4.387   0.124   2.398 -0.8392 -0.8058 -0.3531
13416TIP3    H261664   4.450  -0.011   2.421  2.4366  0.7961  0.7371
13417TIP3   OH261665   4.454   5.310   3.855  0.7929 -0.1609  0.5858
13417TIP3    H161666   4.484   5.283   3.942  0.9460  2.8766  1.6073
13417TIP3    H261667   4.393   5.382   3.872  1.1940  0.8431 -1.8423
13418TIP3   OH261668   6.613   3.320  14.914  0.1942 -0.6146 -0.0711
13418TIP3    H161669   6.677   3.261  14.953  2.0429  0.2497 -1.6518
13418TIP3    H261670   6.595   3.384  14.983 -0.0930 -1.6722  0.8659
13419TIP3   OH261671   2.464   5.071  15.607  0.5062 -0.2622  0.0349
13419TIP3    H161672   2.506   5.077  15.693 -0.3854  2.1885  0.3846
13419TIP3    H261673   2.531   5.102  15.546  0.0779  1.2669  0.2984
13420TIP3   OH261674   5.349   4.770   0.612  0.7844  0.2698 -0.0555
13420TIP3    H161675   5.397   4.735   0.538 -0.3724  1.2338 -1.3152
13420TIP3    H261676   5.416   4.806   0.670  1.6515  0.4485 -1.1552
13421TIP3   OH261677   5.033   4.837   0.803 -0.0481  0.0282 -0.6173
13421TIP3    H161678   5.122   4.870   0.788 -0.5494  0.4367 -3.2218
13421TIP3    H261679   5.032   4.811   0.895  2.4691  0.8871 -0.2678
13422TIP3   OH261680   2.885   4.224   0.270  0.3775 -0.2092 -0.0449
13422TIP3    H161681   2.915   4.195   0.183  2.4223 -0.1420  0.5892
13422TIP3    H261682   2.903   4.150   0.327 -1.9277 -0.6417  0.1826
13423TIP3   OH261683   2.242   0.433  12.507 -0.6749  0.3773  0.1002
13423TIP3    H161684   2.335   0.452  12.493 -0.2532 -1.4947  0.0116
13423TIP3    H261685   2.212   0.501  12.567  0.2416  2.1390 -1.3661
13424TIP3   OH261686   4.475   0.480   2.099  0.4704  0.5213  0.1365
13424TIP3    H161687   4.557   0.505   2.057  0.0814  1.8852  0.1338
13424TIP3    H261688   4.490   0.494   2.192  0.3007  0.6169  0.1507
13425TIP3   OH261689   1.289   4.373  11.080 -0.0257  0.8769 -0.1342
13425TIP3    H161690   1.351   4.444  11.064 -1.5530  1.9443 -1.7578
13425TIP3    H261691   1.240   4.366  10.998 -0.4549 -1.5478  0.2675
13426TIP3   OH261692   6.601   5.181  12.590 -0.2476 -0.2590  0.3229
13426TIP3    H161693   6.629   5.265  12.625 -0.8490  0.3139 -0.5293
13426TIP3    H261694   6.679   5.144  12.549 -0.1509  0.2098  0.0826
13427TIP3   OH261695   0.792   3.799  13.548 -0.1717 -0.0983  0.1433
13427TIP3    H161696   0.760   3.848  13.624  0.7587  0.5739  0.1279
13427TIP3    H261697   0.752   3.713  13.555  0.3474 -0.2380  1.7140
13428TIP3   OH261698   2.090   5.059  13.186 -0.1180 -0.4718 -0.1875
13428TIP3    H161699   2.145   5.026  13.115  2.6005  2.0949  0.4860
13428TIP3    H261700   2.045   5.134  13.148  0.0059 -0.1427  0.3005
13429TIP3   OH261701   1.117   2.257  15.747 -0.1864 -0.1704 -0.2731
13429TIP3    H161702   1.212   2.269  15.749 -0.2070  1.1488 -2.8765
13429TIP3    H261703   1.085   2.311  15.820  0.9595  1.0100 -0.5999
13430TIP3   OH261704   5.852   2.325  10.912  0.0665  0.0216  0.6532
13430TIP3    H161705   5.880   2.263  10.979 -2.3102 -0.3818  1.3950
13430TIP3    H261706   5.771   2.362  10.947  0.1977  1.8412 -0.8236
13431TIP3   OH261707   0.963   2.249  11.747  0.0711 -0.0642  0.1278
13431TIP3    H161708   1.030   2.192  11.708  0.3548  0.1648  0.2808
13431TIP3    H261709   1.007   2.291  11.820 -0.5163 -0.6269  0.8113
13432TIP3   OH261710   6.654   0.523  16.160  0.2964 -0.2143 -0.1415
13432TIP3    H161711   6.572   0.478  16.139 -0.0228  0.7915 -1.1041
13432TIP3    H261712   6.627   0.599  16.213  0.5752  0.2530 -0.6628
13433TIP3   OH261713   6.744   0.312   2.426  0.1412  0.3237 -0.2275
13433TIP3    H161714   6.656   0.347   2.409  0.3427  0.3501 -1.2621
13433TIP3    H261715   6.794   0.332   2.347  0.6296 -1.1326 -0.3072
13434TIP3   OH261716   3.179   2.201  12.908  0.1173 -0.3681 -0.0329
13434TIP3    H161717   3.098   2.236  12.872  0.2158 -1.5387 -1.4978
13434TIP3    H261718   3.169   2.208  13.003 -2.2401 -1.6364 -0.1182
13435TIP3   OH261719   5.898   4.089   1.442 -0.4646  0.1017 -0.5644
13435TIP3    H161720   5.880   4.041   1.523 -1.5694 -4.4346 -3.1589
13435TIP3    H261721   5.994   4.086   1.433 -0.5442 -3.0041 -1.2332
13436TIP3   OH261722   5.386   5.855   1.362 -0.1116  0.1888 -0.5359
13436TIP3    H161723   5.352   5.850   1.451 -0.8572  1.4596 -0.7170
13436TIP3    H261724   5.480   5.866   1.374 -0.1004 -0.4962  0.0670
13437TIP3   OH261725   1.700   4.047  10.836  0.1023  0.8049 -0.0870
13437TIP3    H161726   1.725   4.127  10.882  0.5464 -0.0621  1.2291
13437TIP3    H261727   1.605   4.053  10.828  0.0193  0.9733  0.9465
13438TIP3   OH261728   2.693   1.724   3.991 -0.4703  0.4928 -0.0156
13438TIP3    H161729   2.712   1.812   3.957  2.1906 -1.0030 -2.9615
13438TIP3    H261730   2.779   1.683   3.998 -1.6496 -1.9491  1.1963
13439TIP3   OH261731   0.831   4.653  12.663 -0.3867 -0.5290  0.2335
13439TIP3    H161732   0.924   4.640  12.680 -0.4684 -1.6233 -0.0695
13439TIP3    H261733   0.802   4.714  12.730  0.1965 -1.5033  1.4079
13440TIP3   OH261734   5.060   2.176  13.778 -0.4891 -0.2871  0.3959
13440TIP3    H161735   5.011   2.249  13.742 -0.2495 -0.1390  0.3713
13440TIP3    H261736   5.146   2.212  13.799  0.6815 -1.2074 -2.3609
13441TIP3   OH261737   4.790   6.573   1.766  0.5685  0.4029  0.5469
13441TIP3    H161738   4.878   6.603   1.792  0.0793  0.8126  1.8333
13441TIP3    H261739   4.775   6.496   1.821  0.8941 -0.8722 -1.0951
13442TIP3   OH261740   0.503   0.343  14.366  0.0409  0.0125 -0.4642
13442TIP3    H161741   0.445   0.347  14.442  1.5826 -1.0983  0.8522
13442TIP3    H261742   0.553   0.425  14.370 -0.3932  0.2980 -0.7470
13443TIP3   OH261743   2.141   4.517  15.355 -0.0625 -0.6847  0.0467
13443TIP3    H161744   2.167   4.491  15.266 -1.4143  0.6175 -0.7809
13443TIP3    H261745   2.142   4.613  15.353 -0.7503 -0.6379  1.2287
13444TIP3   OH261746   5.815   2.875  14.618  0.2564 -0.7239  0.1888
13444TIP3    H161747   5.901   2.911  14.594  0.3697 -0.7223  0.5862
13444TIP3    H261748   5.769   2.949  14.659 -0.8512 -0.0288 -2.1721
13445TIP3   OH261749   5.440   1.350  15.663 -0.3770  0.0837  0.4306
13445TIP3    H161750   5.486   1.282  15.712  0.0708  0.8115  1.0486
13445TIP3    H261751   5.504   1.381  15.599 -0.4168  0.2442  0.4683
13446TIP3   OH261752   3.277   1.854  11.586 -0.2980 -0.4928  0.4347
13446TIP3    H161753   3.261   1.948  11.597 -0.3430 -0.0895 -2.2194
13446TIP3    H261754   3.191   1.813  11.593 -0.6148 -0.0246 -0.4857
13447TIP3   OH261755   0.946   0.322  15.158  0.0226  0.4021 -0.4165
13447TIP3    H161756   0.866   0.307  15.108  0.8372 -0.2033 -1.5987
13447TIP3    H261757   0.957   0.244  15.211 -0.1367  0.4600 -0.2985
13448TIP3   OH261758   6.044   6.542   2.974 -0.2656 -0.3497  0.2050
13448TIP3    H161759   6.061   6.581   2.888 -1.1270 -0.2379  0.0822
13448TIP3    H261760   6.069   6.610   3.037 -1.6271  0.3810 -0.0054
13449TIP3   OH261761   5.726   5.081  16.925 -0.2089  0.4437 -0.1030
13449TIP3    H161762   5.738   5.043  16.838  1.9392  0.2319  0.2208
13449TIP3    H261763   5.689   5.167  16.909  0.3295  0.4839 -1.2388
13450TIP3   OH261764   2.599   5.964   0.774 -0.7219 -0.3193  0.1178
13450TIP3    H161765   2.630   5.874   0.759  1.9422  0.5609 -0.0770
13450TIP3    H261766   2.551   5.959   0.857 -0.0707 -1.8039  0.4419
13451TIP3   OH261767   5.906   2.275  16.865 -0.7555 -0.2583  0.3143
13451TIP3    H161768   5.994   2.238  16.875 -0.6902 -0.2247 -0.1222
13451TIP3    H261769   5.873   2.283  16.955  0.7198  2.2840  0.7409
13452TIP3   OH261770   0.674   2.265   5.891  0.8067 -0.3865 -0.1677
13452TIP3    H161771   0.591   2.258   5.845  1.3803 -1.6194 -1.0852
13452TIP3    H261772   0.736   2.293   5.824  1.8780 -3.2368 -0.5382
13453TIP3   OH261773   2.258   4.099   2.757 -0.3551 -0.1517 -0.1451
13453TIP3    H161774   2.273   4.081   2.850 -0.4692 -0.3151 -0.1572
13453TIP3    H261775   2.225   4.189   2.754 -1.0898 -0.4079  0.0442
13454TIP3   OH261776   0.392   0.190   4.874 -0.6016  0.5148 -0.5982
13454TIP3    H161777   0.440   0.108   4.868 -0.4228  0.6799 -1.5314
13454TIP3    H261778   0.446   0.247   4.929 -0.9969 -0.1642  0.5256
13455TIP3   OH261779   1.508   1.365  11.838 -0.2113  0.0938  0.3493
13455TIP3    H161780   1.472   1.278  11.819 -1.8180  0.9379 -0.6723
13455TIP3    H261781   1.594   1.365  11.796 -0.6499 -0.6337 -0.5906
13456TIP3   OH261782   1.407   3.022  11.896  0.6786 -0.1751  0.1703
13456TIP3    H161783   1.374   3.108  11.921  0.4276 -0.7527  1.9505
13456TIP3    H261784   1.337   2.961  11.919  1.1776 -0.9504 -0.2934
13457TIP3   OH261785   1.734   4.039  13.270  0.1556  0.3136  0.1328
13457TIP3    H161786   1.796   4.025  13.342 -0.0152  1.5596  0.5486
13457TIP3    H261787   1.673   3.965  13.275  1.1925 -0.5665  0.1415
13458TIP3   OH261788   1.627   5.606  12.866 -0.0420  0.1659 -0.3124
13458TIP3    H161789   1.626   5.602  12.770 -0.4433 -0.6202 -0.2806
13458TIP3    H261790   1.562   5.674  12.887  0.0027  0.2989 -0.5981
13459TIP3   OH261791   5.882   2.998   6.588 -0.2805  0.2797  0.0916
13459TIP3    H161792   5.896   3.078   6.537  1.0241 -0.2025 -0.3394
13459TIP3    H261793   5.789   2.980   6.578 -0.4279  1.2705 -0.5171
13460TIP3   OH261794   0.602   1.309   0.266 -0.0845  0.3890 -0.4918
13460TIP3    H161795   0.593   1.382   0.205 -1.3424  0.8407  0.1888
13460TIP3    H261796   0.694   1.284   0.260  0.0306  1.0381 -1.8541
13461TIP3   OH261797   4.445   6.298   2.975 -0.3517 -0.8766 -0.2538
13461TIP3    H161798   4.433   6.287   2.881  0.1150 -0.3839 -0.3738
13461TIP3    H261799   4.356   6.294   3.011 -0.5709 -0.6394 -0.7619
13462TIP3   OH261800   3.903   2.887   3.488  0.0419  0.0648  0.1973
13462TIP3    H161801   3.913   2.860   3.397  0.8491 -2.3093  0.9084
13462TIP3    H261802   3.993   2.895   3.521 -0.2041 -1.3401  1.3362
13463TIP3   OH261803   0.428   3.776   4.713 -0.2769 -0.5801  0.1768
13463TIP3    H161804   0.503   3.734   4.672  0.2814 -0.6281  1.1978
13463TIP3    H261805   0.372   3.803   4.641 -0.1618 -2.1824 -0.5390
13464TIP3   OH261806   6.249   3.461   2.545 -0.6256  0.2652  0.0243
13464TIP3    H161807   6.212   3.432   2.628 -0.5955  0.3541  0.0682
13464TIP3    H261808   6.285   3.381   2.505 -1.5018  0.0437 -0.3471
13465TIP3   OH261809   5.548   2.727  10.515  0.8286  0.7304  0.3011
13465TIP3    H161810   5.637   2.762  10.522  0.9724  0.2301  1.1453
13465TIP3    H261811   5.558   2.644  10.469  0.6553  1.1602 -0.5312
13466TIP3   OH261812   4.405   4.173  14.830 -0.2713  0.2634  0.4285
13466TIP3    H161813   4.473   4.155  14.766 -0.8890  1.4210 -0.5813
13466TIP3    H261814   4.452   4.204  14.908  0.4612 -0.8988  0.4736
13467TIP3   OH261815   0.772   3.956   5.438 -0.1295 -0.3163  0.1869
13467TIP3    H161816   0.799   3.937   5.348  1.0099 -0.2234  0.4942
13467TIP3    H261817   0.754   4.049   5.439  0.3979 -0.2090  0.1750
13468TIP3   OH261818   1.982   2.044   3.890  0.1558  0.9348  0.5107
13468TIP3    H161819   1.975   2.140   3.891  2.4977  1.3070 -2.7648
13468TIP3    H261820   1.920   2.017   3.822 -1.3880 -0.0791  2.2524
13469TIP3   OH261821   6.653   5.905  13.796 -0.2275  0.1084  0.3264
13469TIP3    H161822   6.673   5.816  13.824 -0.9122 -0.2398 -0.2568
13469TIP3    H261823   6.569   5.925  13.836 -0.6488  0.0386 -0.4920
13470TIP3   OH261824   5.588   1.117  11.784 -0.9773  0.0283 -0.1421
13470TIP3    H161825   5.561   1.209  11.776  0.4966  0.4092 -1.1282
13470TIP3    H261826   5.678   1.121  11.815 -0.6227 -1.0462 -0.9755
13471TIP3   OH261827   6.734   0.873   1.335  0.2980 -0.5018 -0.3951
13471TIP3    H161828   6.667   0.823   1.290 -0.0435 -0.8854  0.5330
13471TIP3    H261829   6.692   0.905   1.415  0.8244  0.3731 -0.4458
13472TIP3   OH261830   4.603   3.725   3.309 -0.8994  0.6058 -0.5112
13472TIP3    H161831   4.668   3.670   3.354  0.5807  2.2804 -0.4790
13472TIP3    H261832   4.609   3.700   3.217 -0.3013  0.6543 -0.4869
13473TIP3   OH261833   6.063   1.014   2.393 -0.5827  0.3282 -0.0671
13473TIP3    H161834   6.005   1.090   2.399 -2.4151 -1.0916  2.4583
13473TIP3    H261835   6.006   0.943   2.363  0.8693 -0.3030 -1.4799
13474TIP3   OH261836   6.016   6.633   4.418  0.3665 -0.0161  0.5870
13474TIP3    H161837   6.033   6.727   4.415 -0.5179  0.3015  3.0048
13474TIP3    H261838   5.920   6.627   4.419  0.3995 -1.0234 -0.6443
13475TIP3   OH261839   1.742   1.217   0.540 -0.3212 -0.1978 -0.4569
13475TIP3    H161840   1.683   1.205   0.615  1.5411 -1.9705  0.8421
13475TIP3    H261841   1.702   1.288   0.489 -2.9048 -0.5298  0.9431
13476TIP3   OH261842   6.530   3.508   3.919  0.0493 -0.4734  0.3214
13476TIP3    H161843   6.599   3.571   3.897  0.7394 -1.3732 -0.1763
13476TIP3    H261844   6.486   3.491   3.836  1.1231 -2.0867  0.0369
13477TIP3   OH261845   1.028   1.860   1.573  0.3722 -0.3482 -0.0656
13477TIP3    H161846   0.974   1.838   1.498  3.4300 -1.5497 -2.1282
13477TIP3    H261847   0.967   1.867   1.646 -2.3845 -2.7594 -1.9317
13478TIP3   OH261848   4.947   6.282  12.193 -0.5592  0.4692  0.0510
13478TIP3    H161849   5.029   6.312  12.230  0.3757  1.0195 -2.2730
13478TIP3    H261850   4.892   6.361  12.188 -0.4212  0.5429 -0.3486
13479TIP3   OH261851   1.860   1.922  12.634 -0.1917 -1.3232  0.1987
13479TIP3    H161852   1.944   1.894  12.596 -0.7909 -0.7569 -1.6319
13479TIP3    H261853   1.794   1.875  12.584 -1.0966  0.8538 -0.7784
13480TIP3   OH261854   2.519   2.026   4.307  0.6740  0.3413 -0.7668
13480TIP3    H161855   2.560   2.099   4.355 -0.3229 -0.0214  0.6957
13480TIP3    H261856   2.591   1.963   4.295  0.7682  0.0208  1.1398
13481TIP3   OH261857   0.311   2.505   4.636 -0.2327 -0.0815 -0.1273
13481TIP3    H161858   0.245   2.493   4.705 -0.3117 -0.4565 -0.2657
13481TIP3    H261859   0.283   2.446   4.566  0.1847 -0.1534 -0.2341
13482TIP3   OH261860   0.436   6.125   2.601  0.2356  0.0016 -0.0781
13482TIP3    H161861   0.352   6.147   2.641  0.5529  1.8186 -0.3679
13482TIP3    H261862   0.451   6.034   2.628 -1.3855 -0.0796  0.7021
13483TIP3   OH261863   3.694   4.395  15.177 -0.8497 -0.0928 -0.3499
13483TIP3    H161864   3.769   4.339  15.159 -1.5032 -0.8404 -0.7820
13483TIP3    H261865   3.709   4.427  15.266  0.5697  0.7281 -0.8473
13484TIP3   OH261866   0.044   3.777   1.924 -0.2635  0.0320 -0.2785
13484TIP3    H161867   0.049   3.816   2.012  0.5662  0.3944 -0.4808
13484TIP3    H261868  -0.040   3.809   1.889 -0.5053  0.0482  0.2994
13485TIP3   OH261869   0.814   2.430   0.493  0.5017 -0.6488  0.2291
13485TIP3    H161870   0.735   2.389   0.458  0.1415  0.5535 -0.4197
13485TIP3    H261871   0.858   2.467   0.416  0.4709  0.7433  0.8546
13486TIP3   OH261872   1.629   3.407  14.875 -0.2012 -0.6341 -0.0686
13486TIP3    H161873   1.713   3.425  14.917 -0.2776 -1.2864  0.3763
13486TIP3    H261874   1.650   3.354  14.799 -0.0438  0.7051 -0.9955
13487TIP3   OH261875   6.580   4.241  12.370  0.0382  0.2523  0.2817
13487TIP3    H161876   6.650   4.200  12.319 -0.7601 -1.6331  0.6242
13487TIP3    H261877   6.586   4.200  12.457 -0.3924  1.3567  0.8577
13488TIP3   OH261878   5.561   1.377   5.713  0.1490  0.1770  0.4880
13488TIP3    H161879   5.494   1.427   5.761 -1.3120  0.2877 -1.5503
13488TIP3    H261880   5.539   1.285   5.730 -0.0415  0.2129  0.4345
13489TIP3   OH261881   1.856   1.671  15.624  0.6665  0.0972  0.5323
13489TIP3    H161882   1.814   1.744  15.580  1.2175  0.3431  0.4064
13489TIP3    H261883   1.830   1.679  15.716  2.6127  1.8707  1.0178
13490TIP3   OH261884   4.003   5.772   5.318  0.3133 -0.4034 -0.2643
13490TIP3    H161885   4.024   5.746   5.228 -0.7114  0.3178 -0.7339
13490TIP3    H261886   3.926   5.829   5.309 -0.9075 -1.7146  1.2168
13491TIP3   OH261887   5.956   0.129   4.846 -0.0566 -0.2720 -0.1583
13491TIP3    H161888   5.875   0.080   4.838 -0.1536 -0.5688  2.1826
13491TIP3    H261889   6.025   0.063   4.837 -0.1345 -0.4241  0.3361
13492TIP3   OH261890   3.029   4.658  10.255 -0.0158  0.2714  0.2443
13492TIP3    H161891   2.997   4.712  10.182  1.3603  0.8633  0.0549
13492TIP3    H261892   3.056   4.576  10.213  2.1821  1.1537 -0.2016
13493TIP3   OH261893   4.683   6.417   5.252 -0.2660 -0.3160 -0.4472
13493TIP3    H161894   4.605   6.413   5.308 -0.5564 -1.7088 -0.9139
13493TIP3    H261895   4.654   6.461   5.172 -0.4377 -0.3788 -0.4187
13494TIP3   OH261896   2.952   5.609   5.798 -0.4123  0.4653 -0.4319
13494TIP3    H161897   2.926   5.526   5.757  0.8500 -0.5828  0.7682
13494TIP3    H261898   2.997   5.657   5.729  0.5305 -0.7079 -0.6738
13495TIP3   OH261899   1.425   2.131  14.014 -0.3508 -0.2823  0.1612
13495TIP3    H161900   1.493   2.143  13.948 -2.7251 -0.5041 -2.4799
13495TIP3    H261901   1.396   2.219  14.036  0.7880 -0.1822  1.3673
13496TIP3   OH261902   0.695   0.291  15.754 -0.3656 -0.2614 -0.0412
13496TIP3    H161903   0.708   0.313  15.661  2.0618 -0.5491  0.1730
13496TIP3    H261904   0.634   0.358  15.785 -0.0206  0.7940 -1.4971
13497TIP3   OH261905   2.925   4.477  16.192  0.2038 -0.2419  0.4935
13497TIP3    H161906   2.852   4.510  16.140  1.0635 -1.6435 -1.7289
13497TIP3    H261907   2.983   4.436  16.128  1.0695 -2.5584  2.6380
13498TIP3   OH261908   5.690   0.742  12.843 -0.2927  0.0708 -0.3023
13498TIP3    H161909   5.608   0.706  12.878 -1.1260  1.5972 -0.5561
13498TIP3    H261910   5.753   0.671  12.850 -0.8556 -0.2862  2.6805
13499TIP3   OH261911   3.886   1.648   3.445 -0.0324  0.6722  0.3769
13499TIP3    H161912   3.978   1.628   3.463 -0.1766  1.6708  2.5342
13499TIP3    H261913   3.843   1.643   3.530 -1.8684  0.8745 -0.4798
13500TIP3   OH261914   2.031   2.943  16.261  0.3128 -0.5677 -0.7588
13500TIP3    H161915   1.958   2.949  16.323  0.5514 -0.1463 -0.5082
13500TIP3    H261916   1.997   2.980  16.180  0.4944  0.4260 -0.4020
13501TIP3   OH261917   1.789   1.931  15.550  0.0059  0.2800  0.1713
13501TIP3    H161918   1.813   1.954  15.460  0.7797  0.6122  0.4504
13501TIP3    H261919   1.859   1.968  15.604 -0.3147 -0.1328  0.8936
13502TIP3   OH261920   4.836   4.759  10.998  0.3348 -0.1606  0.2421
13502TIP3    H161921   4.781   4.687  10.968  0.5674 -0.8963  1.5245
13502TIP3    H261922   4.792   4.838  10.965  0.4443 -0.8885 -1.7641
13503TIP3   OH261923   3.228   4.898   2.831 -0.0882 -0.1788  0.2506
13503TIP3    H161924   3.132   4.905   2.829  0.0203  1.9996  0.1408
13503TIP3    H261925   3.255   4.960   2.899  1.2277 -1.4764  0.9641
13504TIP3   OH261926   4.682   0.535   4.996 -0.2937 -0.1555 -0.4632
13504TIP3    H161927   4.713   0.521   4.907  0.5921  0.4528 -0.2655
13504TIP3    H261928   4.629   0.458   5.015 -0.9942 -0.0200 -1.7188
13505TIP3   OH261929   0.933   0.402  12.763  0.2583 -0.3758  0.4718
13505TIP3    H161930   0.853   0.360  12.794 -0.6154 -0.5850 -1.8729
13505TIP3    H261931   0.916   0.422  12.671  2.6425  0.2295  0.0881
13506TIP3   OH261932   2.027   0.512   2.315  0.2545  0.0923  0.0719
13506TIP3    H161933   2.073   0.596   2.304 -0.1249  0.1602 -1.2016
13506TIP3    H261934   1.935   0.533   2.299 -0.0143 -0.3501  0.9785
13507TIP3   OH261935   1.186   0.855   2.762 -0.7095  0.5175 -0.4424
13507TIP3    H161936   1.243   0.801   2.707 -1.2227 -0.6002  0.0934
13507TIP3    H261937   1.150   0.921   2.703 -0.2761  0.1144 -1.1674
13508TIP3   OH261938   1.688   5.766  10.295  0.1622 -0.0055 -0.0118
13508TIP3    H161939   1.599   5.791  10.321  0.0164 -1.1370  0.6542
13508TIP3    H261940   1.742   5.843  10.314 -0.9579  1.4700 -2.3185
13509TIP3   OH261941   1.842   0.542  16.354  0.2122 -0.7359 -0.0447
13509TIP3    H161942   1.801   0.461  16.325 -1.3478  0.1353 -0.3737
13509TIP3    H261943   1.769   0.603  16.369  1.2140  0.1427  1.6994
13510TIP3   OH261944   4.594   4.644   2.799 -0.1253 -0.1031 -0.2340
13510TIP3    H161945   4.673   4.628   2.850  0.3143  1.2424 -0.4587
13510TIP3    H261946   4.532   4.577   2.829  0.0205  0.7745  2.2611
13511TIP3   OH261947   6.395   3.030  16.115  0.4240  0.1746  0.2157
13511TIP3    H161948   6.465   3.013  16.052 -0.0666  1.3478 -0.6871
13511TIP3    H261949   6.317   3.044  16.060 -0.9907 -2.9056  1.2178
13512TIP3   OH261950   6.650   3.919   2.171  0.0808  0.2491 -0.5413
13512TIP3    H161951   6.581   3.919   2.105 -0.4151 -1.5392 -0.0980
13512TIP3    H261952   6.604   3.910   2.254  0.8091 -0.6490 -0.2096
13513TIP3   OH261953   5.425   1.127  12.468 -0.0328 -0.0597  0.5749
13513TIP3    H161954   5.370   1.078  12.529 -0.4745  0.5374  0.6711
13513TIP3    H261955   5.466   1.195  12.522 -1.7389  1.5566 -0.0448
13514TIP3   OH261956   6.656   1.373  16.352 -0.4242  0.0269  0.6681
13514TIP3    H161957   6.647   1.381  16.448  1.1209  0.2810  0.8080
13514TIP3    H261958   6.716   1.443  16.328 -0.8495  0.0005 -0.5134
13515TIP3   OH261959   2.596   4.478   0.880 -0.7314 -0.4676  0.1320
13515TIP3    H161960   2.547   4.447   0.804 -0.0641 -0.8870 -0.1385
13515TIP3    H261961   2.578   4.572   0.883 -3.4626 -0.9427  1.4582
13516TIP3   OH261962   0.921   4.766  11.881  0.3536  0.4645  0.0322
13516TIP3    H161963   0.923   4.788  11.788 -0.8045 -0.3243 -0.1978
13516TIP3    H261964   0.853   4.823  11.917  0.2710  0.2343  0.2425
13517TIP3   OH261965   6.319   4.077  12.964 -0.0037 -0.0768  0.0153
13517TIP3    H161966   6.289   4.147  12.906 -0.9738 -1.5594 -1.3652
13517TIP3    H261967   6.252   4.073  13.033  1.3615  1.9620  1.6004
13518TIP3   OH261968   1.530   0.937  16.993  0.0157 -0.1854 -0.7417
13518TIP3    H161969   1.458   0.907  17.049 -0.2538  0.6654 -0.6143
13518TIP3    H261970   1.569   0.857  16.959  1.8229 -0.9060  2.6301
13519TIP3   OH261971   0.819   3.867  15.135  0.2033 -0.5549  0.7040
13519TIP3    H161972   0.850   3.830  15.052  1.3407 -0.4776  1.0741
13519TIP3    H261973   0.784   3.953  15.112 -0.4445 -0.9501  0.1626
13520TIP3   OH261974   6.582   1.888  16.678  0.6157  0.0642 -0.3305
13520TIP3    H161975   6.669   1.925  16.661  0.9106  0.4026  1.6822
13520TIP3    H261976   6.599   1.809  16.730 -0.2577 -0.2081 -0.4436
13521TIP3   OH261977   4.003   0.309   1.029 -0.0373  0.4106 -0.3213
13521TIP3    H161978   3.968   0.398   1.032 -0.5366  0.1952  2.4243
13521TIP3    H261979   4.093   0.317   1.059  0.9161  0.3051 -2.8826
13522TIP3   OH261980   2.659   1.040  16.397 -0.2028 -0.4708  0.5552
13522TIP3    H161981   2.637   1.030  16.489 -1.8753 -1.3651  0.1029
13522TIP3    H261982   2.705   0.959  16.374  0.2005 -0.2550  0.5964
13523TIP3   OH261983   3.121   3.122  10.849  0.0501 -0.1650 -0.3032
13523TIP3    H161984   3.149   3.168  10.771 -0.8619 -1.3128 -1.3438
13523TIP3    H261985   3.145   3.031  10.834 -0.7976 -0.5298  0.4161
13524TIP3   OH261986   0.497   0.706  11.153  0.5069  0.3206  0.0359
13524TIP3    H161987   0.440   0.630  11.139  0.6983 -0.3926  2.5492
13524TIP3    H261988   0.553   0.709  11.076 -1.2411 -0.4545 -1.3534
13525TIP3   OH261989   6.434   5.729  16.092 -0.0177 -0.0440 -0.1206
13525TIP3    H161990   6.339   5.735  16.086 -0.0551 -1.1057 -1.2912
13525TIP3    H261991   6.453   5.640  16.061  1.3224  0.0030  0.5187
13526TIP3   OH261992   2.134   6.749   1.762 -0.2021  0.0280 -0.2982
13526TIP3    H161993   2.071   6.811   1.799 -0.5408 -1.0376  0.9922
13526TIP3    H261994   2.176   6.709   1.839  0.1461 -1.1816 -1.0941
13527TIP3   OH261995   5.973   5.775  12.926 -0.2740 -0.1165  0.0785
13527TIP3    H161996   6.027   5.819  12.861  0.5840  0.7350  1.3184
13527TIP3    H261997   6.018   5.692  12.943 -1.4582 -1.1966 -1.6606
13528TIP3   OH261998   5.043   2.899  10.710 -0.1523  0.8460  0.0264
13528TIP3    H161999   5.085   2.982  10.690 -0.9558  2.0122  2.8411
13528TIP3    H262000   4.955   2.922  10.738 -0.7261 -1.0617 -0.0654
13529TIP3   OH262001   5.842   5.359  15.746  0.1727  0.5944  0.2428
13529TIP3    H162002   5.789   5.353  15.826  1.3055 -0.7289  0.9356
13529TIP3    H262003   5.900   5.283  15.750  1.0401  1.1340 -1.2863
13530TIP3   OH262004   6.420   6.174   0.860  0.0894 -0.3589  0.7841
13530TIP3    H162005   6.427   6.267   0.841  0.8915 -0.3670  1.0379
13530TIP3    H262006   6.343   6.146   0.810  0.8080  0.0972 -0.6267
13531TIP3   OH262007   3.691   1.444   4.360  0.0021  0.1641  0.0366
13531TIP3    H162008   3.765   1.384   4.372 -0.5782 -0.6103 -0.1600
13531TIP3    H262009   3.729   1.531   4.371  0.9237 -0.2217  0.0342
13532TIP3   OH262010   6.259   4.103   3.668 -0.2894 -0.2137  0.2360
13532TIP3    H162011   6.182   4.052   3.693 -0.9736  0.4315 -0.5133
13532TIP3    H262012   6.284   4.068   3.583  0.3447 -0.5219  0.5445
13533TIP3   OH262013   0.923   3.753   5.634  0.0021 -0.5359 -0.1786
13533TIP3    H162014   0.911   3.839   5.594 -0.8071 -0.8237 -0.5689
13533TIP3    H262015   0.841   3.736   5.680  1.3003  0.3199  2.7018
13534TIP3   OH262016   5.754   2.050  16.735  0.5107  0.1790  0.0185
13534TIP3    H162017   5.827   2.105  16.761  0.7024 -0.0959  0.0643
13534TIP3    H262018   5.789   1.961  16.735 -0.4914 -0.2958  2.6022
13535TIP3   OH262019   4.567   4.044   4.458 -0.3300  0.6609 -0.6294
13535TIP3    H162020   4.530   4.089   4.382  0.4094 -0.6608 -1.8215
13535TIP3    H262021   4.496   3.991   4.492  0.3009 -1.8926 -2.9256
13536TIP3   OH262022   6.025   0.592   5.019  0.4383  0.4057 -0.0367
13536TIP3    H162023   5.977   0.616   5.099  1.4385  2.5284 -0.0124
13536TIP3    H262024   5.958   0.592   4.951 -0.1083  0.3922  0.4849
13537TIP3   OH262025   4.635   3.039   3.786  0.0724 -0.6673 -0.1021
13537TIP3    H162026   4.708   2.977   3.784  1.6727  1.1307 -1.6879
13537TIP3    H262027   4.594   3.031   3.700 -2.5057 -2.5193  1.1545
13538TIP3   OH262028   2.415   3.184   5.961  0.1287  0.5560  0.1012
13538TIP3    H162029   2.436   3.154   6.049 -1.4458 -1.5791 -0.1743
13538TIP3    H262030   2.482   3.143   5.905 -0.0540  0.2860  0.0820
13539TIP3   OH262031   1.239   3.242   0.456  0.2551  0.0575 -0.6325
13539TIP3    H162032   1.277   3.201   0.379 -0.8778 -0.2664 -1.0516
13539TIP3    H262033   1.237   3.335   0.435  0.9647  0.1011 -0.5265
13540TIP3   OH262034   6.367   1.809   4.804 -0.2081 -0.2823  0.8747
13540TIP3    H162035   6.370   1.717   4.831  0.4289 -0.3524  0.5898
13540TIP3    H262036   6.384   1.807   4.710  0.1749  0.1528  0.9334
13541TIP3   OH262037   0.353   4.351  12.053  0.2944  0.3340 -0.3951
13541TIP3    H162038   0.401   4.271  12.032  2.5158  1.5224 -0.1506
13541TIP3    H262039   0.375   4.367  12.145 -0.6071  0.9165 -0.2785
13542TIP3   OH262040   0.132   0.753   3.982 -0.0384 -0.1607  0.3625
13542TIP3    H162041   0.181   0.801   4.049  0.3426 -0.5094  0.3384
13542TIP3    H262042   0.183   0.766   3.902 -1.6451  2.1407 -0.4007
13543TIP3   OH262043   0.435   5.759  11.836 -0.3390  0.1470 -0.2349
13543TIP3    H162044   0.450   5.775  11.929 -1.3336  1.7261 -0.3109
13543TIP3    H262045   0.521   5.733  11.801 -0.2795 -2.1740  1.4002
13544TIP3   OH262046   4.832   3.798   4.025 -0.2472  0.6692 -0.2023
13544TIP3    H162047   4.826   3.871   3.965  1.1363 -0.1807 -1.4354
13544TIP3    H262048   4.743   3.787   4.059 -0.6578  2.3194 -0.6863
13545TIP3   OH262049   4.920   5.814   3.038  0.2875 -0.0795 -0.3695
13545TIP3    H162050   4.990   5.820   2.972 -0.3192 -2.7168 -1.3755
13545TIP3    H262051   4.894   5.722   3.037 -2.3589  0.5595  0.8875
13546TIP3   OH262052   5.193   4.720   1.999  0.3693 -0.0316  0.6530
13546TIP3    H162053   5.142   4.754   2.073  0.3859  1.1322  0.1499
13546TIP3    H262054   5.251   4.656   2.039 -1.7882 -1.7896  1.1828
13547TIP3   OH262055   4.622   6.551  13.432 -0.0166  0.4661 -0.0434
13547TIP3    H162056   4.566   6.519  13.502 -1.1066 -0.5977 -1.3575
13547TIP3    H262057   4.647   6.473  13.384  1.0776  1.1351 -0.5977
13548TIP3   OH262058   4.372   4.016  16.073  0.0528 -0.1599 -0.5226
13548TIP3    H162059   4.428   4.064  16.012  0.9186  0.8910  1.0344
13548TIP3    H262060   4.285   4.053  16.059  0.5132  1.1118 -0.1076
13549TIP3   OH262061   6.181   1.261  11.801 -0.4487 -0.3549  0.4358
13549TIP3    H162062   6.131   1.308  11.734  0.6894  0.6459  0.2626
13549TIP3    H262063   6.272   1.271  11.775 -0.0799 -1.3506  1.2638
13550TIP3   OH262064   1.784   2.518  14.274 -0.0392  0.2199 -0.5550
13550TIP3    H162065   1.856   2.507  14.336 -0.1810  1.8582 -0.0287
13550TIP3    H262066   1.725   2.445  14.292  1.3843 -1.0346 -0.8667
13551TIP3   OH262067   2.551   4.043  14.382 -0.3086 -0.2457 -0.5802
13551TIP3    H162068   2.466   4.050  14.337 -0.3195  1.5766 -0.3605
13551TIP3    H262069   2.605   4.110  14.341  0.9433 -1.1789 -0.4912
13552TIP3   OH262070   0.559   4.784  13.925 -0.2575 -0.1441  0.4452
13552TIP3    H162071   0.473   4.823  13.939 -0.3988  0.0068 -0.6975
13552TIP3    H262072   0.620   4.846  13.964 -0.6970 -0.6964  2.0876
13553TIP3   OH262073   0.962   3.373  12.093  0.0540 -0.0551  0.5050
13553TIP3    H162074   1.011   3.291  12.086  1.1094  0.6741 -1.2666
13553TIP3    H262075   0.957   3.390  12.188  0.5663 -1.7007  0.8551
13554TIP3   OH262076   6.329   2.517   5.500 -0.7255  0.0807  0.4566
13554TIP3    H162077   6.386   2.585   5.463  0.5386 -0.7974  0.7023
13554TIP3    H262078   6.334   2.530   5.594  0.4542 -1.0187  0.5761
13555TIP3   OH262079   3.755   3.790  16.299  0.4125  0.5753  0.3781
13555TIP3    H162080   3.774   3.802  16.392  1.9272 -0.0465  0.1838
13555TIP3    H262081   3.721   3.701  16.292 -1.7568  1.3313  0.5826
13556TIP3   OH262082   1.369   1.115  11.520 -0.6094 -0.1004 -0.2634
13556TIP3    H162083   1.446   1.066  11.492 -1.1040 -0.1691 -1.5497
13556TIP3    H262084   1.349   1.174  11.447 -1.2199  0.6023  0.4404
13557TIP3   OH262085   5.117   0.103   4.456  0.6009 -0.4254  0.1566
13557TIP3    H162086   5.156   0.159   4.523 -1.2354  0.9337  0.1891
13557TIP3    H262087   5.056   0.047   4.505  0.0358 -0.1604 -0.2298
13558TIP3   OH262088   2.631   3.336  12.860  0.1510 -0.2261  0.3357
13558TIP3    H162089   2.577   3.308  12.934  1.0266 -0.1591  1.0252
13558TIP3    H262090   2.699   3.391  12.900  1.0912 -0.8174 -0.4131
13559TIP3   OH262091   2.748   3.454   2.232  0.4031  0.7495  0.2192
13559TIP3    H162092   2.760   3.457   2.327  1.2507  0.3078  0.1343
13559TIP3    H262093   2.798   3.378   2.203  1.6633  1.9038 -0.7866
13560TIP3   OH262094   1.816   2.661  12.756  0.4776 -0.3376 -0.0986
13560TIP3    H162095   1.766   2.729  12.800  0.6460 -0.3082  0.0503
13560TIP3    H262096   1.761   2.582  12.763  0.0288 -0.0938 -0.7645
13561TIP3   OH262097   0.954   1.311   4.015  0.2695  0.0401 -0.3733
13561TIP3    H162098   0.914   1.346   4.094 -1.2066  1.6690 -1.7590
13561TIP3    H262099   1.019   1.248   4.047 -0.4810  0.4056  2.0909
13562TIP3   OH262100   3.091   3.427   4.739  0.1098  0.5344  0.0303
13562TIP3    H162101   3.096   3.347   4.687 -0.6357  0.4742  0.0336
13562TIP3    H262102   3.180   3.461   4.739  0.4571 -0.3369  0.0977
13563TIP3   OH262103   4.891   5.748  16.255  0.3062 -0.0626 -0.0413
13563TIP3    H162104   4.973   5.760  16.207 -0.3820  0.9699 -1.0202
13563TIP3    H262105   4.869   5.835  16.287 -0.5993 -0.2492 -0.1194
13564TIP3   OH262106   3.295   4.092  14.820  0.6054  0.6207  0.2824
13564TIP3    H162107   3.233   4.023  14.798  2.1302 -0.1764 -1.9330
13564TIP3    H262108   3.264   4.127  14.903 -2.9726  0.5448 -0.8562
13565TIP3   OH262109   0.085   2.194  14.704  0.1104 -0.3638  0.1001
13565TIP3    H162110   0.128   2.227  14.783 -1.1257  2.1936 -0.1775
13565TIP3    H262111  -0.008   2.194  14.727 -0.1957 -0.3305 -1.0948
13566TIP3   OH262112   5.826   0.223  16.004 -0.1582 -0.0226  0.5520
13566TIP3    H162113   5.799   0.234  15.913  0.8848 -1.1261  0.0870
13566TIP3    H262114   5.805   0.132  16.025  2.9726 -0.9584  0.1756
13567TIP3   OH262115   4.457   5.158   5.167  0.1064 -0.3620  0.0394
13567TIP3    H162116   4.538   5.155   5.218  1.3138  1.8525 -1.5761
13567TIP3    H262117   4.404   5.226   5.209  1.2056  1.6394 -1.6477
13568TIP3   OH262118   1.168   4.394   4.909 -0.2552  0.1300  0.4142
13568TIP3    H162119   1.250   4.345   4.909  0.2024  0.8558  1.4160
13568TIP3    H262120   1.135   4.387   4.819  1.6619  1.0977 -0.4057
13569TIP3   OH262121   0.478   4.204   1.160 -0.6888  0.1277 -0.2186
13569TIP3    H162122   0.500   4.288   1.121 -0.2109 -0.1205 -0.5016
13569TIP3    H262123   0.563   4.162   1.177 -0.9256 -0.5218 -0.5942
13570TIP3   OH262124   5.613   4.502  10.900  0.0944 -0.1445 -0.1668
13570TIP3    H162125   5.646   4.588  10.926  2.1605 -0.6292 -0.9874
13570TIP3    H262126   5.621   4.448  10.978  0.7174 -0.0842 -0.1798
13571TIP3   OH262127   2.653   4.753  14.413 -0.0078 -0.1759 -0.2203
13571TIP3    H162128   2.706   4.826  14.446 -0.3740 -0.0069  0.0002
13571TIP3    H262129   2.705   4.675  14.432 -0.7355 -0.2207  1.9560
13572TIP3   OH262130   0.049   2.490  15.791  0.1475  0.4310 -0.2253
13572TIP3    H162131   0.074   2.460  15.879  2.1884  0.3008 -0.7921
13572TIP3    H262132   0.048   2.410  15.738 -1.2111  0.4918 -0.3083
13573TIP3   OH262133   3.430   1.152   0.083  0.2775 -0.2068 -0.6594
13573TIP3    H162134   3.373   1.228   0.093 -1.5250 -1.2633 -2.0878
13573TIP3    H262135   3.383   1.081   0.128  0.8966 -0.9286 -1.1263
13574TIP3   OH262136   2.698   4.450  14.727 -0.0593  0.0211 -0.1269
13574TIP3    H162137   2.792   4.457  14.738 -0.0864  0.0968  0.0784
13574TIP3    H262138   2.679   4.499  14.647  0.1196 -0.3153 -0.3728
13575TIP3   OH262139   3.719   0.770  12.103 -0.4385 -0.2060  0.3507
13575TIP3    H162140   3.767   0.727  12.174  1.3346 -0.0117 -0.6724
13575TIP3    H262141   3.781   0.834  12.067 -2.2725  1.7711  0.4702
13576TIP3   OH262142   2.463   4.095   0.467  0.2447  0.7712 -0.5814
13576TIP3    H162143   2.430   4.041   0.539 -1.9163  1.5699 -0.8994
13576TIP3    H262144   2.523   4.157   0.508  0.2706  0.1954  0.2679
13577TIP3   OH262145   5.756   1.264  14.431  0.6024 -0.2531  0.3843
13577TIP3    H162146   5.693   1.312  14.376  2.3411  0.9510 -0.6713
13577TIP3    H262147   5.760   1.177  14.391  0.8065  0.1798 -0.5857
13578TIP3   OH262148   4.930   0.775   2.105  0.2688  0.1798 -0.5069
13578TIP3    H162149   4.988   0.731   2.166  0.3738  0.5771 -0.3232
13578TIP3    H262150   4.936   0.723   2.025  2.6237  1.4837 -1.2520
13579TIP3   OH262151   0.755   5.896  15.278 -0.5898 -0.2762  0.5203
13579TIP3    H162152   0.730   5.983  15.307 -0.1208  0.4782 -1.2126
13579TIP3    H262153   0.834   5.876  15.328  0.4853  1.1966 -0.4769
13580TIP3   OH262154   3.780   4.396   1.477  0.3985 -0.0295 -0.0099
13580TIP3    H162155   3.726   4.417   1.402  0.1060  0.7053  0.3954
13580TIP3    H262156   3.848   4.463   1.478 -0.0056  0.3818  0.7767
13581TIP3   OH262157   4.255   0.712  16.182 -0.5214 -0.3644 -0.2730
13581TIP3    H162158   4.276   0.726  16.275 -0.9104 -1.6913  0.0477
13581TIP3    H262159   4.339   0.690  16.142  0.0173  2.2003 -0.6989
13582TIP3   OH262160   0.339   2.126   0.733 -0.3504  0.0060  0.3888
13582TIP3    H162161   0.424   2.130   0.777  0.1632 -1.6125 -0.3658
13582TIP3    H262162   0.316   2.033   0.735 -0.3335 -0.1694 -2.6375
13583TIP3   OH262163   3.970   6.514  15.764 -0.3923  0.0223  0.2736
13583TIP3    H162164   3.959   6.568  15.842 -2.1571 -0.1832  0.2182
13583TIP3    H262165   4.045   6.552  15.718  1.0746 -0.2177  2.3295
13584TIP3   OH262166   2.503   0.938  11.551 -0.1210  0.2557  0.2818
13584TIP3    H162167   2.465   0.851  11.546 -2.5215  1.2987 -2.4949
13584TIP3    H262168   2.476   0.972  11.636 -2.2358 -0.4839 -0.0444
13585TIP3   OH262169   2.077   6.669  16.163 -0.0899 -0.5287  0.8215
13585TIP3    H162170   2.159   6.703  16.128 -0.5481 -0.3692 -0.1277
13585TIP3    H262171   2.077   6.576  16.138  0.3696 -0.8493  1.9261
13586TIP3   OH262172   5.908   6.084  12.447  0.2069 -0.3539 -0.4537
13586TIP3    H162173   5.984   6.031  12.422  0.9890  0.2006  0.6230
13586TIP3    H262174   5.850   6.082  12.371  2.8994  2.1336 -2.8559
13587TIP3   OH262175   4.183   2.591   5.781 -0.0136 -0.4021  0.2136
13587TIP3    H162176   4.151   2.541   5.856  0.8673  0.3918  1.1582
13587TIP3    H262177   4.279   2.586   5.789  0.0951 -0.3163 -0.8806
13588TIP3   OH262178   2.242   5.495  15.563  0.0446 -0.0501 -0.9730
13588TIP3    H162179   2.224   5.468  15.654 -0.7613  1.0587 -0.7892
13588TIP3    H262180   2.161   5.535  15.533  0.6016  0.4339 -1.8837
13589TIP3   OH262181   5.875   1.459   1.895  0.5492  0.0143  0.5229
13589TIP3    H162182   5.965   1.460   1.862  0.2368  0.5489 -0.3510
13589TIP3    H262183   5.864   1.372   1.932  1.1121 -0.4084 -0.2685
13590TIP3   OH262184   6.456   3.645   0.177  0.3596  0.8277 -0.0053
13590TIP3    H162185   6.473   3.561   0.135 -0.6746 -0.0750  1.3104
13590TIP3    H262186   6.538   3.667   0.220  1.3540  1.6338 -2.1472
13591TIP3   OH262187   5.055   0.872   5.621  0.0881  0.1573 -0.6433
13591TIP3    H162188   4.960   0.876   5.627  0.0920 -0.2452 -0.2595
13591TIP3    H262189   5.086   0.937   5.684  0.0684  0.1609 -0.6376
13592TIP3   OH262190   2.426   6.563   0.366 -0.0056  0.3512  0.0221
13592TIP3    H162191   2.335   6.535   0.383  0.6732 -2.5771 -0.5436
13592TIP3    H262192   2.466   6.567   0.453 -0.7243  2.0572  0.3123
13593TIP3   OH262193   4.161   4.144  13.782 -0.2725  0.1260  0.2782
13593TIP3    H162194   4.067   4.159  13.796 -0.1808  0.3060  0.7225
13593TIP3    H262195   4.181   4.068  13.837  0.1075  0.8828  1.2189
13594TIP3   OH262196   1.515   3.869  13.231 -0.2457  0.4308  0.5048
13594TIP3    H162197   1.472   3.788  13.259 -0.8872  0.5200 -0.2066
13594TIP3    H262198   1.505   3.870  13.136  1.7072  0.2510  0.2668
13595TIP3   OH262199   6.225   0.652   4.004  0.1829  0.5986  0.0883
13595TIP3    H162200   6.159   0.654   4.073 -0.4058 -0.1207 -0.4390
13595TIP3    H262201   6.299   0.702   4.040 -0.3609  0.7921  0.9704
13596TIP3   OH262202   1.774   3.215   6.197  0.0514  0.5361  0.1811
13596TIP3    H162203   1.840   3.161   6.242 -0.0737 -0.2072 -0.5126
13596TIP3    H262204   1.690   3.182   6.229 -0.0082  1.0054  0.5217
13597TIP3   OH262205   6.688   5.536  16.733  0.2363  0.2397  0.0341
13597TIP3    H162206   6.621   5.480  16.773 -1.0107  0.7293 -1.2811
13597TIP3    H262207   6.661   5.544  16.642  0.6534  2.5528  0.0528
13598TIP3   OH262208   1.397   2.475   2.106 -0.1559  0.3320 -0.2193
13598TIP3    H162209   1.334   2.408   2.079  0.5781 -0.8546  0.9008
13598TIP3    H262210   1.362   2.557   2.069 -1.1976 -0.6092 -1.4252
13599TIP3   OH262211   2.007   3.243  16.381 -0.3524 -0.3339  0.5160
13599TIP3    H162212   2.005   3.157  16.422  0.2611 -1.1054 -0.9981
13599TIP3    H262213   1.950   3.234  16.304  1.6389 -0.1617 -1.0479
13600TIP3   OH262214   1.956   4.152  15.466  0.1832 -0.6407 -0.8466
13600TIP3    H162215   2.025   4.110  15.414  0.0422 -1.4311 -0.3986
13600TIP3    H262216   1.881   4.094  15.458 -0.3382  0.0437 -1.0434
13601TIP3   OH262217   3.509   6.641   3.346  0.1175 -0.0696 -0.1920
13601TIP3    H162218   3.562   6.591   3.284  0.3187  0.3923 -0.3970
13601TIP3    H262219   3.419   6.625   3.318  0.1934 -0.1108 -0.4168
13602TIP3   OH262220   5.929   1.139   5.164  0.2533  0.4442 -0.0883
13602TIP3    H162221   5.943   1.195   5.240  1.1357  2.5858 -1.7510
13602TIP3    H262222   6.014   1.101   5.146  0.6627  1.9240 -1.4526
13603TIP3   OH262223   3.385   4.798  16.948 -0.3683  0.2160  0.1988
13603TIP3    H162224   3.433   4.746  17.012 -0.3418  0.0834  0.0722
13603TIP3    H262225   3.306   4.747  16.930 -0.4956  0.3696  0.3090
13604TIP3   OH262226   0.376   5.559  15.188 -0.3209 -0.1062 -0.3545
13604TIP3    H162227   0.458   5.526  15.153  0.2167 -0.5477  1.2513
13604TIP3    H262228   0.402   5.623  15.254 -1.1653 -1.6236  1.5520
13605TIP3   OH262229   4.979   4.653  12.210 -0.0129  0.1080 -0.3149
13605TIP3    H162230   5.053   4.692  12.257  0.7645 -2.3592  0.7192
13605TIP3    H262231   4.971   4.566  12.249 -2.7389 -0.1269 -1.2365
13606TIP3   OH262232   6.688   6.667   0.076 -0.1922  0.0662 -0.2186
13606TIP3    H162233   6.635   6.651   0.153  1.9669 -0.2380  1.2945
13606TIP3    H262234   6.629   6.713   0.015 -1.9263  0.4213  1.6305
13607TIP3   OH262235   2.138   4.364   5.009 -0.6300  0.0361  0.2126
13607TIP3    H162236   2.110   4.378   5.099  0.6551  1.8409  0.3949
13607TIP3    H262237   2.097   4.435   4.959 -1.4816 -1.0516 -0.6767
13608TIP3   OH262238   1.930   0.690  10.635 -0.0038  0.7241 -0.1013
13608TIP3    H162239   1.867   0.702  10.706 -0.3926 -0.6103 -0.1950
13608TIP3    H262240   2.014   0.715  10.673 -0.5146  2.1613  0.1348
13609TIP3   OH262241   4.263   6.692   5.601 -0.1605 -0.4295  0.3844
13609TIP3    H162242   4.206   6.634   5.551 -0.7838  0.4761  0.0043
13609TIP3    H262243   4.226   6.692   5.689 -2.0325  1.6977 -0.3166
13610TIP3   OH262244   1.695   5.916  14.081 -0.3086  0.6761 -0.1130
13610TIP3    H162245   1.740   5.963  14.011 -0.9558  1.7191  0.1514
13610TIP3    H262246   1.631   5.861  14.036 -1.8146  2.4931 -0.3421
13611TIP3   OH262247   0.977   1.537  11.238 -0.5014 -0.0779  0.0303
13611TIP3    H162248   1.060   1.561  11.280  0.7209 -0.7667 -1.8559
13611TIP3    H262249   0.960   1.608  11.177 -0.7718 -0.4092 -0.2852
13612TIP3   OH262250   1.644   4.502   6.340 -0.4756  0.0773  0.0390
13612TIP3    H162251   1.659   4.572   6.404  3.2639  1.0303 -1.6428
13612TIP3    H262252   1.696   4.429   6.373 -0.3932 -0.2193 -0.7440
13613TIP3   OH262253   2.902   1.283  10.580 -0.1390 -0.0442 -0.2966
13613TIP3    H162254   2.836   1.353  10.571 -1.3868 -1.0136  0.9096
13613TIP3    H262255   2.886   1.247  10.668  1.5137 -0.8261 -0.2927
13614TIP3   OH262256   1.648   1.104   6.468  0.5221  0.3782 -0.3216
13614TIP3    H162257   1.687   1.143   6.389  1.2204 -2.3796 -1.4722
13614TIP3    H262258   1.720   1.053   6.507 -0.2928  0.3082  1.1351
13615TIP3   OH262259   5.702   3.688  12.855  0.6026 -0.8156 -0.1822
13615TIP3    H162260   5.783   3.680  12.906 -1.0032  0.2974  2.8010
13615TIP3    H262261   5.703   3.777  12.821  0.5952 -0.7804 -0.0899
13616TIP3   OH262262   6.595   1.117  13.563  0.1272 -0.6425  0.3258
13616TIP3    H162263   6.631   1.140  13.649 -0.9010  0.3612  0.5095
13616TIP3    H262264   6.562   1.028  13.574  0.4659 -0.7155  0.8137
13617TIP3   OH262265   4.941   1.187  10.115  0.2720 -0.2003 -0.6300
13617TIP3    H162266   4.958   1.246  10.042 -0.2575 -1.0651 -1.4672
13617TIP3    H262267   4.849   1.204  10.139  0.7919  0.9809  0.6909
13618TIP3   OH262268   4.240   4.276  11.381 -0.1135 -0.2766  0.3280
13618TIP3    H162269   4.287   4.282  11.464  1.6385 -0.0417 -0.6440
13618TIP3    H262270   4.194   4.192  11.386 -0.1416 -0.2098  1.5681
13619TIP3   OH262271   3.690   0.731   2.156 -0.3517 -0.2936 -0.1686
13619TIP3    H162272   3.659   0.651   2.112 -0.1061  0.1573 -1.1856
13619TIP3    H262273   3.615   0.761   2.208 -0.1412 -1.7233  1.0470
13620TIP3   OH262274   4.812   0.483   0.791 -0.0808  0.0558  1.0157
13620TIP3    H162275   4.728   0.437   0.792 -0.4020  0.5964  0.3234
13620TIP3    H262276   4.875   0.419   0.821 -0.0887 -1.7066 -2.2737
13621TIP3   OH262277   2.059   2.267  15.417  0.3058  0.3593 -0.5310
13621TIP3    H162278   2.083   2.311  15.336  0.7639 -0.1036 -0.6516
13621TIP3    H262279   2.009   2.332  15.466 -3.0364 -0.3859 -2.6276
13622TIP3   OH262280   1.485   4.616  14.795 -0.2178  1.0755 -0.2243
13622TIP3    H162281   1.504   4.526  14.769  0.6049  0.8146  1.1805
13622TIP3    H262282   1.464   4.660  14.713  2.2090  0.2957 -1.3580
13623TIP3   OH262283   0.608   3.472  16.831 -0.0251  0.0260  0.2679
13623TIP3    H162284   0.595   3.404  16.897 -1.6437 -0.1957 -0.2239
13623TIP3    H262285   0.566   3.550  16.870  1.2985  0.6093  0.5794
13624TIP3   OH262286   5.246   3.799   5.257 -0.1462 -0.2615 -0.1747
13624TIP3    H162287   5.173   3.860   5.250 -1.5236 -1.8229  0.0029
13624TIP3    H262288   5.262   3.791   5.351  0.3533  0.1813 -0.2187
13625TIP3   OH262289   3.684   2.179   0.326 -0.7328 -0.5484  0.1057
13625TIP3    H162290   3.760   2.122   0.322  0.9511  1.5892  0.0228
13625TIP3    H262291   3.689   2.220   0.412 -1.3756  0.1474 -0.1769
13626TIP3   OH262292   6.647   2.131   3.255 -0.0015 -0.0452 -0.1907
13626TIP3    H162293   6.576   2.125   3.319  0.3535 -0.5650  0.1600
13626TIP3    H262294   6.603   2.145   3.172 -0.4023  2.7361  0.4063
13627TIP3   OH262295   1.639   6.299   2.056 -0.2944 -0.0875 -0.6321
13627TIP3    H162296   1.554   6.255   2.057  0.2023 -1.1535 -2.0869
13627TIP3    H262297   1.686   6.261   2.130 -0.8317 -0.0136 -0.2484
13628TIP3   OH262298   6.710   2.708   1.989 -0.3073 -0.3371  0.3618
13628TIP3    H162299   6.623   2.682   1.960  0.2610 -0.7972 -0.9912
13628TIP3    H262300   6.732   2.647   2.059 -1.1849 -0.0058  0.9498
13629TIP3   OH262301   6.102   5.688   1.476 -0.2436 -0.0457  0.8702
13629TIP3    H162302   6.156   5.623   1.521  1.1662  0.2756 -0.2592
13629TIP3    H262303   6.051   5.729   1.545 -1.3566 -2.4558  1.6170
13630TIP3   OH262304   4.382   3.631   3.494 -0.9022  0.3268  0.0170
13630TIP3    H162305   4.326   3.601   3.423 -1.1001 -0.5444  0.5165
13630TIP3    H262306   4.464   3.655   3.452 -0.6234 -1.2485 -0.3900
13631TIP3   OH262307   3.856   2.451   5.515 -0.3041 -0.1762 -0.4159
13631TIP3    H162308   3.769   2.435   5.477 -0.9559  2.5416 -0.2759
13631TIP3    H262309   3.841   2.458   5.609  0.3949 -1.3335 -0.1902
13632TIP3   OH262310   2.442   5.691  16.159  0.4239  0.2411 -0.0865
13632TIP3    H162311   2.426   5.599  16.140 -0.1956  0.3416 -0.0907
13632TIP3    H262312   2.358   5.734  16.142  0.7846  0.8509 -0.3738
13633TIP3   OH262313   5.342   2.702  13.544 -0.3924  0.0939  0.5856
13633TIP3    H162314   5.279   2.737  13.481 -0.9330 -1.1647  0.3948
13633TIP3    H262315   5.332   2.607  13.537 -1.4148 -0.1048  3.5435
13634TIP3   OH262316   4.082   5.054  13.854  0.1884  0.2571  0.1646
13634TIP3    H162317   4.015   5.101  13.903  0.5567  1.2031 -0.2052
13634TIP3    H262318   4.034   4.993  13.799 -0.4379  1.3534 -0.5576
13635TIP3   OH262319   6.248   4.650  11.056 -0.0099 -0.1794  1.0334
13635TIP3    H162320   6.245   4.572  11.001  1.5769 -0.3608  1.1639
13635TIP3    H262321   6.199   4.625  11.135 -1.7603 -0.1251  0.0184
13636TIP3   OH262322   4.452   6.701  17.016 -0.6613  0.2093 -0.1077
13636TIP3    H162323   4.477   6.793  17.027 -0.1494 -0.1628  2.3133
13636TIP3    H262324   4.442   6.691  16.921 -0.5165  2.6897 -0.4653
13637TIP3   OH262325   0.246   4.838   5.670  0.2376  0.1806 -0.2992
13637TIP3    H162326   0.223   4.771   5.734 -0.3035  0.2694 -0.3987
13637TIP3    H262327   0.270   4.914   5.724 -0.7629  0.4366 -0.1975
13638TIP3   OH262328   0.900   0.572  11.647 -0.2686 -0.4070 -0.5157
13638TIP3    H162329   0.993   0.590  11.657 -0.0330 -0.8393 -1.8036
13638TIP3    H262330   0.885   0.571  11.553 -1.5335 -0.5694 -0.3316
13639TIP3   OH262331   1.959   2.351  16.856  0.0648 -0.6930 -0.2854
13639TIP3    H162332   1.944   2.323  16.766 -0.1038 -1.2699 -0.0782
13639TIP3    H262333   1.942   2.446  16.854 -0.6748 -0.8232 -0.6967
13640TIP3   OH262334   1.098   0.759  16.953 -0.1832 -0.0575  0.1369
13640TIP3    H162335   1.176   0.733  17.003  0.4246 -0.6191 -1.0613
13640TIP3    H262336   1.024   0.726  17.004  0.3279  0.7654  1.4652
13641TIP3   OH262337   4.526   2.448  11.215  0.2666 -0.0200  0.1416
13641TIP3    H162338   4.573   2.455  11.299  0.0927 -1.5441  0.3922
13641TIP3    H262339   4.497   2.357  11.212 -0.5027  0.2548 -1.1803
13642TIP3   OH262340   1.511   2.394  16.785  0.1734 -0.7682 -0.0906
13642TIP3    H162341   1.532   2.388  16.879 -0.6981 -1.9291  0.0584
13642TIP3    H262342   1.594   2.417  16.743  0.4944  0.1648  0.9933
13643TIP3   OH262343   0.950   3.470  13.495  0.2403  0.7578  0.0625
13643TIP3    H162344   1.005   3.400  13.530  0.3216  0.9324  0.2887
13643TIP3    H262345   1.006   3.547  13.495  0.3126  0.7082 -0.6818
13644TIP3   OH262346   2.142   5.433  17.074  0.9661  0.3778 -0.1240
13644TIP3    H162347   2.175   5.523  17.063  0.4740  0.6065  0.2449
13644TIP3    H262348   2.199   5.395  17.141  1.4750  0.2514 -0.6126
13645TIP3   OH262349   5.248   5.156   5.731 -0.3852 -0.4153  0.4800
13645TIP3    H162350   5.257   5.150   5.826  1.2559  2.7396  0.6592
13645TIP3    H262351   5.158   5.184   5.716 -0.4186 -0.1584  1.1584
13646TIP3   OH262352   4.124   0.582  12.006 -0.1741 -0.0919  0.0977
13646TIP3    H162353   4.099   0.666  12.045 -0.9774 -0.8316  1.2322
13646TIP3    H262354   4.080   0.580  11.922 -2.6923 -0.6545  1.3479
13647TIP3   OH262355   2.566   5.155  13.693  0.1144  0.0821 -0.1320
13647TIP3    H162356   2.566   5.093  13.620  0.5581 -0.9605  0.7226
13647TIP3    H262357   2.655   5.151  13.728 -0.4555 -0.4899  1.3234
13648TIP3   OH262358   6.111   1.750   1.268  0.2287 -0.6763  0.1460
13648TIP3    H162359   6.146   1.836   1.290  1.4608 -1.2649  0.5770
13648TIP3    H262360   6.052   1.766   1.194 -0.3141  0.6632  0.8365
13649TIP3   OH262361   4.004   3.862   3.058  0.1427 -0.2479 -0.2135
13649TIP3    H162362   4.022   3.824   3.145  2.5081  0.7619 -0.1770
13649TIP3    H262363   4.083   3.911   3.037 -1.5868  2.1223 -1.6133
13650TIP3   OH262364   0.228   2.553  14.526 -0.1268  0.3625 -0.7423
13650TIP3    H162365   0.283   2.501  14.585 -2.0751 -1.9245 -0.7785
13650TIP3    H262366   0.232   2.642  14.561  0.6564 -0.4464  1.4062
13651TIP3   OH262367   4.688   3.425   6.444  0.2534  0.0321  0.2570
13651TIP3    H162368   4.783   3.426   6.436  0.3791 -1.3610  1.2234
13651TIP3    H262369   4.661   3.341   6.407 -0.7835  1.0032 -1.3465
13652TIP3   OH262370   2.208   3.378   2.767  0.2861 -0.0534 -0.4352
13652TIP3    H162371   2.221   3.283   2.771 -0.3973 -0.2394 -1.8737
13652TIP3    H262372   2.204   3.406   2.858  1.1009 -1.3174  0.0102
13653TIP3   OH262373   0.720   0.414  12.080 -0.2686  0.2639 -0.1805
13653TIP3    H162374   0.682   0.426  12.166 -1.0776 -0.2748 -0.4462
13653TIP3    H262375   0.648   0.429  12.019 -0.0510 -0.6817 -0.7042
13654TIP3   OH262376   3.233   1.033  15.176 -0.2521  0.3612  0.0165
13654TIP3    H162377   3.165   1.076  15.227  0.1874 -0.1760  1.0903
13654TIP3    H262378   3.312   1.083  15.194 -0.2810  0.7519 -0.9199
13655TIP3   OH262379   1.224   2.125  12.221 -0.1437 -0.1035  0.0636
13655TIP3    H162380   1.143   2.080  12.196 -0.0913 -0.0253 -0.2589
13655TIP3    H262381   1.212   2.146  12.314 -1.1372  1.2358 -0.3204
13656TIP3   OH262382   5.486   0.441  13.798  0.2467 -0.2164  0.1137
13656TIP3    H162383   5.463   0.475  13.712 -2.2658 -0.3496  0.6693
13656TIP3    H262384   5.457   0.508  13.860 -2.9100 -2.2602  1.0993
13657TIP3   OH262385   1.284   1.631   3.296 -0.5754 -0.4796  0.6252
13657TIP3    H162386   1.241   1.547   3.315 -1.9852  0.2832  0.9359
13657TIP3    H262387   1.308   1.666   3.382  0.4722 -0.7671  0.4707
13658TIP3   OH262388   4.605   6.578   4.068 -0.2772 -0.2607  0.3940
13658TIP3    H162389   4.609   6.506   4.005  0.6976  0.9075 -0.9217
13658TIP3    H262390   4.576   6.536   4.149 -0.7451 -1.9480 -0.5906
13659TIP3   OH262391   1.530   1.753   2.917  0.1109  0.2912 -0.1123
13659TIP3    H162392   1.562   1.676   2.965 -0.7681 -0.8011 -1.2082
13659TIP3    H262393   1.460   1.788   2.972  0.2166  0.0349  0.1898
13660TIP3   OH262394   4.674   2.384   3.615 -0.1609 -0.5386 -0.3932
13660TIP3    H162395   4.585   2.410   3.638 -0.2859 -1.6834  0.5022
13660TIP3    H262396   4.714   2.464   3.581 -1.2795  0.1919 -0.0553
13661TIP3   OH262397   0.870   1.227  15.513  0.2043  0.0706 -0.2679
13661TIP3    H162398   0.798   1.178  15.473 -0.5731  2.1139 -1.5169
13661TIP3    H262399   0.832   1.310  15.539  1.4782  0.0800  1.8177
13662TIP3   OH262400   1.711   4.029  11.493  0.2314  0.1809 -0.4521
13662TIP3    H162401   1.712   3.969  11.568 -0.4530 -0.1480 -0.7029
13662TIP3    H262402   1.644   4.093  11.514 -0.4801 -0.3368 -1.1046
13663TIP3   OH262403   1.634   5.089   1.294  0.3548 -0.3029 -0.3128
13663TIP3    H162404   1.683   5.163   1.329  0.6720 -0.2973 -0.7617
13663TIP3    H262405   1.642   5.098   1.199  1.4252 -1.5973 -0.3626
13664TIP3   OH262406   3.971   3.912   1.805 -0.2066  0.5124 -0.3485
13664TIP3    H162407   3.883   3.905   1.768 -0.1547  0.8007 -0.5302
13664TIP3    H262408   3.963   3.980   1.872  0.2939  1.8954 -1.6467
13665TIP3   OH262409   1.186   0.916  14.159  0.2742  0.1790  0.2816
13665TIP3    H162410   1.099   0.918  14.198 -0.5497 -0.3212 -1.4444
13665TIP3    H262411   1.228   0.840  14.199 -0.6048 -0.4124  0.1224
13666TIP3   OH262412   6.000   6.609  12.702 -0.2577 -0.3263  0.4307
13666TIP3    H162413   5.995   6.660  12.783 -0.5421  1.3956 -0.6174
13666TIP3    H262414   5.909   6.595  12.676 -0.2211  1.6373 -1.0298
13667TIP3   OH262415   3.032   6.441  14.649 -0.3678  0.6046  0.5591
13667TIP3    H162416   2.963   6.499  14.680 -1.6197  1.2630 -3.0111
13667TIP3    H262417   3.096   6.500  14.608  0.1363 -0.2890  0.0321
13668TIP3   OH262418   4.698   3.344  14.516 -0.0179 -0.7917 -0.2482
13668TIP3    H162419   4.695   3.321  14.424  0.9389  1.4913 -0.9206
13668TIP3    H262420   4.788   3.324  14.543 -0.3058 -1.4936  0.2080
13669TIP3   OH262421   3.974   4.222   3.262  0.7498  0.6014  0.5504
13669TIP3    H162422   3.960   4.283   3.190  0.6171  0.1813  0.2147
13669TIP3    H262423   3.886   4.208   3.298  0.5275 -0.6374 -0.4072
13670TIP3   OH262424   2.239   2.877  12.220 -0.2153  0.1400  0.2304
13670TIP3    H162425   2.190   2.903  12.297  0.1894  0.2669  0.4486
13670TIP3    H262426   2.269   2.960  12.181 -1.1377  0.1248 -0.5478
13671TIP3   OH262427   2.970   1.232   1.126  0.4007 -0.1898  0.5873
13671TIP3    H162428   2.986   1.165   1.060  1.8424 -0.3838  1.1022
13671TIP3    H262429   3.016   1.201   1.204 -0.4620  0.5088  1.4029
13672TIP3   OH262430   1.091   5.662  12.615 -0.0120 -0.1154 -0.4298
13672TIP3    H162431   1.075   5.581  12.566  0.5170 -0.9035  0.6601
13672TIP3    H262432   1.170   5.644  12.666 -1.6976 -0.1695  2.3720
13673TIP3   OH262433   4.608   0.629   2.320 -0.7661 -0.0431 -0.1853
13673TIP3    H162434   4.596   0.558   2.384 -0.2977  0.7207  0.7819
13673TIP3    H262435   4.528   0.681   2.328 -2.3527 -1.8536 -2.7996
13674TIP3   OH262436   3.502   0.598  14.905 -0.1209  0.5496 -0.2464
13674TIP3    H162437   3.419   0.583  14.950  0.4494 -0.1290  0.6188
13674TIP3    H262438   3.542   0.673  14.950  0.1817  0.2414  0.0092
13675TIP3   OH262439   5.073   3.759   1.660 -0.1100 -0.3528 -0.0411
13675TIP3    H162440   5.095   3.814   1.734 -0.8563 -0.2484  0.1180
13675TIP3    H262441   5.121   3.797   1.586 -1.0959  0.9131 -0.0723
13676TIP3   OH262442   0.738   6.761  16.045 -0.6295  0.3993 -0.2697
13676TIP3    H162443   0.723   6.747  16.139 -2.0556  1.0969 -0.3693
13676TIP3    H262444   0.651   6.759  16.006 -0.0078 -0.5585 -1.7019
13677TIP3   OH262445   3.711   4.139   3.271 -0.5069  0.3386  0.2643
13677TIP3    H162446   3.724   4.142   3.176  1.4892  0.5045  0.5072
13677TIP3    H262447   3.726   4.048   3.295  1.1596  0.6781  0.6505
13678TIP3   OH262448   4.449   6.428   1.566 -0.0232 -0.4561  0.2944
13678TIP3    H162449   4.364   6.418   1.523  0.7401 -0.8998 -1.1579
13678TIP3    H262450   4.446   6.516   1.604 -0.6734  0.0026 -0.7706
13679TIP3   OH262451   2.876   0.176  14.966  0.3081 -0.4247  0.2886
13679TIP3    H162452   2.785   0.192  14.940  0.9956  1.2169 -1.3498
13679TIP3    H262453   2.908   0.261  14.996  1.0909 -1.1734  1.6945
13680TIP3   OH262454   1.625   5.048   1.570  0.1284 -0.5952 -0.2464
13680TIP3    H162455   1.533   5.028   1.588  0.0507 -0.0942 -0.0809
13680TIP3    H262456   1.630   5.053   1.474 -0.5716  1.8848 -0.2180
13681TIP3   OH262457   2.796   3.560  15.499 -0.4530 -0.3851  0.1926
13681TIP3    H162458   2.835   3.626  15.441  0.9177 -0.9494  0.4340
13681TIP3    H262459   2.768   3.610  15.576  1.5393 -0.1902  0.8356
13682TIP3   OH262460   0.939   5.566   0.628 -0.1938  0.0770 -0.1170
13682TIP3    H162461   0.978   5.512   0.560 -0.5960  0.2623 -0.5036
13682TIP3    H262462   0.980   5.652   0.617 -1.3319  0.5201 -1.1043
13683TIP3   OH262463   0.927   5.556   2.038 -0.3011 -0.3386  0.4485
13683TIP3    H162464   0.902   5.600   1.957  1.3571 -1.2353 -0.6141
13683TIP3    H262465   0.960   5.625   2.095  0.9113 -0.0071 -0.6390
13684TIP3   OH262466   6.383   0.417  13.743  0.1500  0.1045  0.1050
13684TIP3    H162467   6.302   0.400  13.694 -0.0224 -2.4779  1.0809
13684TIP3    H262468   6.451   0.371  13.693  0.8223  1.2233 -0.0470
13685TIP3   OH262469   3.173   6.413   0.409  0.0686  0.0156 -0.1991
13685TIP3    H162470   3.262   6.414   0.375  0.0017 -0.6580 -0.4058
13685TIP3    H262471   3.169   6.337   0.466 -0.4379 -0.0843 -0.3589
13686TIP3   OH262472   2.470   5.798   5.088  0.1284 -0.6262 -0.4586
13686TIP3    H162473   2.407   5.731   5.061  0.4008 -1.3149  0.5449
13686TIP3    H262474   2.555   5.761   5.065  0.2743 -0.5995  0.0315
13687TIP3   OH262475   3.923   6.219   3.719  0.4623  0.1071 -0.1953
13687TIP3    H162476   3.835   6.237   3.752 -0.1184 -0.2947 -1.4439
13687TIP3    H262477   3.924   6.125   3.700  1.8913 -0.3406  1.7907
13688TIP3   OH262478   2.108   2.715   2.836 -0.3728  0.1190 -0.4894
13688TIP3    H162479   2.169   2.740   2.767  2.9412 -1.3810  1.6082
13688TIP3    H262480   2.087   2.798   2.880  2.0189  0.5307  0.0262
13689TIP3   OH262481   4.448   1.547   4.441 -0.4491 -0.4714 -0.5177
13689TIP3    H162482   4.360   1.516   4.420 -0.5766  0.7017 -1.8081
13689TIP3    H262483   4.437   1.601   4.519 -0.7707 -0.8071 -0.3299
13690TIP3   OH262484   4.967   6.767  13.124 -0.2851  0.2525 -1.0516
13690TIP3    H162485   4.935   6.680  13.145 -1.5103  0.7096 -0.9533
13690TIP3    H262486   4.966   6.814  13.208 -0.9268  0.7500 -1.3260
13691TIP3   OH262487   0.921   4.939  13.574  0.1075  0.1175  0.1616
13691TIP3    H162488   0.880   4.869  13.625 -0.7544  1.1722  0.9723
13691TIP3    H262489   0.943   5.006  13.639 -0.1905  1.1166 -0.7473
13692TIP3   OH262490   0.764   6.391  15.566  0.3921 -0.7903  0.0118
13692TIP3    H162491   0.770   6.378  15.661  0.3802  2.3802  0.5575
13692TIP3    H262492   0.814   6.470  15.549 -4.3834  2.3682 -1.5848
13693TIP3   OH262493   0.305   1.289  11.815 -0.1322  0.5332  0.0694
13693TIP3    H162494   0.210   1.304  11.826  0.0432  1.5969  0.3117
13693TIP3    H262495   0.339   1.284  11.904  0.0201  0.0217 -0.0180
13694TIP3   OH262496   1.644   2.222  11.217  0.3420  0.1626  1.0408
13694TIP3    H162497   1.656   2.252  11.127  0.6392  1.6668  1.5550
13694TIP3    H262498   1.733   2.208  11.250  0.3310  1.2470  1.5981
13695TIP3   OH262499   2.333   2.491   3.633 -0.2634 -0.2840 -0.0193
13695TIP3    H162500   2.369   2.509   3.546  0.3635  1.3321  0.5363
13695TIP3    H262501   2.295   2.403   3.625  1.7651 -1.1245 -1.2899
13696TIP3   OH262502   1.255   3.871   5.710 -0.5037 -0.3542 -0.1254
13696TIP3    H162503   1.315   3.945   5.707 -2.6027  1.4142 -1.7337
13696TIP3    H262504   1.190   3.895   5.776 -0.5390 -1.3446  0.2161
13697TIP3   OH262505   2.502   6.305   1.836 -0.4806  0.6793  0.0653
13697TIP3    H162506   2.565   6.355   1.784  0.9792 -0.9527  0.2037
13697TIP3    H262507   2.418   6.349   1.820  0.6541  2.8943 -0.1344
13698TIP3   OH262508   6.680   2.505   4.167 -0.8339 -0.1701 -0.6020
13698TIP3    H162509   6.691   2.466   4.080 -0.6029 -1.3896 -0.0380
13698TIP3    H262510   6.739   2.581   4.166 -0.2370 -0.6237 -1.2439
13699TIP3   OH262511   6.071   0.770  15.538  0.0007  0.3903 -0.6498
13699TIP3    H162512   5.993   0.741  15.584 -0.4046  0.6269 -1.1808
13699TIP3    H262513   6.127   0.693  15.533 -0.7227 -0.1027 -1.3496
13700TIP3   OH262514   0.368   1.047  15.674 -0.4490 -0.4606 -1.0462
13700TIP3    H162515   0.296   1.044  15.737 -1.4596  0.1682 -2.1217
13700TIP3    H262516   0.410   1.131  15.688 -0.3034 -0.5719 -0.8180
13701TIP3   OH262517   0.352   4.049  12.445 -0.3133 -0.0577  0.0244
13701TIP3    H162518   0.389   4.052  12.533 -0.3357 -0.9910  0.0812
13701TIP3    H262519   0.408   4.107  12.393 -0.6943  1.0213  0.7826
13702TIP3   OH262520   0.133   4.728   5.411 -0.6776 -0.2213 -0.2848
13702TIP3    H162521   0.181   4.687   5.482 -0.6885 -0.4054 -0.3828
13702TIP3    H262522   0.064   4.666   5.389 -0.9956  0.0678 -0.1071
13703TIP3   OH262523   5.257   3.537  11.793  0.1440 -0.2390  0.4369
13703TIP3    H162524   5.306   3.588  11.858 -0.6520  1.5744 -0.3451
13703TIP3    H262525   5.288   3.569  11.709 -1.3421 -0.0903 -0.0718
13704TIP3   OH262526   4.098   5.444   4.869 -0.3111 -0.0098 -0.5951
13704TIP3    H162527   4.118   5.351   4.857  0.8358 -0.1228  1.7681
13704TIP3    H262528   4.086   5.454   4.963 -0.8269  2.1812 -0.8475
13705TIP3   OH262529   1.227   1.914   2.035 -0.4399 -0.3220  0.3004
13705TIP3    H162530   1.144   1.886   1.996 -0.2685 -0.2385 -0.1310
13705TIP3    H262531   1.266   1.832   2.066 -0.1083 -0.5419 -0.6359
13706TIP3   OH262532   3.698   0.000  10.723  0.2497 -0.0162 -0.0739
13706TIP3    H162533   3.703   0.096  10.719  0.7978 -0.0210  0.3542
13706TIP3    H262534   3.762  -0.030  10.659 -0.6690 -0.1095 -0.9758
13707TIP3   OH262535   4.670   3.579   5.637 -0.4416 -0.2474  0.1522
13707TIP3    H162536   4.673   3.595   5.543 -0.1626  1.2692  0.4067
13707TIP3    H262537   4.760   3.559   5.662 -0.3758  0.1218  0.2187
13708TIP3   OH262538   0.178   0.729  10.322  0.0611 -0.4330 -0.0872
13708TIP3    H162539   0.184   0.650  10.269  0.0277 -0.7620  0.3959
13708TIP3    H262540   0.208   0.703  10.409  1.6079  0.4754 -0.3158
13709TIP3   OH262541   1.292   0.322  12.640  0.1190 -0.0830 -0.1081
13709TIP3    H162542   1.255   0.235  12.656  0.4628 -0.3668 -0.7847
13709TIP3    H262543   1.275   0.371  12.720 -1.3633 -0.3186 -0.2577
13710TIP3   OH262544   1.872   1.287   2.880 -0.0952  0.2551  0.4025
13710TIP3    H162545   1.915   1.364   2.916  0.0831  0.2459  0.2115
13710TIP3    H262546   1.818   1.253   2.952  1.6045 -0.7774  1.2459
13711TIP3   OH262547   3.907   4.814  13.208  0.1706 -0.5029 -0.2185
13711TIP3    H162548   3.912   4.877  13.279  2.8608  0.9760 -1.5645
13711TIP3    H262549   3.813   4.805  13.190 -0.4407  0.6865  2.0415
13712TIP3   OH262550   2.166   1.472  16.261 -0.6144  0.5306  0.3880
13712TIP3    H162551   2.157   1.527  16.184 -0.5338 -0.4903 -0.3699
13712TIP3    H262552   2.260   1.461  16.273 -0.6298  0.5661  0.5549
13713TIP3   OH262553   6.070   4.940  12.611 -0.1964 -0.2724 -0.9460
13713TIP3    H162554   6.146   4.901  12.654  0.0757 -0.4594 -1.5857
13713TIP3    H262555   6.102   4.964  12.524 -0.8615 -0.3218 -1.2042
13714TIP3   OH262556   0.627   1.108  15.409 -0.0449  0.1217 -0.1198
13714TIP3    H162557   0.629   1.027  15.358 -0.0260 -0.2895  0.5260
13714TIP3    H262558   0.534   1.124  15.426 -0.0333 -2.8096  4.4493
13715TIP3   OH262559   3.259   4.285   5.720 -0.6538  0.1381 -0.3394
13715TIP3    H162560   3.322   4.349   5.688 -0.7827  1.2602  1.5091
13715TIP3    H262561   3.181   4.335   5.741 -1.7279 -1.0442 -1.3286
13716TIP3   OH262562   2.202   2.883  12.627  0.3482 -0.2916 -0.3576
13716TIP3    H162563   2.274   2.945  12.619  0.8423 -0.5851  1.3475
13716TIP3    H262564   2.157   2.887  12.543  0.7752  1.8561 -0.5341
13717TIP3   OH262565   0.674   3.559   2.427 -0.4035 -0.2073 -0.1635
13717TIP3    H162566   0.662   3.647   2.392 -1.5106 -1.2456 -2.5945
13717TIP3    H262567   0.714   3.573   2.513  0.1003  2.6090 -0.7618
13718TIP3   OH262568   1.753   6.343  11.521  0.3863  0.1492  0.3776
13718TIP3    H162569   1.705   6.339  11.439 -1.3380 -0.5782  1.3549
13718TIP3    H262570   1.715   6.418  11.568  0.6092 -0.0889  0.9524
13719TIP3   OH262571   0.422   3.566   0.086 -0.1665  0.2805 -0.5197
13719TIP3    H162572   0.351   3.593   0.028 -2.5682 -1.2642  1.4971
13719TIP3    H262573   0.478   3.511   0.030 -1.0422  0.7796 -1.9519
13720TIP3   OH262574   6.330   5.533   1.713 -0.0859 -0.8438  0.0184
13720TIP3    H162575   6.420   5.545   1.742  0.3539 -0.3193 -1.4694
13720TIP3    H262576   6.278   5.589   1.771  0.7076 -0.1401  0.0619
13721TIP3   OH262577   6.139   1.108  13.661 -0.0448 -0.3362  0.1649
13721TIP3    H162578   6.178   1.191  13.634  1.5798 -1.7097 -2.0276
13721TIP3    H262579   6.201   1.073  13.724 -0.3583 -0.2311  0.5342
13722TIP3   OH262580   6.729   0.795  11.748  0.2707 -0.1506 -0.1699
13722TIP3    H162581   6.813   0.752  11.742 -0.2785 -1.1303 -1.0979
13722TIP3    H262582   6.719   0.841  11.665  1.4140  2.9520  1.2602
13723TIP3   OH262583   1.285   5.730   5.594 -0.0349 -0.4699 -0.4365
13723TIP3    H162584   1.252   5.743   5.683 -1.9837 -2.2301 -0.8123
13723TIP3    H262585   1.235   5.793   5.541 -3.8118 -3.6595 -1.1276
13724TIP3   OH262586   2.738   1.290   6.554 -0.8411  0.1354 -0.0449
13724TIP3    H162587   2.733   1.194   6.548  0.2064  0.0805 -0.1216
13724TIP3    H262588   2.831   1.310   6.551 -1.0067  1.1121  0.8176
13725TIP3   OH262589   1.406   2.950  15.071 -0.3170  0.3169 -0.3931
13725TIP3    H162590   1.355   3.028  15.048  0.4610  1.1031  0.4379
13725TIP3    H262591   1.496   2.972  15.045 -0.0203 -0.1413  0.2008
13726TIP3   OH262592   2.924   2.388   0.666  0.1153  0.1026  0.6254
13726TIP3    H162593   3.002   2.441   0.676 -1.2695  2.3663  0.1434
13726TIP3    H262594   2.904   2.391   0.572 -1.5436  1.1898  0.9582
13727TIP3   OH262595   2.440   1.432  16.267 -0.0080 -0.0604 -0.4646
13727TIP3    H162596   2.506   1.450  16.334  0.3095  0.2323 -0.8476
13727TIP3    H262597   2.461   1.492  16.196 -0.9675  0.3511 -0.4160
13728TIP3   OH262598   1.542   6.286   0.453  0.1884 -0.3483 -0.2892
13728TIP3    H162599   1.479   6.312   0.386  0.4429 -0.6880 -0.6633
13728TIP3    H262600   1.493   6.294   0.535 -0.4319 -0.8783 -0.5949
13729TIP3   OH262601   4.253   2.540  11.371  0.3628  0.4189  0.2296
13729TIP3    H162602   4.265   2.484  11.448  2.3981  1.0566  0.4195
13729TIP3    H262603   4.194   2.609  11.401 -1.0061 -0.7715  0.4074
13730TIP3   OH262604   1.590   2.515   4.075 -0.2022  0.3300 -0.2990
13730TIP3    H162605   1.681   2.536   4.096 -0.6333  0.2645  1.9405
13730TIP3    H262606   1.567   2.575   4.004  1.3304  0.9559 -0.2995
13731TIP3   OH262607   2.291   1.448   4.519 -0.4044 -0.3133  0.6029
13731TIP3    H162608   2.267   1.532   4.558 -0.1407 -0.8608  2.0095
13731TIP3    H262609   2.225   1.387   4.552  0.8363 -1.1364  1.6885
13732TIP3   OH262610   1.611   5.159   2.452  0.0570 -0.3243  0.2146
13732TIP3    H162611   1.613   5.254   2.466  1.4944 -0.3750  0.4784
13732TIP3    H262612   1.521   5.134   2.472 -1.2776  1.4156 -2.8288
13733TIP3   OH262613   1.135   2.266   0.457  0.7138 -0.1078 -0.3506
13733TIP3    H162614   1.094   2.185   0.486 -0.2966  0.6692  0.4620
13733TIP3    H262615   1.062   2.320   0.426  1.2612  0.8510 -0.0141
13734TIP3   OH262616   0.616   1.788   2.100  0.4343  0.6933 -0.7256
13734TIP3    H162617   0.700   1.747   2.122  0.5216  1.6930  0.9086
13734TIP3    H262618   0.550   1.729   2.135  0.4458  0.1612 -1.5683
13735TIP3   OH262619   5.563   1.417  14.676  0.3611  0.4039 -0.0045
13735TIP3    H162620   5.553   1.393  14.768 -1.0515  0.4584 -0.1286
13735TIP3    H262621   5.658   1.418  14.662  0.7956  3.1231  2.1577
13736TIP3   OH262622   1.927   0.068  12.410 -0.6871  0.2381 -0.5834
13736TIP3    H162623   2.015   0.104  12.414 -1.0575  1.1300 -0.1517
13736TIP3    H262624   1.870   0.145  12.404 -1.4459 -0.3145 -0.6468
13737TIP3   OH262625   1.565   2.184   4.673  0.3518 -0.5373 -0.3709
13737TIP3    H162626   1.506   2.108   4.667 -0.9138  0.4518 -1.1839
13737TIP3    H262627   1.575   2.213   4.582  0.2058  0.6972 -0.0086
13738TIP3   OH262628   3.693   3.669  15.669 -0.0036 -0.0060 -0.1639
13738TIP3    H162629   3.623   3.623  15.715 -0.6693 -0.5505 -1.6365
13738TIP3    H262630   3.709   3.616  15.590 -0.3137  1.8922 -1.5803
13739TIP3   OH262631   1.608   5.480   2.267  0.1873  0.4628 -0.2301
13739TIP3    H162632   1.670   5.451   2.333  1.0039  1.0344 -0.7173
13739TIP3    H262633   1.570   5.400   2.231  0.1821  0.1350  0.5112
13740TIP3   OH262634   1.727   2.825   4.443  0.1975 -0.1817  0.2628
13740TIP3    H162635   1.665   2.779   4.387  1.5558  1.2368 -2.6416
13740TIP3    H262636   1.712   2.918   4.424  2.4712  0.2435  0.1800
13741TIP3   OH262637   0.342   0.129  12.781 -0.3187  0.2059 -0.0636
13741TIP3    H162638   0.267   0.186  12.797 -0.5709 -0.2779  0.4989
13741TIP3    H262639   0.306   0.041  12.781  0.2626 -0.0378  0.2984
13742TIP3   OH262640   5.112   2.177  16.813 -0.2209  0.4983  0.0982
13742TIP3    H162641   5.094   2.239  16.742  2.3897  0.6232 -0.5433
13742TIP3    H262642   5.079   2.093  16.781 -1.6605  1.0787 -0.0110
13743TIP3   OH262643   5.157   5.271  15.633 -0.6183  0.0642 -0.5072
13743TIP3    H162644   5.139   5.215  15.708  2.5252 -0.4991 -0.0241
13743TIP3    H262645   5.201   5.348  15.670 -0.5828  0.5995 -1.6135
13744TIP3   OH262646   0.062   2.795  14.921  0.0879  0.5624 -0.5112
13744TIP3    H162647   0.051   2.877  14.872  1.1236  0.6497 -0.6240
13744TIP3    H262648   0.033   2.727  14.860  0.1064  0.7796 -0.7680
13745TIP3   OH262649   5.443   0.259  15.967  0.2861 -0.0293  0.3430
13745TIP3    H162650   5.469   0.187  15.909  0.1134  1.7803 -2.1579
13745TIP3    H262651   5.355   0.282  15.936  0.2358  1.0887  1.2882
13746TIP3   OH262652   4.668   4.712  14.707 -0.6260 -0.0045 -0.1113
13746TIP3    H162653   4.705   4.661  14.779 -2.4945 -0.4308  0.6070
13746TIP3    H262654   4.633   4.646  14.647 -0.7056  0.3967 -0.5096
13747TIP3   OH262655   5.191   6.534  14.357  0.3410  0.1095 -0.0474
13747TIP3    H162656   5.218   6.492  14.275 -0.4446 -0.3897 -0.0539
13747TIP3    H262657   5.109   6.578  14.335 -0.8326 -1.4942  0.8828
13748TIP3   OH262658   3.079   0.641   1.456 -0.3543 -0.0958  0.3176
13748TIP3    H162659   3.099   0.588   1.379  0.2906 -0.3800  0.6816
13748TIP3    H262660   2.983   0.650   1.454 -0.2082  3.0939 -2.6554
13749TIP3   OH262661   4.595   2.961   5.574 -0.4582  0.2164  0.2031
13749TIP3    H162662   4.627   2.892   5.631 -0.1993  0.6989  0.6487
13749TIP3    H262663   4.508   2.983   5.608 -0.0448  0.9449  0.8180
13750TIP3   OH262664   2.123   1.122  16.384 -0.8478 -0.2054  0.6841
13750TIP3    H162665   2.187   1.175  16.338 -0.6010 -1.3089 -0.3018
13750TIP3    H262666   2.171   1.044  16.411 -1.1105  0.2115  2.4326
13751TIP3   OH262667   1.621   6.124  14.584  0.4662 -0.1443 -0.2529
13751TIP3    H162668   1.547   6.088  14.535  1.9237 -2.1393 -1.1083
13751TIP3    H262669   1.583   6.149  14.669 -1.5924  1.0115 -1.4338
13752TIP3   OH262670   5.519   2.575  11.763 -0.1271  0.3118  0.0427
13752TIP3    H162671   5.469   2.589  11.682  0.3940  2.4609  0.0281
13752TIP3    H262672   5.489   2.644  11.822  1.3660  0.3868  0.7586
13753TIP3   OH262673   3.645   0.438   6.349  0.0669  0.1974 -0.1449
13753TIP3    H162674   3.648   0.353   6.306 -0.1693 -0.3292  0.8456
13753TIP3    H262675   3.731   0.477   6.331  0.4934 -0.6022  0.1004
13754TIP3   OH262676   0.990   1.622  16.676 -0.1662 -0.3689 -0.0496
13754TIP3    H162677   0.900   1.602  16.652 -0.5961  1.4479 -0.1267
13754TIP3    H262678   1.014   1.555  16.740 -1.3152 -1.3049 -0.5748
13755TIP3   OH262679   5.761   1.031  11.304 -0.1394  0.2436 -0.0942
13755TIP3    H162680   5.755   1.116  11.261 -0.1116  0.5237  0.4573
13755TIP3    H262681   5.854   1.021  11.324 -0.0053 -0.3068 -0.9401
13756TIP3   OH262682   0.124   1.933   0.798  0.3861 -0.0014 -0.1970
13756TIP3    H162683   0.067   1.883   0.739 -0.4827  2.1327 -1.2716
13756TIP3    H262684   0.064   1.973   0.861  0.9516  0.4612  0.0551
13757TIP3   OH262685   3.710   2.056  12.501  0.1541  0.3159 -0.1232
13757TIP3    H162686   3.802   2.076  12.484 -0.0576  0.9975 -0.4839
13757TIP3    H262687   3.710   1.963  12.525  0.9665  0.3711  0.1283
13758TIP3   OH262688   4.422   4.461  13.263  0.0730 -0.1000 -0.2719
13758TIP3    H162689   4.413   4.556  13.254 -0.3971  0.0518  1.3983
13758TIP3    H262690   4.349   4.425  13.212 -1.0325  0.5552  0.7757
13759TIP3   OH262691   1.657   2.943   0.881 -0.1686  0.5657  0.5973
13759TIP3    H162692   1.697   3.030   0.875 -1.6182  1.2398  0.1841
13759TIP3    H262693   1.685   2.899   0.800 -2.4057  2.0361 -1.1220
13760TIP3   OH262694   5.351   5.896  15.196 -0.1879 -0.0809 -0.0877
13760TIP3    H162695   5.297   5.818  15.190  0.3297 -0.4590  0.0424
13760TIP3    H262696   5.289   5.969  15.199 -0.7550 -0.5888  1.9925
13761TIP3   OH262697   0.331   0.953   4.888 -0.5233 -0.3380  0.4037
13761TIP3    H162698   0.280   0.948   4.969 -1.2818 -1.7518 -0.1144
13761TIP3    H262699   0.368   0.866   4.878 -0.6456 -0.2639 -0.8839
13762TIP3   OH262700   3.477   0.883   6.189  0.1050 -0.5425 -0.3205
13762TIP3    H162701   3.477   0.805   6.244 -1.2387 -0.9850 -0.9192
13762TIP3    H262702   3.468   0.955   6.251 -0.9095 -1.0053  0.0999
13763TIP3   OH262703   5.537   1.971   5.744 -0.1551  0.4210  0.2227
13763TIP3    H162704   5.460   1.959   5.799 -1.3147  1.5429 -1.1002
13763TIP3    H262705   5.539   1.893   5.689  0.6753 -0.4263  1.4019
13764TIP3   OH262706   2.445   2.230   4.092 -0.0072  0.2810  0.1204
13764TIP3    H162707   2.461   2.137   4.077  0.9909  0.4989 -0.2959
13764TIP3    H262708   2.531   2.265   4.116 -0.5377  0.9483  1.0884
13765TIP3   OH262709   4.349   5.958  11.156  0.1089 -0.2346  0.2438
13765TIP3    H162710   4.427   5.985  11.107  0.1901 -1.2209 -0.2137
13765TIP3    H262711   4.278   5.959  11.092 -0.1091 -0.0291  0.4858
13766TIP3   OH262712   0.225   6.144   5.126 -0.0053  0.0811 -0.5237
13766TIP3    H162713   0.289   6.120   5.059 -1.4411 -2.2884 -1.1175
13766TIP3    H262714   0.149   6.174   5.078  0.8344  3.9099  0.1837
13767TIP3   OH262715   1.799   1.549   1.184  0.5202  0.4206 -0.5479
13767TIP3    H162716   1.829   1.602   1.258  1.0387 -0.7465  0.1071
13767TIP3    H262717   1.730   1.494   1.220  1.2731 -0.6743 -0.7361
13768TIP3   OH262718   5.967   0.667   3.794 -0.1127  0.3206 -0.2782
13768TIP3    H162719   6.016   0.628   3.866  1.1902 -0.6126 -1.6233
13768TIP3    H262720   5.898   0.605   3.775  0.1701  0.0723 -0.4995
13769TIP3   OH262721   0.730   3.631   4.963 -0.0579  0.3589 -0.0898
13769TIP3    H162722   0.653   3.592   5.005  0.9728 -0.6240  0.9521
13769TIP3    H262723   0.753   3.571   4.893  0.4013  0.0755  0.2994
13770TIP3   OH262724   5.278   0.613   0.132  0.5557  0.6129  0.2240
13770TIP3    H162725   5.325   0.683   0.087 -0.1856  0.4070 -0.8872
13770TIP3    H262726   5.336   0.538   0.126  2.0882  1.4546  2.8037
13771TIP3   OH262727   4.532   0.037   0.283 -0.0151 -0.3387  0.0918
13771TIP3    H162728   4.602   0.011   0.222  1.4063 -0.2039  1.5926
13771TIP3    H262729   4.489  -0.045   0.306 -0.9508 -0.3277 -1.4948
13772TIP3   OH262730   0.595   6.689  16.960  0.0536 -0.2595 -0.3746
13772TIP3    H162731   0.674   6.713  17.008 -0.0796 -0.5975  0.0231
13772TIP3    H262732   0.616   6.605  16.919 -0.4729 -0.9251  0.6686
13773TIP3   OH262733   2.279   6.778   2.513  0.2140 -0.1742 -0.6374
13773TIP3    H162734   2.332   6.699   2.508  1.0345  0.3400 -0.3664
13773TIP3    H262735   2.189   6.747   2.509  0.5262 -1.0980 -0.7619
13774TIP3   OH262736   3.329   1.894  14.175  0.0239 -0.0394 -0.0186
13774TIP3    H162737   3.257   1.832  14.169 -0.7787  0.9277 -1.0871
13774TIP3    H262738   3.324   1.930  14.263 -0.6826 -0.1365 -0.0182
13775TIP3   OH262739   2.102   6.645   0.713 -0.1135 -0.1815  0.4554
13775TIP3    H162740   2.109   6.740   0.706 -1.7239 -0.0845 -0.5601
13775TIP3    H262741   2.124   6.625   0.804 -0.1917  1.2175  0.7975
13776TIP3   OH262742   2.290   4.968  16.233  0.0750 -0.4239  0.5498
13776TIP3    H162743   2.240   4.928  16.305  0.0637 -0.0268  0.7634
13776TIP3    H262744   2.376   4.986  16.271  0.3803 -1.0820  0.1898
13777TIP3   OH262745   1.117   0.829   1.459  0.1007 -0.2710 -0.2778
13777TIP3    H162746   1.171   0.754   1.434 -0.6205 -1.3761  1.3249
13777TIP3    H262747   1.066   0.849   1.380  0.8518 -0.9542 -0.9538
13778TIP3   OH262748   6.147   1.278  13.035 -0.5518  0.1473 -0.0360
13778TIP3    H162749   6.202   1.219  13.086  0.1243  0.2916 -0.5858
13778TIP3    H262750   6.061   1.237  13.036 -0.4291 -0.1155  0.7790
13779TIP3   OH262751   4.205   2.439   0.989  0.9869 -0.0181 -0.1323
13779TIP3    H162752   4.149   2.487   0.928  0.0597 -0.5707  0.2499
13779TIP3    H262753   4.258   2.506   1.032 -1.0619  0.8374  1.2162
13780TIP3   OH262754   5.171   5.718  13.915 -0.6463  0.2279  0.3299
13780TIP3    H162755   5.205   5.629  13.909  0.6648  0.6866  0.6597
13780TIP3    H262756   5.243   5.773  13.884 -1.4510  1.1741  0.1052
13781TIP3   OH262757   4.471   2.575  15.372  0.2085  0.0801  0.7024
13781TIP3    H162758   4.410   2.622  15.428  1.2363  2.0011  0.2995
13781TIP3    H262759   4.476   2.628  15.293 -1.1344 -2.5061 -1.2590
13782TIP3   OH262760   2.906   4.607   3.812 -0.4073  0.5646 -0.0317
13782TIP3    H162761   2.928   4.522   3.851 -1.6289  0.4955  0.5375
13782TIP3    H262762   2.991   4.645   3.791  0.1722 -0.7357 -0.1771
13783TIP3   OH262763   2.054   5.789   4.525  0.7505  0.0787  0.0590
13783TIP3    H162764   2.126   5.841   4.561  1.7662  0.3837 -2.2432
13783TIP3    H262765   1.996   5.854   4.485 -0.2517 -0.2637  0.9128
13784TIP3   OH262766   5.723   2.591   2.253 -0.1569  0.2217  0.0380
13784TIP3    H162767   5.767   2.555   2.176 -0.9597  0.7317 -0.6746
13784TIP3    H262768   5.784   2.658   2.285 -0.7781  1.6260 -1.5289
13785TIP3   OH262769   1.994   5.712   2.351 -0.4070 -0.1152 -0.6430
13785TIP3    H162770   2.058   5.641   2.354  0.2370  0.4814 -0.1457
13785TIP3    H262771   1.947   5.697   2.268  0.6950 -0.2832 -1.2638
13786TIP3   OH262772   1.414   6.189  11.770 -0.2816 -0.2008 -0.2774
13786TIP3    H162773   1.377   6.266  11.728  0.1238 -0.6738 -1.5650
13786TIP3    H262774   1.339   6.135  11.792 -0.5537  0.4552  0.4288
13787TIP3   OH262775   6.680   5.154  11.713  0.0302 -0.1328  0.2271
13787TIP3    H162776   6.767   5.129  11.744  0.2610  1.6343  1.0893
13787TIP3    H262777   6.685   5.144  11.618  0.7112 -1.3738  0.3654
13788TIP3   OH262778   5.418   2.167  12.398  0.2111  0.4324  0.1858
13788TIP3    H162779   5.507   2.133  12.401  0.4668  0.7793 -2.0415
13788TIP3    H262780   5.414   2.217  12.317 -2.1919 -0.0636 -0.0752
13789TIP3   OH262781   0.813   5.631   3.137  0.5903  0.1028 -0.1591
13789TIP3    H162782   0.749   5.579   3.187 -0.6503  2.2599  0.6361
13789TIP3    H262783   0.896   5.618   3.183 -0.2743  1.0186  1.7606
13790TIP3   OH262784   3.726   0.542   0.395 -0.0777 -0.3425 -0.2052
13790TIP3    H162785   3.704   0.567   0.484  1.4965 -1.6207  0.6191
13790TIP3    H262786   3.799   0.599   0.371  1.1592 -1.6310  0.3286
13791TIP3   OH262787   0.245   2.858  11.094  0.5389  0.1138  0.0826
13791TIP3    H162788   0.309   2.927  11.114 -0.0916  0.5391  0.7239
13791TIP3    H262789   0.263   2.833  11.004  1.9191 -0.1232  0.4044
13792TIP3   OH262790   2.332   6.068   3.852 -0.4114 -0.1114  0.5525
13792TIP3    H162791   2.370   6.133   3.910 -1.5881  1.3062 -0.2099
13792TIP3    H262792   2.380   6.078   3.769 -0.9935  0.2088  0.2487
13793TIP3   OH262793   1.715   3.834  12.523  0.3316 -0.1529  0.2376
13793TIP3    H162794   1.709   3.753  12.574  1.1728 -0.0787  0.4790
13793TIP3    H262795   1.736   3.901  12.588 -0.0233  0.2002 -0.0094
13794TIP3   OH262796   2.048   1.028  11.772 -0.0469 -0.0009 -0.0381
13794TIP3    H162797   2.081   1.073  11.695  0.3354  0.4756  0.3941
13794TIP3    H262798   2.112   0.958  11.789 -0.2769 -0.2800 -0.3095
13795TIP3   OH262799   5.843   5.031   5.730 -0.2087 -0.2134 -0.3428
13795TIP3    H162800   5.896   5.090   5.784 -0.3588 -0.2472 -0.1555
13795TIP3    H262801   5.802   4.972   5.793  0.9744 -1.3682 -0.6252
13796TIP3   OH262802   1.971   6.247   4.232 -0.6472 -0.3965  0.2065
13796TIP3    H162803   2.063   6.242   4.260 -0.2897 -2.1465 -1.1415
13796TIP3    H262804   1.951   6.160   4.198 -2.4791  0.2737 -0.5618
13797TIP3   OH262805   1.956   5.150   4.463 -0.0543  0.7595 -0.1183
13797TIP3    H162806   2.025   5.136   4.527  0.7362 -0.6792 -1.2275
13797TIP3    H262807   1.876   5.161   4.515  0.3666 -1.4584  1.1276
13798TIP3   OH262808   0.784   1.457   0.045  0.5817  0.9013 -0.1862
13798TIP3    H162809   0.846   1.435  -0.025  0.4819  0.7279 -0.2198
13798TIP3    H262810   0.704   1.483  -0.001  0.9141  2.0317 -0.1710
13799TIP3   OH262811   4.015   0.491  15.493 -0.3201  0.1973 -0.4208
13799TIP3    H162812   3.999   0.517  15.583  0.6936  1.6358 -0.6211
13799TIP3    H262813   3.987   0.399  15.488  0.2537 -0.1112  1.5158
13800TIP3   OH262814   1.533   0.876  11.238  0.0822 -0.3253 -0.0947
13800TIP3    H162815   1.576   0.893  11.321 -0.1888 -0.7948  0.1463
13800TIP3    H262816   1.602   0.839  11.182  0.3380  0.2655 -0.1877
13801TIP3   OH262817   4.362   5.400   5.846  0.2329 -0.0503 -0.2446
13801TIP3    H162818   4.365   5.385   5.940 -0.0748  0.3777 -0.1648
13801TIP3    H262819   4.309   5.479   5.836  0.6365  0.1595 -0.7490
13802TIP3   OH262820   6.420   1.951   2.104 -0.3508 -1.0229  0.6535
13802TIP3    H162821   6.353   1.945   2.035  0.0991 -1.7785  0.2787
13802TIP3    H262822   6.492   1.896   2.073  0.8600  0.5200  0.5896
13803TIP3   OH262823   3.815   5.041  13.425  0.3315  0.8253  0.2881
13803TIP3    H162824   3.763   4.961  13.431  2.0017 -0.3921 -0.4471
13803TIP3    H262825   3.796   5.088  13.506  0.1194 -0.8691  1.2839
13804TIP3   OH262826   3.908   1.749  15.758 -1.1428  0.2349  0.0270
13804TIP3    H162827   3.864   1.721  15.678 -0.4897 -0.6930 -0.0229
13804TIP3    H262828   3.852   1.818  15.794 -1.1877  1.0306 -1.4923
13805TIP3   OH262829   4.277   2.725   3.858  0.0823 -0.6023  0.2393
13805TIP3    H162830   4.359   2.744   3.812 -0.3283  1.4184  0.2102
13805TIP3    H262831   4.270   2.796   3.923 -1.2257 -1.2334  0.8149
13806TIP3   OH262832   6.364   2.258   5.435  0.1422  0.5361  0.5184
13806TIP3    H162833   6.304   2.215   5.374  1.8133  0.1159 -0.9293
13806TIP3    H262834   6.325   2.344   5.451 -0.7749  0.3260 -0.4817
13807TIP3   OH262835   3.038   0.318   4.522  0.0478 -0.6568 -0.6732
13807TIP3    H162836   3.077   0.276   4.445  2.3020  0.2140 -0.0614
13807TIP3    H262837   3.033   0.410   4.498 -0.1964 -0.5309 -0.1399
13808TIP3   OH262838   0.642   0.749  12.473 -0.5648  0.3771  0.4935
13808TIP3    H162839   0.704   0.678  12.459  0.0002  0.9433  0.0667
13808TIP3    H262840   0.558   0.706  12.488 -0.0151 -0.4191  1.4251
13809TIP3   OH262841   6.407   0.706  12.538 -0.2555 -0.6987 -0.3512
13809TIP3    H162842   6.462   0.706  12.460  0.8788 -0.1574  0.4262
13809TIP3    H262843   6.355   0.627  12.531 -0.1391 -0.6725 -1.6360
13810TIP3   OH262844   5.797   0.934   1.872 -0.4983  0.4488  0.2011
13810TIP3    H162845   5.812   0.862   1.935 -0.2298 -0.9688 -1.4100
13810TIP3    H262846   5.706   0.959   1.888 -0.5202 -0.0584  0.9860
13811TIP3   OH262847   3.359   5.676  10.915 -0.0461  0.2463 -0.6191
13811TIP3    H162848   3.314   5.636  10.990 -2.2095  0.7565 -1.5699
13811TIP3    H262849   3.442   5.628  10.909 -1.0643 -1.7888  0.3594
13812TIP3   OH262850   5.320   4.864   4.468  0.0500  0.2848 -0.6686
13812TIP3    H162851   5.328   4.915   4.549  2.2747  0.8812 -1.1881
13812TIP3    H262852   5.308   4.929   4.399  0.5056 -0.0402 -1.0669
13813TIP3   OH262853   6.172   3.316   1.574  0.0066 -0.0141  0.0695
13813TIP3    H162854   6.092   3.269   1.551 -0.6937  0.7374  0.9191
13813TIP3    H262855   6.173   3.391   1.515 -0.1955  0.2721  0.4333
13814TIP3   OH262856   1.204   1.419  11.471  0.3370 -0.1017  0.2448
13814TIP3    H162857   1.244   1.374  11.396  1.8200  2.9268 -0.9790
13814TIP3    H262858   1.278   1.463  11.513 -0.9570  0.9603  1.4646
13815TIP3   OH262859   3.701   0.463  15.279  0.2273 -0.0789 -0.0007
13815TIP3    H162860   3.647   0.445  15.356  0.2910  0.2803  0.1288
13815TIP3    H262861   3.655   0.420  15.207  0.7362 -1.3421  0.4149
13816TIP3   OH262862   5.155   0.014  14.260  0.1158  0.1924 -0.1347
13816TIP3    H162863   5.163   0.091  14.317 -1.9215 -0.6317  1.3884
13816TIP3    H262864   5.237  -0.034  14.272 -0.6796 -0.5734  3.1875
13817TIP3   OH262865   4.565   6.458  12.523 -0.6140 -0.2938  0.8742
13817TIP3    H162866   4.613   6.480  12.603 -2.4153 -2.3527  2.6549
13817TIP3    H262867   4.473   6.470  12.546 -1.1592 -0.1822 -1.1716
13818TIP3   OH262868   1.586   5.717   2.446  0.0352  0.3566  0.6561
13818TIP3    H162869   1.590   5.624   2.423 -1.1585  0.3166  0.5563
13818TIP3    H262870   1.493   5.734   2.461  0.3445  1.3028  1.6641
13819TIP3   OH262871   0.537   2.092   3.341 -0.3176 -0.3981 -0.1886
13819TIP3    H162872   0.605   2.149   3.307 -0.2220  0.1127  0.8229
13819TIP3    H262873   0.464   2.101   3.280  0.2363 -0.3633 -0.8548
13820TIP3   OH262874   5.603   2.848  11.224  0.3222 -0.8469 -0.5828
13820TIP3    H162875   5.690   2.888  11.225 -0.0843  0.0419 -0.7465
13820TIP3    H262876   5.542   2.921  11.229 -0.4422 -1.4004 -1.4856
13821TIP3   OH262877   5.439   4.292  17.108  0.1407 -0.4275 -0.0839
13821TIP3    H162878   5.351   4.271  17.139 -0.2638 -0.4146 -1.1995
13821TIP3    H262879   5.496   4.234  17.158 -0.5668 -1.0168  0.0570
13822TIP3   OH262880   0.233   0.814   4.220 -0.3698 -0.3449 -0.7593
13822TIP3    H162881   0.179   0.735   4.223 -1.4131  0.3634 -0.1862
13822TIP3    H262882   0.318   0.784   4.187 -0.3654 -1.9191  0.5569
13823TIP3   OH262883   5.719   1.101   0.502  0.2037 -0.4557  0.3576
13823TIP3    H162884   5.663   1.072   0.573 -1.8522  1.8316 -0.2176
13823TIP3    H262885   5.808   1.080   0.532 -0.7990 -3.6490  1.5573
13824TIP3   OH262886   1.988   5.917   5.843 -0.2245 -0.3056  0.7454
13824TIP3    H162887   1.963   5.851   5.778  0.4328  1.0981 -0.9837
13824TIP3    H262888   1.914   5.978   5.845  0.4079  0.4887  0.1747
13825TIP3   OH262889   0.151   5.811   2.873 -0.2971  0.3275 -0.0618
13825TIP3    H162890   0.165   5.834   2.965  0.5920 -0.2329 -0.0492
13825TIP3    H262891   0.058   5.792   2.867 -0.5256  1.1851  0.5364
13826TIP3   OH262892   0.991   6.194   4.351 -0.0020  0.5167  0.0179
13826TIP3    H162893   0.912   6.198   4.403  0.5961  0.5234  0.9476
13826TIP3    H262894   1.034   6.278   4.366  1.6622 -0.5920  1.9595
13827TIP3   OH262895   1.033   6.184  12.413 -0.3656  0.2657 -0.5218
13827TIP3    H162896   1.087   6.111  12.445  0.5593  1.3218  0.4185
13827TIP3    H262897   1.097   6.245  12.375 -1.0090  1.1189 -0.2426
13828TIP3   OH262898   2.825   0.763   4.757  0.1813  0.1750  0.0710
13828TIP3    H162899   2.858   0.830   4.697  0.0418 -0.4396 -0.7008
13828TIP3    H262900   2.802   0.689   4.701  0.3988 -0.5531  0.9123
13829TIP3   OH262901   5.942   2.789   2.052 -0.4269  0.0353  0.1612
13829TIP3    H162902   5.904   2.866   2.094 -0.7308 -0.0082 -0.0216
13829TIP3    H262903   5.876   2.721   2.064  0.5114 -0.6417  1.6843
13830TIP3   OH262904   4.552   0.315  16.164 -0.0873 -0.3886  0.1558
13830TIP3    H162905   4.571   0.275  16.248 -0.5327 -0.0784  0.4072
13830TIP3    H262906   4.506   0.247  16.115  0.8975 -0.8527 -0.1466
13831TIP3   OH262907   2.427   2.248  12.296  0.6428  0.0273 -0.0241
13831TIP3    H162908   2.458   2.328  12.338 -0.0183 -0.5125  1.5382
13831TIP3    H262909   2.491   2.182  12.320  0.2263 -0.3012  0.1887
13832TIP3   OH262910   1.836   1.669  13.852  0.2986  0.5073  0.2814
13832TIP3    H162911   1.830   1.680  13.757  0.1119  0.8016  0.3252
13832TIP3    H262912   1.928   1.647  13.867  0.1108 -0.5504 -0.0590
13833TIP3   OH262913   3.684   4.608   2.964 -0.9514 -0.1634  0.4260
13833TIP3    H162914   3.610   4.661   2.934  0.2549  0.6036 -1.3740
13833TIP3    H262915   3.737   4.669   3.016  0.2492  0.3873 -1.3443
13834TIP3   OH262916   5.201   4.518   0.166 -0.1213 -1.0914 -0.4734
13834TIP3    H162917   5.170   4.499   0.255 -0.2691  0.0860 -0.2593
13834TIP3    H262918   5.217   4.432   0.128  0.4006 -1.6133  0.8571
13835TIP3   OH262919   4.739   0.334   2.258 -0.3079  0.5983  1.0806
13835TIP3    H162920   4.702   0.283   2.186 -1.7215 -0.2747  2.3465
13835TIP3    H262921   4.760   0.419   2.220 -2.0489  0.5398 -0.1286
13836TIP3   OH262922   2.703   5.733  13.068 -0.5014  0.4999  0.3886
13836TIP3    H162923   2.776   5.784  13.102  0.5566 -0.6599 -0.0920
13836TIP3    H262924   2.674   5.782  12.991 -1.1060  1.6494  1.3051
13837TIP3   OH262925   1.918   6.478   4.764 -0.3047  0.1666 -0.5445
13837TIP3    H162926   1.897   6.521   4.847  1.3235 -0.1099  0.0425
13837TIP3    H262927   1.880   6.391   4.772  0.2585 -0.0219  0.1084
13838TIP3   OH262928   4.421   4.540   2.067 -0.1023 -0.7900  0.3431
13838TIP3    H162929   4.332   4.529   2.031  1.0513 -2.3749 -2.3502
13838TIP3    H262930   4.449   4.626   2.035 -0.4219 -0.5521  0.6860
13839TIP3   OH262931   4.098   5.288   4.582 -0.0451 -0.4200 -0.4541
13839TIP3    H162932   4.138   5.275   4.495  0.8284  1.0276 -0.3134
13839TIP3    H262933   4.055   5.373   4.575 -0.1111 -0.3676  0.4743
13840TIP3   OH262934   4.849   0.294   6.363  0.0207 -0.2471  0.1833
13840TIP3    H162935   4.763   0.280   6.323 -0.1217  0.9624  0.0260
13840TIP3    H262936   4.838   0.265   6.453 -0.3780 -0.6470  0.0133
13841TIP3   OH262937   3.013   0.578   4.448  0.0991  0.2418 -0.6806
13841TIP3    H162938   2.922   0.599   4.467  0.0999  0.3125 -0.7533
13841TIP3    H262939   3.026   0.607   4.358  0.1421  0.0645 -0.7326
13842TIP3   OH262940   4.620   2.649  11.723 -0.2768  0.0593  0.4833
13842TIP3    H162941   4.598   2.576  11.665  1.7905 -0.5678  0.3898
13842TIP3    H262942   4.615   2.727  11.667 -1.8401 -0.0575  0.4150
13843TIP3   OH262943   2.390   0.770   1.205 -0.2224 -0.6399  0.0095
13843TIP3    H162944   2.451   0.704   1.173  0.9559 -0.1162  1.0794
13843TIP3    H262945   2.379   0.750   1.298  1.2662  1.4337  0.7048
13844TIP3   OH262946   1.572   2.240   0.099  0.6979 -0.5312  0.0333
13844TIP3    H162947   1.611   2.290   0.170  0.8211 -0.3946 -0.1308
13844TIP3    H262948   1.607   2.278   0.019 -1.3395  0.9636 -0.2343
13845TIP3   OH262949   4.982   4.309  16.764 -0.4167  0.0294  0.5407
13845TIP3    H162950   5.009   4.218  16.751 -0.0359  0.2294 -0.1351
13845TIP3    H262951   4.909   4.321  16.704 -0.8710 -0.0022  1.0812
13846TIP3   OH262952   3.074   4.448   2.093  0.2146  0.0863  0.4156
13846TIP3    H162953   3.017   4.520   2.065  2.0949  1.9830  1.2462
13846TIP3    H262954   3.056   4.439   2.186 -0.4947 -1.0203  0.1882
13847TIP3   OH262955   6.493   4.906   4.004 -0.7210  0.3220  0.0409
13847TIP3    H162956   6.402   4.900   4.033 -0.7322  0.1282 -0.0355
13847TIP3    H262957   6.544   4.879   4.081 -0.7351  0.2393  0.0214
13848TIP3   OH262958   6.456   5.926  13.027  0.9600  0.3094 -0.0854
13848TIP3    H162959   6.506   5.854  12.988  1.5137  1.1897 -1.0386
13848TIP3    H262960   6.502   5.945  13.109 -0.5067 -1.8938  1.3769
13849TIP3   OH262961   1.108   6.448   4.488 -0.3468 -0.3904  0.2330
13849TIP3    H162962   1.187   6.398   4.468 -0.2872 -0.4288  0.5599
13849TIP3    H262963   1.137   6.539   4.489 -0.1128 -0.4644  1.2396
13850TIP3   OH262964   0.744   4.295  12.508 -0.1770 -0.2787 -0.1134
13850TIP3    H162965   0.694   4.371  12.480 -1.8346 -1.6502 -1.0450
13850TIP3    H262966   0.705   4.270  12.592 -0.5613 -0.8820 -0.4615
13851TIP3   OH262967   5.233   4.484  11.745 -0.7417  0.1820  0.6221
13851TIP3    H162968   5.321   4.449  11.731 -0.3238  1.2912  0.3373
13851TIP3    H262969   5.228   4.499  11.839 -0.2273  1.0799  0.5193
13852TIP3   OH262970   1.222   3.264   2.038 -0.4390  0.0315 -0.2390
13852TIP3    H162971   1.222   3.327   2.111  0.3105  0.7005 -0.7835
13852TIP3    H262972   1.132   3.235   2.031 -0.4339 -0.4316  1.2791
13853TIP3   OH262973   6.407   4.822  16.769 -0.7069  0.0115  0.2482
13853TIP3    H162974   6.474   4.868  16.820 -0.9622  1.6593 -0.8290
13853TIP3    H262975   6.447   4.738  16.749 -0.0014 -0.0827  1.8288
13854TIP3   OH262976   2.120   1.425  16.632 -0.3695 -0.3700  0.1483
13854TIP3    H162977   2.204   1.418  16.586 -1.1768 -1.9263 -1.2153
13854TIP3    H262978   2.110   1.518  16.650  0.9740  0.0217 -0.9553
13855TIP3   OH262979   0.162   0.848   2.896  0.4728 -0.6317 -0.0964
13855TIP3    H162980   0.083   0.901   2.909  0.8189  0.0666 -0.7363
13855TIP3    H262981   0.185   0.817   2.983 -0.5374 -0.8935  0.0898
13856TIP3   OH262982   1.320   4.904   1.967 -0.1533  0.1696  0.1441
13856TIP3    H162983   1.377   4.930   2.039 -0.2293  1.8022 -0.3357
13856TIP3    H262984   1.376   4.910   1.889 -0.8933  1.6803 -0.3160
13857TIP3   OH262985   5.480   2.980  16.657  0.0158 -0.4646 -0.4581
13857TIP3    H162986   5.462   2.997  16.564  1.7479 -1.5195 -1.0412
13857TIP3    H262987   5.539   3.050  16.683 -0.0951 -0.4342 -0.2948
13858TIP3   OH262988   0.147   0.204  14.371  0.2994 -0.5178 -0.1187
13858TIP3    H162989   0.195   0.137  14.419  0.1138 -0.3874  0.2472
13858TIP3    H262990   0.175   0.286  14.410 -2.3194 -0.5399  2.0528
13859TIP3   OH262991   5.319   4.581  12.658 -0.8234  0.0328 -0.0074
13859TIP3    H162992   5.409   4.614  12.658 -0.4000 -1.0446 -0.7375
13859TIP3    H262993   5.267   4.652  12.694  0.3783  0.5217  0.8223
13860TIP3   OH262994   0.450   2.142   5.819 -0.4776  0.2191  0.6187
13860TIP3    H162995   0.393   2.076   5.857 -0.0297 -0.6613 -0.1690
13860TIP3    H262996   0.451   2.121   5.725  3.5912 -1.8692  0.9015
13861TIP3   OH262997   6.784   6.424  13.837  0.1736  0.8478  0.6628
13861TIP3    H162998   6.818   6.511  13.818  1.5781  0.5378  1.5731
13861TIP3    H262999   6.738   6.434  13.921 -2.4764  1.3457 -0.7287
13862TIP3   OH263000   2.157   0.008  15.396 -0.1884  0.0006 -0.1170
13862TIP3    H163001   2.093  -0.019  15.461 -0.6777 -0.2084 -0.6793
13862TIP3    H263002   2.227  -0.057  15.403 -0.4372 -0.2661 -0.0953
13863TIP3   OH263003   0.756   1.958   4.535  0.2841  0.0255 -0.2504
13863TIP3    H163004   0.702   1.922   4.606 -0.6552  0.3984 -0.7561
13863TIP3    H263005   0.843   1.969   4.574  0.6449 -2.7573 -0.0638
13864TIP3   OH263006   6.666   0.429   5.438 -0.0817 -0.3092  0.1962
13864TIP3    H163007   6.706   0.511   5.408  3.0151 -1.1031  1.7431
13864TIP3    H263008   6.574   0.451   5.449  0.3439  2.5233 -0.9201
13865TIP3   OH263009   2.899   0.810  11.151  0.0003  0.5446  0.1683
13865TIP3    H163010   2.810   0.780  11.134  0.0941  0.2783  0.1392
13865TIP3    H263011   2.904   0.896  11.110 -0.9496  1.5835  2.1277
13866TIP3   OH263012   2.386   3.101  12.125  0.4843  0.1856 -0.2355
13866TIP3    H163013   2.400   3.177  12.181  0.1478  0.2382 -0.2250
13866TIP3    H263014   2.472   3.084  12.086  0.6049  0.4467 -0.0830
13867TIP3   OH263015   1.987   1.149  15.828 -0.1112 -0.3467  0.3266
13867TIP3    H163016   1.967   1.059  15.803  0.4335 -0.7598  1.3019
13867TIP3    H263017   2.023   1.189  15.749 -0.0081 -1.1025 -0.0162
13868TIP3   OH263018   5.649   3.060   5.131 -0.3906  0.3278 -0.4436
13868TIP3    H163019   5.617   2.993   5.192 -0.1357  1.8113  1.3952
13868TIP3    H263020   5.571   3.111   5.110 -0.5951 -0.5385 -1.8915
13869TIP3   OH263021   1.473   6.285  10.849 -0.1001 -0.3898 -0.7503
13869TIP3    H163022   1.476   6.378  10.825  1.8759 -0.3881 -0.7104
13869TIP3    H263023   1.538   6.277  10.920 -0.0969 -1.8339 -0.8879
13870TIP3   OH263024   6.449   5.404  15.410  0.4337 -0.1247  0.3921
13870TIP3    H163025   6.358   5.405  15.437 -0.4028 -3.0990 -1.7456
13870TIP3    H263026   6.499   5.408  15.492 -1.7302 -2.0397  1.9136
13871TIP3   OH263027   1.631   1.816  12.525 -0.0965  0.2217  0.4709
13871TIP3    H163028   1.639   1.740  12.581 -0.0511  1.0748  1.6601
13871TIP3    H263029   1.633   1.781  12.436 -0.0653 -1.1457  0.9917
13872TIP3   OH263030   0.887   3.902  12.157 -0.0618 -0.3075  0.3243
13872TIP3    H163031   0.947   3.830  12.180 -0.3315 -0.3517  0.8935
13872TIP3    H263032   0.841   3.922  12.238 -1.2962 -0.7080 -0.2560
13873TIP3   OH263033   1.996   6.220   3.442  0.2253 -0.4040 -0.6049
13873TIP3    H163034   1.940   6.226   3.520 -0.8936 -0.0408 -1.4030
13873TIP3    H263035   2.083   6.245   3.473 -0.3958  0.7120  0.3416
13874TIP3   OH263036   3.710   2.637   3.022 -0.6571  0.1373 -0.5131
13874TIP3    H163037   3.660   2.557   3.007  0.8580 -0.6087 -1.8720
13874TIP3    H263038   3.754   2.654   2.938  1.5929  0.5620  0.6838
13875TIP3   OH263039   2.125   1.468   5.167 -0.1162 -0.7744  0.1561
13875TIP3    H163040   2.163   1.407   5.103 -1.1507 -2.4223  1.0618
13875TIP3    H263041   2.109   1.415   5.245  0.0561  0.9427  1.4092
13876TIP3   OH263042   5.967   6.464   2.169  0.2800 -0.4304  0.2354
13876TIP3    H163043   5.904   6.434   2.103 -0.5529  1.3830  0.1315
13876TIP3    H263044   5.918   6.463   2.251  0.8271 -1.1712  0.5579
13877TIP3   OH263045   1.782   6.309   1.817 -0.5697  0.0693  0.3710
13877TIP3    H163046   1.745   6.308   1.905 -0.5233  0.3767  0.3947
13877TIP3    H263047   1.707   6.292   1.760 -0.4148 -1.2513  0.5254
13878TIP3   OH263048   2.997   1.232  14.839  0.2944 -0.1902 -0.4756
13878TIP3    H163049   3.014   1.279  14.921  0.3291 -1.7235  0.4441
13878TIP3    H263050   2.995   1.300  14.772 -2.9134  1.5599  1.1677
13879TIP3   OH263051   0.391   1.326  11.138 -0.3873 -0.1212  0.5084
13879TIP3    H163052   0.373   1.383  11.214 -0.5478  1.6620 -0.7990
13879TIP3    H263053   0.476   1.356  11.106 -1.2120  0.5613 -1.1815
13880TIP3   OH263054   6.378   5.654   5.800  0.1468 -0.0075  0.3198
13880TIP3    H163055   6.301   5.633   5.853 -0.0471  0.0189  0.0521
13880TIP3    H263056   6.345   5.714   5.733  0.6602  1.0857  1.0099
13881TIP3   OH263057   0.680   1.835  14.083  0.1239  0.5673 -0.1766
13881TIP3    H163058   0.732   1.900  14.131  1.7069 -0.2925 -0.6775
13881TIP3    H263059   0.667   1.763  14.145  0.8492  0.1230 -0.5331
13882TIP3   OH263060   6.333   1.813  17.060 -0.8460 -0.1293  0.0159
13882TIP3    H163061   6.407   1.848  17.109 -0.6441 -1.4031  0.6622
13882TIP3    H263062   6.277   1.772  17.126 -0.8376 -1.4198 -0.7397
13883TIP3   OH263063   2.357   2.910  17.087  0.5099 -0.1680  0.4174
13883TIP3    H163064   2.386   2.841  17.027 -0.5656 -0.8066  0.6060
13883TIP3    H263065   2.438   2.955  17.112  1.1991 -1.1581  0.0534
13884TIP3   OH263066   0.785   3.246  13.428 -0.5214  0.5264  0.5141
13884TIP3    H163067   0.741   3.206  13.503  0.5039 -0.8486  0.4304
13884TIP3    H263068   0.827   3.324  13.464 -0.1999 -0.0129  1.3537
13885TIP3   OH263069   0.890   6.443  13.614  0.1226 -0.4036 -0.3239
13885TIP3    H163070   0.854   6.453  13.526 -1.0531  1.5564  0.2917
13885TIP3    H263071   0.826   6.389  13.660 -0.0358 -0.2020 -0.3019
13886TIP3   OH263072   0.351   1.767   3.852  0.4577  0.4010 -0.2187
13886TIP3    H163073   0.385   1.690   3.899 -1.3445 -0.5382 -0.3698
13886TIP3    H263074   0.367   1.747   3.759 -0.8488 -0.2666 -0.3246
13887TIP3   OH263075   4.582   6.499  16.329  0.5032  0.0668  0.1592
13887TIP3    H163076   4.524   6.565  16.292  1.8533  0.5393 -1.2532
13887TIP3    H263077   4.529   6.419  16.334 -0.3168  0.5298 -0.9097
13888TIP3   OH263078   2.360   5.628  12.433  0.4431  0.4053  0.2249
13888TIP3    H163079   2.275   5.658  12.401  0.5933  0.3620 -0.2211
13888TIP3    H263080   2.364   5.659  12.524  0.1322  0.7815  0.1112
13889TIP3   OH263081   1.368   1.299  15.065 -0.3201 -0.0767  0.6747
13889TIP3    H163082   1.422   1.350  15.126  0.0490  0.3706 -0.0241
13889TIP3    H263083   1.387   1.208  15.087 -1.6753  0.0200  2.5782
13890TIP3   OH263084   5.019   1.033  16.743  0.4863  0.1500  0.3685
13890TIP3    H163085   4.974   0.953  16.715  0.2686  0.4164 -0.0433
13890TIP3    H263086   4.949   1.089  16.776  0.3853  0.9000 -1.0526
13891TIP3   OH263087   6.745   1.495  13.528  0.0061 -0.0618 -0.2587
13891TIP3    H163088   6.719   1.509  13.620 -1.2759  0.5023 -0.6827
13891TIP3    H263089   6.833   1.533  13.522  0.4495 -0.8575  0.9340
13892TIP3   OH263090   5.395   3.074   2.113 -0.1397  0.6259  0.2224
13892TIP3    H163091   5.388   2.981   2.090 -3.0752  0.5519  0.9761
13892TIP3    H263092   5.420   3.074   2.205  2.9741  0.7376 -0.5290
13893TIP3   OH263093   6.604   4.009  11.571 -0.1539 -0.3267 -0.1529
13893TIP3    H163094   6.527   3.952  11.582 -1.4339  1.4937  0.8822
13893TIP3    H263095   6.651   3.972  11.497 -2.9885 -0.5076 -1.9932
13894TIP3   OH263096   0.261   3.166   5.667  0.7600  0.0185 -0.4492
13894TIP3    H163097   0.292   3.227   5.734 -0.7909  0.2453  0.0989
13894TIP3    H263098   0.309   3.190   5.588  0.8534  1.3270 -0.0079
13895TIP3   OH263099   5.756   6.749   5.727  0.8591 -0.1109  0.1413
13895TIP3    H163100   5.820   6.788   5.786  0.2932 -0.6863  1.1715
13895TIP3    H263101   5.779   6.656   5.725  1.2630 -0.0021 -1.0777
13896TIP3   OH263102   6.107   5.997   5.034  0.1942  0.7890 -0.8532
13896TIP3    H163103   6.129   6.035   5.119 -0.3208 -1.7445  0.5059
13896TIP3    H263104   6.191   5.978   4.993  0.5740 -1.1882  0.6849
13897TIP3   OH263105   3.519   2.172   6.090  0.0923  0.1214 -0.1416
13897TIP3    H163106   3.446   2.198   6.145 -2.5395  0.8901 -3.6255
13897TIP3    H263107   3.575   2.250   6.086  0.9663 -0.3049  2.1331
13898TIP3   OH263108   1.091   4.892   0.322 -0.2629  1.0112  0.1108
13898TIP3    H163109   1.068   4.831   0.391  1.0103  0.5515  0.1499
13898TIP3    H263110   1.056   4.853   0.242 -0.3829  0.7719  0.2820
13899TIP3   OH263111   4.519   3.307  13.882 -0.2893  0.2893 -0.1455
13899TIP3    H163112   4.444   3.270  13.837  0.6994 -0.8952 -0.8937
13899TIP3    H263113   4.528   3.396  13.847 -1.4428  0.5215  0.1180
13900TIP3   OH263114   4.625   5.177   0.300 -0.5094 -0.2236 -0.0543
13900TIP3    H163115   4.696   5.238   0.315 -1.8824  1.2240  0.8482
13900TIP3    H263116   4.667   5.091   0.297  1.3413  0.6486 -0.3385
13901TIP3   OH263117   1.656   2.933  14.352 -1.0455 -0.2287  0.4746
13901TIP3    H163118   1.742   2.928  14.310 -1.2138  1.2328 -0.0989
13901TIP3    H263119   1.603   2.985  14.292 -1.5589  1.1812  2.0703
13902TIP3   OH263120   1.546   6.510   0.179 -0.4265 -0.0671  0.0440
13902TIP3    H163121   1.564   6.527   0.272 -0.7448 -1.3755  0.3649
13902TIP3    H263122   1.574   6.419   0.166  0.4411  0.3818 -1.3678
13903TIP3   OH263123   3.113   6.746  15.743 -0.0893 -0.3979 -0.3914
13903TIP3    H163124   3.159   6.829  15.758 -0.7595 -0.2118  0.7435
13903TIP3    H263125   3.156   6.684  15.802 -0.2630 -0.6110 -0.4868
13904TIP3   OH263126   4.014   5.494   0.519  0.0467  0.2165 -0.2821
13904TIP3    H163127   3.929   5.516   0.480 -0.3027 -0.5265  0.0467
13904TIP3    H263128   3.993   5.437   0.593  0.8704 -0.4560 -0.5507
13905TIP3   OH263129   1.441   2.243  10.922  0.4909  0.0976  0.2630
13905TIP3    H163130   1.536   2.233  10.914  0.7020  0.1132  2.1886
13905TIP3    H263131   1.429   2.335  10.946  0.0317 -0.0397  0.5592
13906TIP3   OH263132   0.628   2.354   4.968 -0.1712  0.1728 -0.2197
13906TIP3    H163133   0.614   2.356   4.873  0.4350 -0.4933 -0.3342
13906TIP3    H263134   0.720   2.328   4.978 -0.9165 -2.4736  0.5504
13907TIP3   OH263135   2.361   2.912  13.578  0.3286 -0.2072 -0.2811
13907TIP3    H163136   2.389   2.878  13.493 -0.3243 -0.5226 -0.3725
13907TIP3    H263137   2.443   2.922  13.627  0.5796 -1.5860 -0.3708
13908TIP3   OH263138   4.775   3.358  14.242 -0.1879 -0.4370 -0.8700
13908TIP3    H163139   4.853   3.402  14.209  0.1182 -0.3075 -0.0122
13908TIP3    H263140   4.702   3.402  14.199  0.1187  0.8257 -0.1526
13909TIP3   OH263141   3.704   3.797  17.153 -0.7360 -0.8557 -0.6726
13909TIP3    H163142   3.637   3.765  17.214  1.6358 -1.1745  1.9527
13909TIP3    H263143   3.755   3.720  17.130 -0.3093 -0.3726 -1.3827
13910TIP3   OH263144   5.313   1.851  11.557 -0.2056  0.1971 -0.2465
13910TIP3    H163145   5.250   1.916  11.587 -1.0214 -0.5261 -0.3615
13910TIP3    H263146   5.265   1.797  11.494  0.5864 -0.2394 -0.5019
13911TIP3   OH263147   0.296   5.227   2.228  0.4201 -0.4106  0.2263
13911TIP3    H163148   0.344   5.284   2.288 -2.2308  1.2481  0.8935
13911TIP3    H263149   0.265   5.155   2.284 -1.7743  0.9667  0.8698
13912TIP3   OH263150   4.340   3.197  12.002 -0.1675  0.3356  0.1300
13912TIP3    H163151   4.331   3.238  11.916 -0.9955  0.7227  0.3963
13912TIP3    H263152   4.420   3.145  11.995 -1.9505 -2.4056 -2.0228
13913TIP3   OH263153   3.751   5.856  11.604 -0.4920  0.1154  0.0821
13913TIP3    H163154   3.677   5.795  11.601 -0.4760  0.1117 -0.2883
13913TIP3    H263155   3.738   5.906  11.685 -1.3989  0.7342 -0.4220
13914TIP3   OH263156   5.983   6.508   1.262  0.6054 -0.3410  0.1048
13914TIP3    H163157   5.996   6.602   1.272 -0.1336 -0.2261  0.0614
13914TIP3    H263158   6.012   6.471   1.346  2.9329 -0.3230 -0.6153
13915TIP3   OH263159   0.144   1.664  13.787 -0.3427 -0.0235  0.0926
13915TIP3    H163160   0.208   1.688  13.720 -0.5233  1.2013  0.3214
13915TIP3    H263161   0.168   1.717  13.863 -1.0222 -0.2970  0.5103
13916TIP3   OH263162   2.773   4.049   0.953 -0.4333  0.3185  0.6768
13916TIP3    H163163   2.754   3.956   0.961  0.7578 -0.1728 -1.3984
13916TIP3    H263164   2.688   4.090   0.939 -0.8121 -0.7110 -0.1620
13917TIP3   OH263165   1.476   5.888  12.415  0.3730 -0.5488 -0.0663
13917TIP3    H163166   1.473   5.800  12.377  1.6178  0.0599 -1.6794
13917TIP3    H263167   1.411   5.937  12.367  0.2842 -0.3592  0.2443
13918TIP3   OH263168   2.518   2.280   4.467  0.4328 -0.2884  0.1669
13918TIP3    H163169   2.426   2.295   4.487  0.4876  0.6345 -0.2385
13918TIP3    H263170   2.534   2.331   4.388  1.7739  1.1624  1.3246
13919TIP3   OH263171   1.078   5.393   5.208  0.3563 -0.6046 -0.1358
13919TIP3    H163172   1.036   5.334   5.270  0.5286 -1.8528 -1.1712
13919TIP3    H263173   1.010   5.457   5.185  0.3068 -0.0938  1.3442
13920TIP3   OH263174   2.652   4.415  10.008  0.5373  0.0412 -0.0625
13920TIP3    H163175   2.700   4.332  10.008 -0.8423 -0.8231 -1.7551
13920TIP3    H263176   2.608   4.417  10.092  1.5749 -0.3069  0.5110
13921TIP3   OH263177   6.596   5.575  12.083  0.2473  0.2773 -0.2392
13921TIP3    H163178   6.540   5.625  12.142  0.5167 -0.8648  1.0461
13921TIP3    H263179   6.574   5.483  12.101  1.2940 -0.1348 -0.9570
13922TIP3   OH263180   0.165   0.054  16.403  0.3413  0.3272  0.0659
13922TIP3    H163181   0.247   0.043  16.354  0.7797  2.0632  0.3599
13922TIP3    H263182   0.118  -0.028  16.389  2.0548 -0.6498 -0.2445
13923TIP3   OH263183   1.100   1.884   2.382  0.1478  0.1674  0.2639
13923TIP3    H163184   1.010   1.899   2.412 -0.6000 -0.6185 -1.4682
13923TIP3    H263185   1.125   1.966   2.340 -0.2683 -0.0453 -0.4194
13924TIP3   OH263186   0.800   1.303   6.139 -0.0247  0.2135 -0.6641
13924TIP3    H163187   0.823   1.396   6.133  0.7910 -0.0221 -1.5254
13924TIP3    H263188   0.874   1.264   6.186  0.6434 -0.3014 -2.0657
13925TIP3   OH263189   6.364   0.623   2.540  0.3413 -0.1007  0.3238
13925TIP3    H163190   6.437   0.580   2.494 -0.9029 -1.4372 -0.4527
13925TIP3    H263191   6.384   0.717   2.533  2.4818 -0.4521  0.9998
13926TIP3   OH263192   1.515   0.017  15.335  0.1199 -0.3632 -0.1948
13926TIP3    H163193   1.547  -0.069  15.362  1.0898  0.3630  1.1099
13926TIP3    H263194   1.503   0.010  15.241 -0.5147 -2.1357 -0.0099
13927TIP3   OH263195   1.888   4.416  16.360  0.0312  0.4668 -0.2964
13927TIP3    H163196   1.794   4.426  16.371  0.1013  0.9075 -0.0583
13927TIP3    H263197   1.923   4.505  16.366  0.5718  0.2053  0.7645
13928TIP3   OH263198   4.920   1.140  15.887  0.3934  0.1828 -0.0707
13928TIP3    H163199   4.985   1.204  15.916  0.5600  1.1372 -2.3850
13928TIP3    H263200   4.971   1.064  15.861  0.4133  0.1751 -0.0109
13929TIP3   OH263201   4.733   1.793  11.175  0.6036 -0.3138  0.1203
13929TIP3    H163202   4.779   1.743  11.242 -0.4754 -1.2071  0.2261
13929TIP3    H263203   4.640   1.781  11.196  0.2907  2.3835  0.6162
13930TIP3   OH263204   6.679   0.151   0.887 -0.9591 -0.3117  0.9049
13930TIP3    H163205   6.625   0.209   0.833 -2.0503 -0.9149  1.3374
13930TIP3    H263206   6.681   0.194   0.973  0.4485  0.4386  0.5474
13931TIP3   OH263207   2.460   5.426   2.272 -0.0460  0.2993  0.0892
13931TIP3    H163208   2.480   5.369   2.197  1.8733  2.0057 -0.7746
13931TIP3    H263209   2.462   5.367   2.347 -1.0704 -1.2856 -1.0441
13932TIP3   OH263210   0.986   0.187   5.003 -0.1153 -0.0720 -0.5587
13932TIP3    H163211   0.943   0.139   5.074 -0.3457  0.6736 -0.1915
13932TIP3    H263212   0.927   0.175   4.928  1.1238 -2.6298 -1.2801
13933TIP3   OH263213   6.595   1.451  13.775 -0.0438 -0.3357  0.2628
13933TIP3    H163214   6.607   1.411  13.861 -1.6798 -0.6888  0.3462
13933TIP3    H263215   6.575   1.542  13.794  0.0325 -0.3116  0.2289
13934TIP3   OH263216   2.138   4.577  10.673 -0.0297 -0.5937 -0.3171
13934TIP3    H163217   2.055   4.606  10.635 -1.3109 -1.3066  1.7144
13934TIP3    H263218   2.113   4.538  10.757  2.1967 -2.4043 -0.3975
13935TIP3   OH263219   2.215   2.825  15.360 -0.1935  0.4937  0.0765
13935TIP3    H163220   2.226   2.802  15.453  0.0779 -0.8704 -0.2697
13935TIP3    H263221   2.121   2.835  15.349 -0.3767 -0.9323  0.1718
13936TIP3   OH263222   2.693   3.407   2.525  0.0496 -0.5258 -0.9738
13936TIP3    H163223   2.623   3.428   2.587  2.0867 -0.7890  1.6077
13936TIP3    H263224   2.765   3.465   2.550  1.7294 -2.2557 -1.5344
13937TIP3   OH263225   1.923   2.100   3.088  0.3512 -0.0623  0.2878
13937TIP3    H163226   1.890   2.189   3.096 -0.4852 -0.4048  0.6729
13937TIP3    H263227   2.018   2.111   3.077  0.0511  0.9661 -1.6918
13938TIP3   OH263228   6.674   1.297  14.008  0.3373 -0.5463 -0.2606
13938TIP3    H163229   6.762   1.329  14.029  0.7425 -1.8435  0.1265
13938TIP3    H263230   6.651   1.243  14.084 -0.2950 -1.1834 -0.8991
13939TIP3   OH263231   3.322   2.569   2.410 -0.0092 -0.2666  0.2103
13939TIP3    H163232   3.327   2.523   2.494 -1.1681  0.4385  0.6888
13939TIP3    H263233   3.321   2.500   2.344 -0.9482 -0.8999  0.8763
13940TIP3   OH263234   3.884   6.064   1.675 -0.3598  0.0649  0.3258
13940TIP3    H163235   3.807   6.118   1.695  0.5221  1.9763 -1.0997
13940TIP3    H263236   3.922   6.045   1.761 -1.5632  0.3919  0.9614
13941TIP3   OH263237   3.970   2.765   0.431  0.2063 -0.1474 -0.3974
13941TIP3    H163238   4.016   2.732   0.509  0.8480  1.3195 -0.1172
13941TIP3    H263239   4.016   2.723   0.358  0.6818 -0.2581 -0.0452
13942TIP3   OH263240   3.178   4.244   3.013 -0.2685 -0.0670  0.0334
13942TIP3    H163241   3.251   4.249   2.952 -0.9157  2.6167 -0.6157
13942TIP3    H263242   3.218   4.255   3.099  0.1392  1.5283 -0.3293
13943TIP3   OH263243   3.380   3.263  16.894  0.4444  0.5251 -0.0140
13943TIP3    H163244   3.428   3.180  16.883 -0.1056  0.0638  0.9508
13943TIP3    H263245   3.352   3.286  16.806 -0.2550 -0.8572 -0.1846
13944TIP3   OH263246   3.627   1.109   6.043 -0.1166  0.2592 -0.3267
13944TIP3    H163247   3.680   1.159   6.105  0.3625  0.3584 -0.8012
13944TIP3    H263248   3.574   1.051   6.097 -0.8395  1.4237  0.2386
13945TIP3   OH263249   3.553   6.757   2.849  0.1512 -0.7985 -0.2399
13945TIP3    H163250   3.609   6.739   2.925 -0.2937 -1.0235  0.0386
13945TIP3    H263251   3.465   6.761   2.884 -0.6841 -5.1874 -1.2410
13946TIP3   OH263252   5.810   4.473   5.448 -0.0177 -0.8417 -0.5675
13946TIP3    H163253   5.900   4.443   5.464 -0.1667 -0.3936  1.3398
13946TIP3    H263254   5.817   4.569   5.445 -0.2950 -0.8444 -1.4144
13947TIP3   OH263255   2.886   0.361   3.770 -0.6707 -0.4048  0.0330
13947TIP3    H163256   2.870   0.277   3.814 -2.3826  0.3640  0.9512
13947TIP3    H263257   2.943   0.338   3.696 -0.5944 -2.2754  0.6141
13948TIP3   OH263258   0.164   6.749  17.011 -0.5270 -0.5843  0.1379
13948TIP3    H163259   0.156   6.763  16.917 -0.9617 -1.6909 -0.0011
13948TIP3    H263260   0.152   6.655  17.023 -0.2854 -0.4866  1.2810
13949TIP3   OH263261   4.302   6.717  15.161  0.0954  0.1330  0.6910
13949TIP3    H163262   4.244   6.642  15.172 -0.3492  0.3898  0.1562
13949TIP3    H263263   4.388   6.685  15.186  0.0209 -0.7344 -0.1080
13950TIP3   OH263264   5.067   0.114   1.351  0.3582 -0.0768 -0.1280
13950TIP3    H163265   5.096   0.087   1.438  0.8512 -1.0776 -0.5853
13950TIP3    H263266   5.000   0.051   1.327 -1.5666  1.6338  0.4971
13951TIP3   OH263267   3.941   4.736   0.277  0.2505 -0.4616 -0.2364
13951TIP3    H163268   3.919   4.829   0.268  1.9810  0.1967  1.7142
13951TIP3    H263269   3.886   4.706   0.350  1.0857 -0.4458  0.4115
13952TIP3   OH263270   3.845   4.357  17.086 -0.3111  0.3911 -0.3866
13952TIP3    H163271   3.888   4.405  17.158 -0.7031 -1.4673  1.1716
13952TIP3    H263272   3.915   4.337  17.025  0.0986  1.7394 -0.3931
13953TIP3   OH263273   2.596   5.923  16.690  0.7118  0.5431 -0.4901
13953TIP3    H163274   2.611   5.868  16.613 -0.5700 -0.7231  0.1103
13953TIP3    H263275   2.503   5.947  16.684  0.5621  0.3362  0.6842
13954TIP3   OH263276   1.722   4.660   0.848 -0.2464  0.2341 -0.1585
13954TIP3    H163277   1.717   4.578   0.799 -1.4274  0.4289 -0.4047
13954TIP3    H263278   1.802   4.702   0.818  0.3351 -0.7870 -0.0856
13955TIP3   OH263279   2.158   3.449  17.018 -0.3635 -0.8903  0.2672
13955TIP3    H163280   2.150   3.412  17.105  0.8959 -0.4608  0.5846
13955TIP3    H263281   2.071   3.485  16.999 -0.0702  1.1161  2.3346
13956TIP3   OH263282   2.848   5.781  11.820 -0.0144 -0.0024 -0.3951
13956TIP3    H163283   2.813   5.794  11.909 -0.3698  0.2316 -0.5664
13956TIP3    H263284   2.936   5.745  11.834 -0.5306 -1.1347  0.0399
13957TIP3   OH263285   3.762   5.584  15.350 -0.2211 -0.4778 -0.2249
13957TIP3    H163286   3.731   5.558  15.263  0.2075 -1.2414 -0.1622
13957TIP3    H263287   3.776   5.501  15.395 -0.0674 -0.0923  0.4423
13958TIP3   OH263288   3.373   0.880   5.943 -0.3097 -0.3548 -0.3934
13958TIP3    H163289   3.282   0.901   5.963 -0.8341 -2.3116 -0.4559
13958TIP3    H263290   3.415   0.869   6.029  0.0788  1.2115 -0.3530
13959TIP3   OH263291   3.572   6.791   5.133  0.0223 -0.1934  0.0869
13959TIP3    H163292   3.585   6.704   5.171 -0.5650  0.0701  0.8982
13959TIP3    H263293   3.576   6.851   5.207  0.5522  0.4923 -0.4837
13960TIP3   OH263294   6.708   6.014  12.497  0.1619  0.1863 -0.2114
13960TIP3    H163295   6.725   6.003  12.403  1.9475 -0.1420  0.1061
13960TIP3    H263296   6.765   5.950  12.539  0.9028  1.6768  1.1675
13961TIP3   OH263297   1.290   4.266  13.571 -0.3994  0.1487 -0.3896
13961TIP3    H163298   1.243   4.329  13.516 -1.3348  0.1919  0.4305
13961TIP3    H263299   1.382   4.284  13.554 -0.6501  1.6967 -0.2321
13962TIP3   OH263300   0.259   1.862  13.024 -0.5724  0.7664 -0.4814
13962TIP3    H163301   0.231   1.776  12.993  2.0802  0.1222 -1.4106
13962TIP3    H263302   0.178   1.907  13.046 -2.1642 -1.3836 -1.5088
13963TIP3   OH263303   3.619   0.847  11.686  0.5012  0.0784  0.4312
13963TIP3    H163304   3.667   0.778  11.639 -0.3358 -0.0201 -0.3206
13963TIP3    H263305   3.685   0.913  11.706  1.1166 -0.4562  0.1980
13964TIP3   OH263306   2.412   6.660  15.517  0.1546  0.4005 -0.3834
13964TIP3    H163307   2.433   6.729  15.580  1.3838  1.0599 -1.4687
13964TIP3    H263308   2.489   6.603  15.517  0.3084  0.5849 -1.4844
13965TIP3   OH263309   0.014   6.581   1.301 -0.5505 -0.1456 -0.2238
13965TIP3    H163310  -0.009   6.513   1.238  1.0572 -0.4855 -0.4834
13965TIP3    H263311   0.012   6.662   1.250 -2.6695  0.0921  0.1329
13966TIP3   OH263312   3.209   1.871  15.948 -0.2228  0.1470 -0.0626
13966TIP3    H163313   3.170   1.954  15.920 -2.4814 -0.4543  0.9986
13966TIP3    H263314   3.273   1.895  16.014  0.3709  1.1349 -0.9779
13967TIP3   OH263315   1.238   1.121  13.545  0.2572  0.2808 -0.4776
13967TIP3    H163316   1.195   1.197  13.504  1.0057  0.1988 -1.4652
13967TIP3    H263317   1.306   1.097  13.483  2.7667  1.3341  1.6720
13968TIP3   OH263318   2.351   0.392   4.046 -0.0906  0.2412  0.7404
13968TIP3    H163319   2.401   0.331   4.100 -1.9528  0.1520  2.4521
13968TIP3    H263320   2.260   0.363   4.055 -0.4974  0.0094 -2.7407
13969TIP3   OH263321   4.367   5.918   4.207  0.3019  0.1361  0.3807
13969TIP3    H163322   4.454   5.958   4.198  0.5143 -0.7290 -2.2508
13969TIP3    H263323   4.370   5.875   4.292  3.2993 -1.6712 -0.4811
13970TIP3   OH263324   4.412   2.011   0.494 -0.5661 -0.6465 -0.1621
13970TIP3    H163325   4.414   1.949   0.421 -3.5434 -0.5879 -0.4392
13970TIP3    H263326   4.319   2.019   0.515 -0.2114  2.6922  0.7448
13971TIP3   OH263327   2.707   0.508   4.632 -0.3290 -0.0221 -0.0060
13971TIP3    H163328   2.720   0.417   4.608 -0.2860 -0.4483  1.5614
13971TIP3    H263329   2.670   0.505   4.720  0.7029  1.4978  0.5085
13972TIP3   OH263330   1.412   2.362   1.191  0.0068 -0.3767  0.2278
13972TIP3    H163331   1.377   2.315   1.267  0.0845 -1.0543 -0.1439
13972TIP3    H263332   1.475   2.301   1.152  1.2445  0.6417  0.6007
13973TIP3   OH263333   6.036   4.490   5.179 -0.4229 -0.5498 -0.1114
13973TIP3    H163334   6.043   4.451   5.266 -1.3649 -0.1039  0.1715
13973TIP3    H263335   5.946   4.522   5.174 -0.8831 -1.9573 -1.8364
13974TIP3   OH263336   0.103   2.466   1.985  0.2381  0.2195  0.0646
13974TIP3    H163337   0.096   2.377   1.951 -0.8580 -0.3450  1.6335
13974TIP3    H263338   0.138   2.517   1.913  1.4416 -1.5877 -0.6982
13975TIP3   OH263339   6.484   2.533   6.661 -0.2533  0.0556  0.4718
13975TIP3    H163340   6.562   2.531   6.717  0.2941 -2.3569 -0.2425
13975TIP3    H263341   6.427   2.466   6.697 -0.5835 -0.4324 -0.8931
13976TIP3   OH263342   3.421   1.319  13.637 -0.0488 -0.2745 -0.3185
13976TIP3    H163343   3.334   1.351  13.612  0.3140 -0.0556 -1.3504
13976TIP3    H263344   3.422   1.324  13.732 -1.4305 -0.9600 -0.2374
13977TIP3   OH263345   0.687   3.149   0.118  0.1034  0.6040  0.2694
13977TIP3    H163346   0.669   3.056   0.112  0.4755  0.5817 -0.6812
13977TIP3    H263347   0.612   3.185   0.166  0.2346 -0.2456  1.1448
13978TIP3   OH263348   0.240   4.563   5.678 -0.0736  0.5141 -0.1433
13978TIP3    H163349   0.193   4.499   5.732  1.0702 -1.7441 -1.6881
13978TIP3    H263350   0.329   4.562   5.712  0.2274  0.3977 -0.9163
13979TIP3   OH263351   6.386   2.526  16.180 -0.3788  0.7996  0.0496
13979TIP3    H163352   6.468   2.533  16.132 -0.8612  0.0206 -0.9236
13979TIP3    H263353   6.357   2.616  16.193  1.2029  1.1619  1.4615
13980TIP3   OH263354   1.247   3.003  12.600  0.6036  0.5165  0.0443
13980TIP3    H163355   1.212   2.914  12.597 -1.4034  1.2682 -1.5738
13980TIP3    H263356   1.293   3.013  12.516  1.0771  0.9043  0.3508
13981TIP3   OH263357   4.217   5.018   0.280 -0.5080  1.0205  0.7970
13981TIP3    H163358   4.196   4.925   0.292 -2.3495  1.5330  1.9977
13981TIP3    H263359   4.141   5.054   0.233 -1.1833  2.4386  2.8313
13982TIP3   OH263360   5.961   4.116  11.692  0.3213  0.0433  0.0726
13982TIP3    H163361   6.015   4.064  11.632  1.6917 -0.2287  1.4881
13982TIP3    H263362   5.913   4.051  11.743  0.5993  0.2224  0.5600
13983TIP3   OH263363   5.735   5.701   1.350  0.6269 -0.5844 -0.3216
13983TIP3    H163364   5.728   5.646   1.272  4.6628 -0.9664 -0.6022
13983TIP3    H263365   5.785   5.649   1.412  1.6096  1.4699  0.7159
13984TIP3   OH263366   6.694   3.218   2.059  0.0502 -0.1193 -0.2553
13984TIP3    H163367   6.731   3.300   2.027 -0.0394  0.0764  0.1370
13984TIP3    H263368   6.742   3.150   2.011 -1.1500  0.1839 -1.9475
13985TIP3   OH263369   4.764   1.702  11.951  0.1253  0.0936  1.1741
13985TIP3    H163370   4.718   1.762  12.010 -1.3330 -0.5403  0.7216
13985TIP3    H263371   4.813   1.644  12.010  0.0963  0.5738  1.6869
13986TIP3   OH263372   1.801   5.873   1.344  0.3580 -0.1639  0.1365
13986TIP3    H163373   1.776   5.848   1.432  0.7085  0.3284  0.3836
13986TIP3    H263374   1.768   5.802   1.288 -1.3977  0.3497  0.4531
13987TIP3   OH263375   5.626   4.903  15.696 -0.0767 -0.3909 -0.0011
13987TIP3    H163376   5.705   4.957  15.688  0.2278 -0.5703  1.5155
13987TIP3    H263377   5.630   4.844  15.621  0.5821  0.4277 -0.6265
13988TIP3   OH263378   6.613   0.278   5.885 -0.0109 -0.8310 -0.1339
13988TIP3    H163379   6.677   0.213   5.915  1.4227 -0.3620 -2.0081
13988TIP3    H263380   6.639   0.298   5.795 -1.8829  0.5506 -0.4301
13989TIP3   OH263381   3.104   2.550  12.649  0.2796 -0.2228  0.0192
13989TIP3    H163382   3.192   2.516  12.665  0.0267 -1.0586 -0.2969
13989TIP3    H263383   3.110   2.644  12.668  0.9486 -0.4677  1.1159
13990TIP3   OH263384   2.117   4.603   2.501 -0.7754  0.0132  0.0210
13990TIP3    H163385   2.090   4.526   2.450  0.5794 -0.2190 -0.4012
13990TIP3    H263386   2.038   4.654   2.512 -1.2227 -0.1955 -1.8858
13991TIP3   OH263387   1.154   5.429   2.915  0.3953  0.0084  0.4517
13991TIP3    H163388   1.097   5.458   2.844  1.6029  0.5097 -0.3591
13991TIP3    H263389   1.243   5.444   2.881  1.0352 -1.8008  1.2165
13992TIP3   OH263390   6.097   2.294  15.631  0.4619  0.3884  0.0156
13992TIP3    H163391   6.165   2.360  15.620  1.3069 -0.4469  0.1820
13992TIP3    H263392   6.053   2.318  15.713  2.2489 -0.5398  1.2977
13993TIP3   OH263393   4.241   3.549  10.717 -0.2296  0.0188 -0.1529
13993TIP3    H163394   4.218   3.488  10.647  0.4154 -1.4068  0.8250
13993TIP3    H263395   4.302   3.501  10.772 -0.4193  1.2304  1.1970
13994TIP3   OH263396   2.513   2.811  11.839 -0.2651 -0.2155 -0.1296
13994TIP3    H163397   2.444   2.877  11.847  0.0691  0.0822  0.3390
13994TIP3    H263398   2.562   2.817  11.921 -0.8968 -1.8050  0.3956
13995TIP3   OH263399   6.595   2.621  15.444 -0.4464 -0.4601  0.1511
13995TIP3    H163400   6.551   2.705  15.434 -0.4056 -0.6924 -2.5075
13995TIP3    H263401   6.599   2.608  15.539  0.1945  2.8297  0.7010
13996TIP3   OH263402   0.355   5.041  11.887  0.4617 -0.6162  0.1545
13996TIP3    H163403   0.355   5.117  11.829 -0.0480 -0.8497 -0.1621
13996TIP3    H263404   0.403   4.974  11.838  0.0493 -0.8069  0.0047
13997TIP3   OH263405   4.304   4.355  12.722  0.1335 -0.0488  0.3396
13997TIP3    H163406   4.275   4.343  12.632  1.6981  0.7872 -0.3074
13997TIP3    H263407   4.277   4.444  12.744 -0.3977 -0.3084  0.7817
13998TIP3   OH263408   1.409   4.125  13.329  1.0344  0.8759 -0.0294
13998TIP3    H163409   1.473   4.054  13.320 -0.0227 -0.1268  0.1723
13998TIP3    H263410   1.345   4.108  13.259  0.3045  1.1307  0.5685
13999TIP3   OH263411   6.615   3.725  13.909 -0.0760  0.6673 -0.1599
13999TIP3    H163412   6.601   3.630  13.914  2.4084  0.0938 -1.9128
13999TIP3    H263413   6.566   3.752  13.831  0.1484  0.5873 -0.3309
14000TIP3   OH263414   5.781   4.809   4.899 -0.0045  0.3260 -0.2758
14000TIP3    H163415   5.858   4.859   4.873  0.1575 -0.4157 -1.2912
14000TIP3    H263416   5.734   4.866   4.960  1.2054  0.8860  0.1523
14001TIP3   OH263417   5.700   0.567   0.900  0.2483  0.0054  0.2514
14001TIP3    H163418   5.661   0.652   0.876 -1.8943 -0.4131  1.9265
14001TIP3    H263419   5.704   0.569   0.996  0.5187 -1.6355  0.2981
14002TIP3   OH263420   0.078   4.926   6.781 -0.6967 -0.1170 -0.0492
14002TIP3    H163421   0.129   4.992   6.829 -0.7910 -0.5525  0.6571
14002TIP3    H263422  -0.005   4.969   6.763  0.2562  1.0109 -2.1831
14003TIP3   OH263423   2.181   5.723   5.200 -0.2287 -0.2572 -0.3957
14003TIP3    H163424   2.159   5.767   5.118  1.4968 -0.0339 -0.7710
14003TIP3    H263425   2.239   5.784   5.245 -0.6745 -0.6436  0.7410
14004TIP3   OH263426   4.569   1.505  16.283 -0.5989  0.4907  0.4392
14004TIP3    H163427   4.513   1.573  16.246 -0.3432  1.0894  1.1223
14004TIP3    H263428   4.510   1.452  16.338 -0.6977  0.4665  0.3094
14005TIP3   OH263429   6.003   1.151  13.412 -0.1837 -1.1346  0.2580
14005TIP3    H163430   6.093   1.155  13.445  0.6847 -1.3450 -1.9683
14005TIP3    H263431   5.983   1.240  13.385  0.8042 -1.7005 -2.7143
14006TIP3   OH263432   4.880   6.676   3.746  0.2401 -0.4746  0.0330
14006TIP3    H163433   4.911   6.587   3.757 -1.1512 -1.2079 -1.5237
14006TIP3    H263434   4.787   6.667   3.726 -0.0216  1.3470  0.2154
14007TIP3   OH263435   2.728   5.057   2.555 -0.1826 -0.0001  0.0838
14007TIP3    H163436   2.673   4.997   2.606 -2.1354  0.3026 -1.5160
14007TIP3    H263437   2.809   5.064   2.605 -1.5407 -0.5787  2.5385
14008TIP3   OH263438   5.723   2.014   2.178  0.4846  0.1367  0.3301
14008TIP3    H163439   5.766   2.098   2.162  1.3834 -0.2577  0.6244
14008TIP3    H263440   5.631   2.031   2.157  0.9512  0.6652 -1.5551
14009TIP3   OH263441   5.216   3.842  13.436  0.1137 -0.4986 -0.3252
14009TIP3    H163442   5.237   3.921  13.385 -0.5246 -0.6109 -0.7791
14009TIP3    H263443   5.294   3.787  13.428  0.6300  0.1520  0.1333
14010TIP3   OH263444   6.200   3.012   0.601 -0.1637  0.5036  0.0124
14010TIP3    H163445   6.198   3.076   0.672 -1.2096  2.2000 -1.4505
14010TIP3    H263446   6.123   2.958   0.616  1.6614 -1.7011  2.2598
14011TIP3   OH263447   3.619   0.464   2.563  0.3118 -0.1025 -0.0125
14011TIP3    H163448   3.560   0.537   2.544 -0.6566 -1.1444 -1.1296
14011TIP3    H263449   3.706   0.499   2.543 -0.3514 -0.0732 -3.5160
14012TIP3   OH263450   3.292   4.823   5.455  0.7502 -0.1034 -0.0382
14012TIP3    H163451   3.384   4.799   5.464  0.7739  0.1812  0.5749
14012TIP3    H263452   3.246   4.760   5.511  0.5712 -0.2712 -0.3763
14013TIP3   OH263453   0.536   2.716   0.723 -0.2768 -0.6803 -0.2132
14013TIP3    H163454   0.523   2.621   0.716 -0.8778 -0.6491  0.3849
14013TIP3    H263455   0.622   2.725   0.764  0.9119 -0.9138 -2.4910
14014TIP3   OH263456   1.337   6.480  12.874  0.6434 -0.0802 -1.2304
14014TIP3    H163457   1.383   6.511  12.952 -0.7003  0.1598 -0.4955
14014TIP3    H263458   1.245   6.478  12.900 -0.1520  2.1710 -3.4733
14015TIP3   OH263459   0.337   4.023   1.308 -0.0508  0.2931 -0.3924
14015TIP3    H163460   0.392   4.084   1.260  0.9118  0.2571  0.6343
14015TIP3    H263461   0.334   4.058   1.397  0.8970 -1.3640  0.3445
14016TIP3   OH263462   2.490   5.483  17.052 -0.1989 -0.1332 -0.1607
14016TIP3    H163463   2.571   5.444  17.085 -0.0320  0.9146  0.7152
14016TIP3    H263464   2.438   5.502  17.130 -0.6387  0.5962 -0.6180
14017TIP3   OH263465   3.423   4.363  15.091  0.1142  0.2462 -0.0794
14017TIP3    H163466   3.513   4.355  15.121  0.0148 -0.2380  0.1075
14017TIP3    H263467   3.429   4.403  15.005  0.4615  0.8976  0.2391
14018TIP3   OH263468   3.156   2.690  13.791  0.2890 -0.0019 -0.7522
14018TIP3    H163469   3.144   2.700  13.697 -1.5268 -1.7037 -0.7798
14018TIP3    H263470   3.233   2.633  13.799  0.1295 -0.2911 -1.2267
14019TIP3   OH263471   0.850   4.930  14.875 -0.7570  0.5399  0.2442
14019TIP3    H163472   0.779   4.903  14.817 -0.8188 -0.4383  0.7512
14019TIP3    H263473   0.805   4.969  14.951 -0.8334 -0.9923  1.0306
14020TIP3   OH263474   0.118   2.860  11.757 -0.0719  0.2768  0.2214
14020TIP3    H163475   0.145   2.773  11.787  0.0351 -0.6739 -2.4214
14020TIP3    H263476   0.200   2.910  11.753  0.0321  0.1416  0.5721
14021TIP3   OH263477   6.146   6.228  16.389  0.4982 -0.1706 -0.0493
14021TIP3    H163478   6.187   6.185  16.314  0.8334 -1.3456  0.7696
14021TIP3    H263479   6.185   6.185  16.465  0.9957  1.7411  0.8466
14022TIP3   OH263480   0.895   3.961  11.881  0.1811 -0.3321 -0.1715
14022TIP3    H163481   0.888   3.909  11.961 -1.5787  1.1297  0.6876
14022TIP3    H263482   0.975   4.013  11.893  0.7025 -1.1526 -0.0243
14023TIP3   OH263483   6.377   0.702  13.440  0.2984  0.6157  0.1317
14023TIP3    H163484   6.469   0.723  13.456  0.0201  1.1350  1.1524
14023TIP3    H263485   6.330   0.738  13.516 -0.7052  0.0416 -0.1860
14024TIP3   OH263486   5.614   4.886   4.574  0.4030 -0.1283  0.2771
14024TIP3    H163487   5.539   4.895   4.632  0.6348  0.3395  0.5061
14024TIP3    H263488   5.626   4.972   4.535 -0.2079 -0.6224 -1.0444
14025TIP3   OH263489   5.828   4.146  15.030 -0.9175 -0.1140 -0.5060
14025TIP3    H163490   5.805   4.134  14.938 -0.2470  0.1742 -0.7131
14025TIP3    H263491   5.760   4.098  15.078 -0.6717 -1.1687 -1.1806
14026TIP3   OH263492   6.599   5.162  11.200 -0.9497  0.2685  0.0068
14026TIP3    H163493   6.689   5.185  11.176 -0.6674 -0.0546  0.7403
14026TIP3    H263494   6.569   5.105  11.129  0.3394 -1.7890  1.0426
14027TIP3   OH263495   0.740   3.028   3.080 -0.2876  0.4920  0.6872
14027TIP3    H163496   0.722   3.120   3.062 -2.0893  0.2761  1.2297
14027TIP3    H263497   0.753   3.024   3.175  2.9444  0.6316  0.3650
14028TIP3   OH263498   3.812   2.355   1.713 -0.0493  0.4271 -0.3985
14028TIP3    H163499   3.739   2.339   1.773 -0.6606  0.5654 -1.0881
14028TIP3    H263500   3.858   2.429   1.751  1.0301 -1.0050  1.2104
14029TIP3   OH263501   1.105   1.686   0.545  0.1014  0.2328 -0.5803
14029TIP3    H163502   1.024   1.736   0.550  1.2592  2.1437  0.2731
14029TIP3    H263503   1.132   1.692   0.454  0.0639  0.8863 -0.5478
14030TIP3   OH263504   5.991   0.586  16.323  0.4500 -0.2779 -0.3933
14030TIP3    H163505   6.065   0.563  16.378  0.7366 -0.2850 -0.7761
14030TIP3    H263506   6.008   0.541  16.240 -0.3723 -0.9257 -0.2287
14031TIP3   OH263507   4.374   5.963  12.704  0.5041  0.0018  0.6978
14031TIP3    H163508   4.312   6.023  12.664 -0.7067 -0.6663  1.5172
14031TIP3    H263509   4.439   5.946  12.636 -0.7335 -0.0222 -0.5041
14032TIP3   OH263510   6.736   5.073  11.479  0.4092  0.1599 -0.2800
14032TIP3    H163511   6.749   4.984  11.512 -0.2001 -0.4148 -1.5087
14032TIP3    H263512   6.699   5.061  11.392  0.5856  1.6261 -0.5893
14033TIP3   OH263513   1.831   4.943  17.010 -0.7985 -0.6758 -0.0240
14033TIP3    H163514   1.749   4.902  17.040 -1.5919  0.2074 -0.9161
14033TIP3    H263515   1.813   4.969  16.920 -0.8162  2.7788  0.8233
14034TIP3   OH263516   2.406   6.048  15.696 -0.3118 -0.2643  0.7245
14034TIP3    H163517   2.392   6.074  15.605  1.1813 -2.6245 -0.2792
14034TIP3    H263518   2.464   6.115  15.732 -1.8645  1.3469  0.3780
14035TIP3   OH263519   5.509   5.237  16.990  0.6231 -0.1269  0.3316
14035TIP3    H163520   5.438   5.229  17.053  0.5355 -1.7816  0.0646
14035TIP3    H263521   5.562   5.310  17.022 -0.9726  0.8965  0.7289
14036TIP3   OH263522   6.448   6.254  13.649 -0.5418  1.4383  0.9164
14036TIP3    H163523   6.528   6.220  13.609  0.1411  0.7197  2.7718
14036TIP3    H263524   6.378   6.229  13.588  0.6791  2.9157 -1.2395
14037TIP3   OH263525   5.472   0.693  14.293 -0.3626  0.4590 -0.3945
14037TIP3    H163526   5.379   0.716  14.290 -0.3786  0.3737 -0.5472
14037TIP3    H263527   5.516   0.769  14.254 -0.2497  1.1280  0.9483
14038TIP3   OH263528   0.295   3.464  15.789 -0.2158 -0.3088 -0.0247
14038TIP3    H163529   0.287   3.369  15.776  0.5687 -0.3068 -0.6254
14038TIP3    H263530   0.227   3.485  15.852 -0.0291 -1.3739  0.5694
14039TIP3   OH263531   6.473   6.337  13.323 -0.1666  0.3443 -0.2953
14039TIP3    H163532   6.401   6.275  13.309 -0.4674  0.7567 -0.6340
14039TIP3    H263533   6.463   6.401  13.252  0.6100  0.3412 -0.4127
14040TIP3   OH263534   1.450   0.381  15.212 -0.3029 -0.3297 -0.3409
14040TIP3    H163535   1.368   0.365  15.166 -1.1377 -2.8229  1.7604
14040TIP3    H263536   1.518   0.360  15.148 -1.2438  1.4758 -2.0163
14041TIP3   OH263537   0.770   4.671   1.835 -0.2857 -0.1377  0.3198
14041TIP3    H163538   0.707   4.741   1.850  2.1477  2.0931  0.8398
14041TIP3    H263539   0.778   4.628   1.920 -0.2118  0.3860  0.5852
14042TIP3   OH263540   3.829   6.535   4.646 -0.0752  0.4329 -0.5530
14042TIP3    H163541   3.739   6.564   4.660 -0.1263 -0.3616  0.9966
14042TIP3    H263542   3.823   6.471   4.574 -0.6827  0.6420 -0.6927
14043TIP3   OH263543   5.020   4.755  11.232  0.0121  0.0142 -0.0900
14043TIP3    H163544   4.995   4.793  11.148  0.6079  1.0209  0.1695
14043TIP3    H263545   4.954   4.687  11.248 -1.3994  1.2706 -0.3416
14044TIP3   OH263546   4.036   0.816   3.833  0.3379 -0.2451  0.4571
14044TIP3    H163547   4.061   0.734   3.877 -1.4948 -1.2771 -0.3085
14044TIP3    H263548   3.946   0.832   3.861 -0.8860 -0.8981 -2.6723
14045TIP3   OH263549   2.624   5.228  12.187  0.3664 -0.5705  0.3791
14045TIP3    H163550   2.600   5.304  12.135  0.0549 -0.5858  0.4974
14045TIP3    H263551   2.543   5.178  12.195  0.5312 -0.8300  0.4425
14046TIP3   OH263552   0.063   2.765  15.194 -0.2702 -0.3720 -0.1039
14046TIP3    H163553   0.082   2.854  15.224  0.0641 -0.9104  1.3658
14046TIP3    H263554   0.040   2.775  15.102 -1.0511  1.3477  0.2414
14047TIP3   OH263555   3.033   6.690   4.310  0.2035  0.0067  0.1148
14047TIP3    H163556   3.001   6.725   4.227  1.0052 -0.5724 -0.4470
14047TIP3    H263557   3.124   6.668   4.294  0.9093  1.5796  1.6899
14048TIP3   OH263558   0.509   4.972  10.867  0.7410  0.6553 -0.0271
14048TIP3    H163559   0.557   4.892  10.891 -0.7682 -0.1296  0.4914
14048TIP3    H263560   0.573   5.042  10.879  2.4220 -0.5446 -1.4585
14049TIP3   OH263561   3.314   1.412  16.479 -0.3941  0.2230 -0.1182
14049TIP3    H163562   3.306   1.319  16.500 -0.6568 -0.1504 -1.6797
14049TIP3    H263563   3.375   1.447  16.544  0.5592 -1.2858 -0.1473
14050TIP3   OH263564   0.047   1.586   4.374 -0.1040  0.4239  0.2138
14050TIP3    H163565   0.114   1.536   4.329 -1.2004  1.2727 -2.5414
14050TIP3    H263566   0.031   1.662   4.319 -3.1200  0.4025  0.8461
14051TIP3   OH263567   6.092   5.446   6.553  0.1851 -0.5001 -0.2902
14051TIP3    H163568   6.134   5.390   6.489 -0.6723 -1.2482 -0.2172
14051TIP3    H263569   6.092   5.395   6.634 -0.4037 -0.3202 -0.1663
14052TIP3   OH263570   1.373   0.868  13.325  0.1569 -0.6912 -0.5487
14052TIP3    H163571   1.431   0.941  13.301 -0.0088 -0.8186 -1.3428
14052TIP3    H263572   1.286   0.895  13.295  0.0078 -1.0151 -0.4177
14053TIP3   OH263573   2.588   0.985  14.316 -0.1424 -0.0241  0.0638
14053TIP3    H163574   2.506   0.973  14.363  0.1065  0.0048  0.5115
14053TIP3    H263575   2.656   0.969  14.382  0.2216  2.1723  0.2787
14054TIP3   OH263576   5.819   0.379   4.865  0.5822  0.0360 -0.4961
14054TIP3    H163577   5.815   0.466   4.825  2.2727 -0.2328 -1.3255
14054TIP3    H263578   5.899   0.340   4.829 -0.3326 -2.0070 -0.4087
14055TIP3   OH263579   2.578   5.853   1.354  0.1381 -0.2730 -0.3457
14055TIP3    H163580   2.505   5.794   1.375  0.1902 -0.6257 -1.1242
14055TIP3    H263581   2.657   5.802   1.371  0.1821 -0.5006 -1.1879
14056TIP3   OH263582   3.066   5.903  15.327  0.3006 -0.0919  0.2445
14056TIP3    H163583   3.006   5.927  15.256 -0.2328 -1.3326  0.2330
14056TIP3    H263584   3.045   5.963  15.398  0.7729  1.1050 -0.5998
14057TIP3   OH263585   2.549   5.448   0.864  0.6052 -0.0458  0.7214
14057TIP3    H163586   2.478   5.397   0.827  0.4243 -0.0827  1.1107
14057TIP3    H263587   2.616   5.384   0.886 -0.4692 -0.4368  3.2013
14058TIP3   OH263588   3.241   3.893   0.048 -0.3542  0.3089 -0.3397
14058TIP3    H163589   3.214   3.855  -0.035 -0.6222 -0.8032  0.2405
14058TIP3    H263590   3.311   3.836   0.079 -2.4518 -1.3070  1.7618
14059TIP3   OH263591   2.857   3.359  17.141 -0.3801  0.4686  0.0813
14059TIP3    H163592   2.824   3.270  17.157  0.3329 -0.0485 -1.1845
14059TIP3    H263593   2.919   3.375  17.212 -0.7184  0.0598  0.4706
14060TIP3   OH263594   3.414   6.432   3.005 -0.2419  0.0110  0.3166
14060TIP3    H163595   3.431   6.432   3.099  0.7043  0.7971  0.1579
14060TIP3    H263596   3.322   6.455   2.997 -0.7227 -1.5360  1.0959
14061TIP3   OH263597   5.038   2.496   0.282  0.2059  0.8917  0.0630
14061TIP3    H163598   4.950   2.458   0.279  0.5327  0.1376 -0.6625
14061TIP3    H263599   5.067   2.497   0.190  0.6335  1.9204  0.1927
14062TIP3   OH263600   0.230   0.777   5.883 -0.1009 -0.1910  0.5881
14062TIP3    H163601   0.172   0.820   5.946  1.2381 -1.5003  2.8546
14062TIP3    H263602   0.209   0.684   5.890  0.7319 -0.4557 -0.2001
14063TIP3   OH263603   5.654   1.539  11.932  0.4652  0.7799  0.4825
14063TIP3    H163604   5.721   1.474  11.954 -1.1207 -0.4106  2.0732
14063TIP3    H263605   5.586   1.490  11.886  0.8180  2.0579 -1.5320
14064TIP3   OH263606   0.454   4.348   2.480 -0.0715 -0.6184 -0.9418
14064TIP3    H163607   0.413   4.387   2.557  2.5154 -0.5060  0.5130
14064TIP3    H263608   0.482   4.423   2.428 -0.6173 -0.6693 -1.3113
14065TIP3   OH263609   3.284   1.761   2.676 -0.5772 -0.2405  0.4952
14065TIP3    H163610   3.318   1.814   2.604  0.3620 -0.3941  0.8086
14065TIP3    H263611   3.358   1.706   2.702 -1.5585 -1.7564  0.1363
14066TIP3   OH263612   1.807   4.378  16.113 -0.0634  0.1911  0.2901
14066TIP3    H163613   1.830   4.469  16.095 -0.5511  0.2133 -0.2311
14066TIP3    H263614   1.869   4.351  16.181 -0.8340  1.3350  1.4867
14067TIP3   OH263615   1.327   4.424  13.043 -0.0566 -0.1662  0.1871
14067TIP3    H163616   1.232   4.426  13.046 -0.0814 -0.1701 -0.4752
14067TIP3    H263617   1.350   4.475  12.965  0.6067  2.2230  1.8255
14068TIP3   OH263618   6.702   3.946  14.453  0.1382  0.1239 -0.0451
14068TIP3    H163619   6.694   3.933  14.548  1.3984 -0.7333 -0.0374
14068TIP3    H263620   6.620   3.910  14.417  0.4425 -1.2749  0.5822
14069TIP3   OH263621   1.152   3.118   6.629  0.7511  0.2824 -0.8498
14069TIP3    H163622   1.079   3.121   6.566 -1.8447  0.8338  1.9542
14069TIP3    H263623   1.159   3.025   6.652 -0.4809  0.4354  0.2864
14070TIP3   OH263624   2.428   3.964   1.958  0.4689 -0.0769 -0.1289
14070TIP3    H163625   2.466   3.977   1.871 -0.9891 -1.5814 -1.0603
14070TIP3    H263626   2.346   3.918   1.941  0.9930 -2.0156  2.1681
14071TIP3   OH263627   6.393   0.318   4.816 -0.9734 -0.5557 -0.4917
14071TIP3    H163628   6.413   0.258   4.744  0.0430  0.5304 -1.1588
14071TIP3    H263629   6.420   0.271   4.895  0.0397 -0.8891 -1.0234
14072TIP3   OH263630   4.235   3.854  13.004 -0.2686 -0.3440  0.5530
14072TIP3    H163631   4.156   3.846  12.950  0.9507 -3.4898 -1.0188
14072TIP3    H263632   4.301   3.888  12.943  0.5811 -1.8299  0.6031
14073TIP3   OH263633   3.312   5.103   0.355  0.4106 -0.0504 -0.0674
14073TIP3    H163634   3.394   5.066   0.388  0.1155 -0.7209 -0.0643
14073TIP3    H263635   3.316   5.091   0.261  0.9487  1.2430 -0.2284
14074TIP3   OH263636   2.911   1.469   2.002  0.2363 -0.0390  0.2634
14074TIP3    H163637   2.898   1.497   2.093 -0.9441 -0.4047  0.2365
14074TIP3    H263638   2.846   1.399   1.990 -1.2628  1.5413 -1.5291
14075TIP3   OH263639   4.710   0.648   1.326 -0.4988  0.8208  0.0107
14075TIP3    H163640   4.763   0.727   1.328  0.9826 -0.1246 -0.4110
14075TIP3    H263641   4.685   0.637   1.235  1.2235 -0.3929 -0.3532
14076TIP3   OH263642   4.397   4.642   0.448 -0.1376  0.2139 -0.3408
14076TIP3    H163643   4.346   4.561   0.438 -1.3101  1.1073 -1.9000
14076TIP3    H263644   4.468   4.633   0.385  0.3373 -0.0321  0.2199
14077TIP3   OH263645   0.038   2.576   2.218 -0.1301  0.2675 -0.0470
14077TIP3    H163646   0.090   2.550   2.141 -2.1462 -0.6207 -1.1893
14077TIP3    H263647   0.042   2.500   2.276 -0.3996  0.0868 -0.2657
14078TIP3   OH263648   6.604   0.836  13.989  0.1221 -0.9171  0.0065
14078TIP3    H163649   6.540   0.839  14.060 -0.3975 -0.1070 -0.4862
14078TIP3    H263650   6.577   0.761  13.936 -1.0476  0.0160 -0.7621
14079TIP3   OH263651   3.226   6.619  15.988  0.8819  0.4397  0.5060
14079TIP3    H163652   3.172   6.540  15.987 -1.0848  1.7081  0.7240
14079TIP3    H263653   3.264   6.620  16.076  1.8384 -0.7926  0.1456
14080TIP3   OH263654   5.634   6.526  12.410  0.2801 -0.0473  0.0252
14080TIP3    H163655   5.627   6.594  12.343 -0.0417 -0.0338  0.0727
14080TIP3    H263656   5.707   6.471  12.380 -0.5138 -0.6486 -0.8895
14081TIP3   OH263657   2.723   6.780   1.503  0.3052 -0.8400 -0.0011
14081TIP3    H163658   2.707   6.703   1.557  0.8846  0.0576  1.5343
14081TIP3    H263659   2.791   6.829   1.551 -0.7101  1.0886 -0.4254
14082TIP3   OH263660   3.046   5.483   5.430  0.1877 -0.8545  0.7143
14082TIP3    H163661   3.075   5.393   5.451  1.2354 -0.7412 -0.1511
14082TIP3    H263662   3.090   5.503   5.347 -0.9735  0.0380  0.2967
14083TIP3   OH263663   0.482   3.904   2.119  0.8148 -0.2190  0.2868
14083TIP3    H163664   0.406   3.847   2.114  0.8961 -0.3182  0.1849
14083TIP3    H263665   0.544   3.856   2.175  0.0010  0.7660  2.1412
14084TIP3   OH263666   0.009   1.764  11.720  0.2899  0.7870 -0.4656
14084TIP3    H163667   0.008   1.743  11.626  0.2342  0.6417 -0.4323
14084TIP3    H263668  -0.082   1.784  11.741  0.4769  1.9647 -0.6982
14085TIP3   OH263669   4.058   0.077   4.558 -0.1660 -0.8716  0.6135
14085TIP3    H163670   4.049   0.162   4.602  2.6966 -0.0897 -0.0932
14085TIP3    H263671   4.103   0.022   4.623  2.8113 -0.1289 -0.6370
14086TIP3   OH263672   2.079   1.260   4.620  0.2392  0.3541 -0.4028
14086TIP3    H163673   1.985   1.246   4.611  0.2810 -1.0015  0.8408
14086TIP3    H263674   2.106   1.197   4.687  1.8401  1.4828  0.0796
14087TIP3   OH263675   5.010   5.175  15.453  0.1487 -0.1930 -0.1441
14087TIP3    H163676   5.050   5.225  15.524  0.1120  0.2242 -0.4130
14087TIP3    H263677   5.084   5.145  15.400  0.2299 -1.1512  0.4780
14088TIP3   OH263678   5.170   2.529  14.856 -0.3776  0.4636 -0.1476
14088TIP3    H163679   5.107   2.570  14.796 -1.7754  0.5338  1.3154
14088TIP3    H263680   5.168   2.583  14.934  1.1660  0.1728  0.1267
14089TIP3   OH263681   3.495   5.169   5.361 -0.3655  0.2259  0.1135
14089TIP3    H163682   3.470   5.222   5.436  0.0778 -0.4101  0.7270
14089TIP3    H263683   3.432   5.097   5.360 -0.6507  0.4782 -0.4049
14090TIP3   OH263684   4.548   5.574  12.408 -0.2431  0.4784 -0.3982
14090TIP3    H163685   4.559   5.488  12.368 -0.7386  0.6849 -0.9936
14090TIP3    H263686   4.568   5.561  12.501  1.3701  0.0766 -0.7703
14091TIP3   OH263687   4.707   3.822  15.684  0.2786 -0.1068 -0.2109
14091TIP3    H163688   4.693   3.730  15.707  0.2633  0.0781  0.5333
14091TIP3    H263689   4.620   3.862  15.688  0.0957 -0.2894 -1.6524
14092TIP3   OH263690   5.536   0.479  15.302 -0.0722 -0.1356 -0.0961
14092TIP3    H163691   5.464   0.473  15.365  1.0544  1.1440  1.3712
14092TIP3    H263692   5.554   0.388  15.278  0.5164 -0.8454  2.6734
14093TIP3   OH263693   0.975   6.675   3.174  1.0833 -0.3701  0.4064
14093TIP3    H163694   0.942   6.609   3.236  0.0849 -0.2378  0.0404
14093TIP3    H263695   1.067   6.687   3.198  0.7475 -0.3968  1.7943
14094TIP3   OH263696   6.255   0.372   0.849 -0.7619  0.2349 -0.0348
14094TIP3    H163697   6.288   0.461   0.836  0.1665  0.4814  3.3091
14094TIP3    H263698   6.178   0.383   0.905 -1.6677 -1.0103 -0.9660
14095TIP3   OH263699   1.734   4.123   2.632  0.6694  0.2403  0.1908
14095TIP3    H163700   1.698   4.201   2.673 -0.3131  1.1860 -2.2599
14095TIP3    H263701   1.784   4.156   2.557  3.3425 -1.3097  1.1563
14096TIP3   OH263702   4.555   6.744  15.350  0.0727  0.0543  0.1519
14096TIP3    H163703   4.612   6.778  15.281 -0.4430  3.6332  1.2871
14096TIP3    H263704   4.546   6.817  15.412 -0.9327 -2.3686  3.1114
14097TIP3   OH263705   2.996   0.500   5.620  0.1837  0.8620 -0.6481
14097TIP3    H163706   2.984   0.423   5.565  1.4184 -0.8176  1.2827
14097TIP3    H263707   3.090   0.501   5.641 -0.2456  1.2218  1.5952
14098TIP3   OH263708   2.738   0.909  13.569  0.3582 -0.8045  0.0643
14098TIP3    H163709   2.809   0.853  13.601  0.0178 -1.1931  0.1532
14098TIP3    H263710   2.680   0.919  13.644  1.0556  0.7347  0.4321
14099TIP3   OH263711   0.628   6.797   1.884  0.2510 -0.2964  0.1698
14099TIP3    H163712   0.707   6.775   1.836  1.0671 -1.0391  1.7717
14099TIP3    H263713   0.653   6.788   1.976 -1.4636  0.2877  0.7268
14100TIP3   OH263714   1.056   1.442   5.859 -0.9842 -0.2448  0.0706
14100TIP3    H163715   1.088   1.499   5.930  0.5167 -0.2256 -0.5717
14100TIP3    H263716   0.984   1.490   5.820 -1.4689 -0.0035  1.2232
14101TIP3   OH263717   6.431   5.079  12.410 -0.3792 -0.1745 -0.7016
14101TIP3    H163718   6.474   5.113  12.489 -0.4622 -1.7969  0.0899
14101TIP3    H263719   6.445   5.147  12.344  0.5645  0.7857  0.4303
14102TIP3   OH263720   6.109   5.180   3.531 -0.2116  0.1500  0.0233
14102TIP3    H163721   6.203   5.170   3.549  0.0987 -0.2192 -1.6096
14102TIP3    H263722   6.067   5.110   3.580  0.2557  0.8201  1.4427
14103TIP3   OH263723   4.910   1.980   2.232  0.5587  0.2278 -0.0815
14103TIP3    H163724   4.831   1.967   2.283  1.0782  0.2656  0.7550
14103TIP3    H263725   4.920   2.075   2.228 -0.3456  0.2830 -1.6404
14104TIP3   OH263726   2.596   1.461  14.854 -0.3902  0.3619 -0.6006
14104TIP3    H163727   2.578   1.536  14.798  1.3394  1.4276  0.1780
14104TIP3    H263728   2.608   1.498  14.942 -1.1225 -1.0352  0.1386
14105TIP3   OH263729   0.280   3.282  16.036 -0.2336 -0.1160  0.0595
14105TIP3    H163730   0.349   3.321  15.983  1.3613 -0.2815  1.9280
14105TIP3    H263731   0.285   3.188  16.018 -0.2510 -0.0849 -0.1094
14106TIP3   OH263732   3.685   3.905  14.770  0.3550  0.0607 -0.0944
14106TIP3    H163733   3.660   3.931  14.681 -0.2578 -0.3318 -0.0379
14106TIP3    H263734   3.650   3.975  14.826 -3.1577 -1.7737  0.2882
14107TIP3   OH263735   5.628   1.849  10.928 -0.1716 -0.2634  0.2242
14107TIP3    H163736   5.630   1.755  10.910 -0.8237 -0.0826 -0.8488
14107TIP3    H263737   5.660   1.890  10.848 -1.6972  0.5081 -0.0194
14108TIP3   OH263738   5.907   4.675   0.996  0.1404 -0.3192  0.2213
14108TIP3    H163739   5.995   4.664   1.032 -0.0410 -0.2092  0.6916
14108TIP3    H263740   5.858   4.601   1.031  0.5428 -1.5421 -1.6149
14109TIP3   OH263741   5.040   2.877   0.175  0.9453  0.5069 -0.1484
14109TIP3    H163742   5.136   2.874   0.174  0.9596  0.2870  0.6912
14109TIP3    H263743   5.014   2.842   0.090  1.6045 -0.6039  0.0778
14110TIP3   OH263744   4.584   2.023   6.140 -0.1261  0.0966  0.5527
14110TIP3    H163745   4.529   1.957   6.097 -1.8656  1.7077  0.1894
14110TIP3    H263746   4.531   2.055   6.213  0.5487  1.3384  0.5219
14111TIP3   OH263747   2.282   5.518  12.095  1.2709 -0.0291  0.2222
14111TIP3    H163748   2.288   5.582  12.024  2.3440  0.7097  0.9426
14111TIP3    H263749   2.213   5.551  12.152 -0.7089 -1.4464 -1.2188
14112TIP3   OH263750   3.053   4.935  15.496  1.1898 -0.0057  0.6651
14112TIP3    H163751   3.037   4.972  15.583 -0.9782  1.9857 -0.4789
14112TIP3    H263752   3.010   4.850  15.498  0.3960  0.4021  1.2763
14113TIP3   OH263753   1.265   4.157  13.066 -0.1930  0.1924  0.1623
14113TIP3    H163754   1.315   4.237  13.051  2.7121 -1.3222  1.0009
14113TIP3    H263755   1.174   4.186  13.070  0.7289  3.4344  0.5094
14114TIP3   OH263756   5.921   2.673  11.296  0.1641 -0.0325  0.4037
14114TIP3    H163757   5.832   2.638  11.297 -0.9404  2.5633  0.4419
14114TIP3    H263758   5.910   2.768  11.284  3.0170  0.1285 -2.3216
14115TIP3   OH263759   1.028   3.723  14.103 -0.4924 -0.2614 -0.4723
14115TIP3    H163760   1.074   3.751  14.024 -1.4124 -0.1211 -0.9694
14115TIP3    H263761   1.089   3.662  14.145  0.2278  0.0665 -1.0071
14116TIP3   OH263762   6.447   4.549   0.590 -0.0465  0.0175 -0.3908
14116TIP3    H163763   6.466   4.596   0.508  0.4956  0.0431 -0.2581
14116TIP3    H263764   6.489   4.464   0.578 -1.5784 -0.7067 -0.8956
14117TIP3   OH263765   0.459   5.409   5.387 -0.5299 -0.3746 -0.1860
14117TIP3    H163766   0.472   5.442   5.298 -0.8332 -0.1748 -0.1556
14117TIP3    H263767   0.436   5.316   5.375 -0.8277 -0.2828 -0.3293
14118TIP3   OH263768   2.177   2.028   0.571 -0.5207 -0.1975 -0.5300
14118TIP3    H163769   2.255   1.992   0.614 -0.4117 -1.2291 -1.5354
14118TIP3    H263770   2.106   2.012   0.633 -0.6541 -3.0738 -1.2708
14119TIP3   OH263771   6.204   1.195   4.922 -0.3094 -0.5245  0.0521
14119TIP3    H163772   6.199   1.158   5.010  0.0486 -2.1432 -0.5539
14119TIP3    H263773   6.172   1.124   4.865  1.9232 -0.5258 -1.3206
14120TIP3   OH263774   4.600   2.194   0.351 -0.0379  0.1912  0.1757
14120TIP3    H163775   4.611   2.142   0.272 -2.3583 -0.3790  0.1621
14120TIP3    H263776   4.563   2.134   0.415  2.2326  0.5032  1.9416
14121TIP3   OH263777   2.581   1.842   6.474  0.5558 -0.2650  0.1763
14121TIP3    H163778   2.492   1.808   6.466  0.6652 -0.4831 -0.1551
14121TIP3    H263779   2.637   1.767   6.456  0.8040  0.0056 -0.1991
14122TIP3   OH263780   0.764   3.668   2.808  0.0769 -0.0372 -0.1378
14122TIP3    H163781   0.806   3.614   2.741  1.0297 -0.4258  0.7510
14122TIP3    H263782   0.834   3.689   2.870 -0.4152  1.6581 -0.0890
14123TIP3   OH263783   2.655   1.747   3.353  0.1404 -0.1510 -1.2141
14123TIP3    H163784   2.735   1.711   3.392 -2.1122 -3.6305  0.7348
14123TIP3    H263785   2.622   1.677   3.296 -3.5605 -0.7398  1.3070
14124TIP3   OH263786   5.045   5.073   6.352  0.5472 -0.3574 -0.2131
14124TIP3    H163787   5.124   5.041   6.397 -0.0924  0.7874  1.8075
14124TIP3    H263788   5.053   5.168   6.354 -0.3577 -0.2476 -1.0239
14125TIP3   OH263789   1.763   2.448  11.455 -0.7114 -0.0195 -0.3622
14125TIP3    H163790   1.698   2.459  11.524 -1.5021 -1.8486 -0.7499
14125TIP3    H263791   1.733   2.506  11.385 -0.4210  1.1440  0.4554
14126TIP3   OH263792   6.482   1.269   4.831 -0.3529 -0.0715  0.0449
14126TIP3    H163793   6.404   1.237   4.876  1.3915 -2.0347  1.8981
14126TIP3    H263794   6.518   1.191   4.789  1.1629  0.5614  0.1303
14127TIP3   OH263795   1.217   1.881   4.802 -0.0235 -0.2157 -0.0837
14127TIP3    H163796   1.296   1.892   4.750 -0.5418  0.7346 -0.7032
14127TIP3    H263797   1.238   1.923   4.886 -0.5950  2.1160 -1.0281
14128TIP3   OH263798   5.266   5.962   5.684  0.7893  0.3514 -0.6309
14128TIP3    H163799   5.201   5.964   5.754  1.4943  2.0854  0.0507
14128TIP3    H263800   5.349   5.948   5.730  1.0532 -0.5304 -1.3531
14129TIP3   OH263801   0.144   2.860   6.968  0.7467 -0.3524  0.0310
14129TIP3    H163802   0.153   2.953   6.951  2.2722 -0.1403  1.6669
14129TIP3    H263803   0.234   2.826   6.966  0.3475 -1.5408  0.6842
14130TIP3   OH263804   3.864   2.049  16.876 -0.1439  0.2829  0.2013
14130TIP3    H163805   3.806   2.121  16.902  0.4862  0.9335 -0.1620
14130TIP3    H263806   3.810   1.993  16.821 -1.5418 -1.1378  2.8129
14131TIP3   OH263807   0.122   1.412   0.914  0.0564 -0.0908  0.0578
14131TIP3    H163808   0.193   1.364   0.872  0.2344  0.2739 -0.0581
14131TIP3    H263809   0.085   1.467   0.845  0.6188  0.8208  0.4682
14132TIP3   OH263810   2.565   4.769  11.340 -0.2214 -0.2825 -0.7502
14132TIP3    H163811   2.469   4.760  11.341 -0.2270 -0.2175 -0.5451
14132TIP3    H263812   2.593   4.724  11.261 -0.5476  0.9323 -1.5848
14133TIP3   OH263813   5.035   0.190   3.421 -0.4899 -0.0497  0.1019
14133TIP3    H163814   4.956   0.245   3.424 -0.1520  0.4593 -0.1736
14133TIP3    H263815   5.034   0.142   3.504  0.6536  2.4234  1.6531
14134TIP3   OH263816   3.962   5.679  14.224 -0.1229  0.3769 -0.0051
14134TIP3    H163817   3.912   5.598  14.216 -0.6480  0.3402  2.6559
14134TIP3    H263818   4.052   5.655  14.202 -0.8083 -0.0109 -2.8565
14135TIP3   OH263819   6.769   2.748  16.868  0.0292  0.1282  0.2032
14135TIP3    H163820   6.857   2.767  16.900 -0.1143  0.0237  0.6573
14135TIP3    H263821   6.770   2.653  16.850 -0.4390 -0.1597  1.6135
14136TIP3   OH263822   1.210   2.642   3.347 -0.4045  0.5294 -0.7513
14136TIP3    H163823   1.131   2.589   3.343 -0.2001  0.0673  0.7530
14136TIP3    H263824   1.188   2.715   3.405 -0.2507  1.3552 -1.7038
14137TIP3   OH263825   0.522   5.231  15.851 -0.2278  0.4537 -0.4986
14137TIP3    H163826   0.583   5.253  15.921  0.2080 -0.4144 -0.5883
14137TIP3    H263827   0.537   5.297  15.784  1.2006 -0.1850 -0.8574
14138TIP3   OH263828   0.150   2.393  16.062  0.5160 -0.2467  0.7277
14138TIP3    H163829   0.230   2.343  16.048  0.0716 -0.5346 -0.9917
14138TIP3    H263830   0.083   2.326  16.078 -0.0478 -0.2661 -1.4183
14139TIP3   OH263831   5.629   2.347  16.908  0.5005 -0.1479  0.2032
14139TIP3    H163832   5.689   2.296  16.854  0.5917 -0.3584  0.5057
14139TIP3    H263833   5.544   2.304  16.895  0.6718 -0.7163  0.8761
14140TIP3   OH263834   0.680   0.176   5.493  0.3846 -0.1342  0.2804
14140TIP3    H163835   0.685   0.152   5.586  0.8842  0.4808  0.4167
14140TIP3    H263836   0.754   0.235   5.480 -0.6994  1.1688 -0.1059
14141TIP3   OH263837   1.047   6.084  14.011  0.0261  0.5743 -0.0660
14141TIP3    H163838   1.018   6.166  13.970  0.4228  0.3259 -0.8407
14141TIP3    H263839   1.035   6.017  13.944 -0.0670  0.0285  0.4857
14142TIP3   OH263840   6.550   3.809  12.532  1.1821  0.0794  0.0209
14142TIP3    H163841   6.594   3.726  12.512  1.3421 -0.4454  2.2610
14142TIP3    H263842   6.505   3.792  12.615  1.1639  2.2234  0.4940
14143TIP3   OH263843   1.368   3.272   5.038 -0.1696  0.0100  0.3639
14143TIP3    H163844   1.424   3.340   5.077 -1.3664  0.1021  2.0320
14143TIP3    H263845   1.418   3.191   5.052  0.5728  0.3471 -0.2473
14144TIP3   OH263846   0.671   4.403   2.734  0.0003 -0.6174 -0.4588
14144TIP3    H163847   0.607   4.474   2.722 -0.6400 -1.2833 -1.0893
14144TIP3    H263848   0.749   4.435   2.689 -0.3776 -0.4281 -0.9971
14145TIP3   OH263849   0.138   4.521   1.378  0.0761 -0.1219  0.2687
14145TIP3    H163850   0.114   4.428   1.387 -1.0908  0.2453  1.2000
14145TIP3    H263851   0.056   4.565   1.356  0.7023  0.6509 -0.6120
14146TIP3   OH263852   6.460   3.432  14.412 -0.2745 -0.3062 -0.0434
14146TIP3    H163853   6.407   3.376  14.355 -1.6687  1.0293 -0.1555
14146TIP3    H263854   6.474   3.512  14.361  1.4869 -0.4369  0.1817
14147TIP3   OH263855   3.103   2.260   2.666  0.1851 -0.1327 -0.2618
14147TIP3    H163856   3.020   2.222   2.692  0.1991  0.3452  0.5090
14147TIP3    H263857   3.169   2.211   2.714  0.3072 -0.1431 -0.4389
14148TIP3   OH263858   1.221   3.720  10.670 -0.0940  0.3702 -0.4711
14148TIP3    H163859   1.181   3.762  10.746 -0.3333  1.2433 -1.0675
14148TIP3    H263860   1.272   3.647  10.706 -1.0711  0.1131  0.4230
14149TIP3   OH263861   2.375   0.670   2.086 -0.1200 -0.2448  0.5814
14149TIP3    H163862   2.393   0.614   2.011  0.6100  1.6367 -0.7190
14149TIP3    H263863   2.282   0.658   2.103 -0.5086 -0.0410 -1.2184
14150TIP3   OH263864   0.230   3.600   0.581 -0.0845 -0.1867  0.0668
14150TIP3    H163865   0.140   3.574   0.559  0.4812 -1.2804 -1.0349
14150TIP3    H263866   0.258   3.652   0.506 -0.0878  0.9543  0.8264
14151TIP3   OH263867   0.592   0.311  13.563 -0.3294 -0.3445 -0.3983
14151TIP3    H163868   0.683   0.339  13.562 -0.9450  1.9943  0.4981
14151TIP3    H263869   0.578   0.268  13.479  0.9205  1.7253 -1.7415
14152TIP3   OH263870   0.129   4.115  13.403  0.2935  0.4411  0.1054
14152TIP3    H163871   0.222   4.138  13.401  0.6507 -0.9008  0.3277
14152TIP3    H263872   0.119   4.066  13.485 -0.5408  0.2934 -0.0816
14153TIP3   OH263873   6.041   1.053   2.025 -0.2062 -0.2696 -0.2470
14153TIP3    H163874   6.068   1.119   1.961 -1.5510  0.3319 -0.2254
14153TIP3    H263875   5.991   0.989   1.974  0.3882 -0.8531 -0.1214
14154TIP3   OH263876   2.466   4.551   2.616 -0.7246 -0.0219  0.8940
14154TIP3    H163877   2.406   4.491   2.571  0.3516  0.6260 -1.5513
14154TIP3    H263878   2.549   4.504   2.620  0.0111  1.0709 -0.6444
14155TIP3   OH263879   4.878   1.681   2.459  0.1206 -0.3747  0.2465
14155TIP3    H163880   4.922   1.596   2.455  0.0007 -0.4567  0.6324
14155TIP3    H263881   4.948   1.744   2.470  0.0449 -0.7110  3.7117
14156TIP3   OH263882   1.558   6.506  16.466 -0.3277  0.1327  0.1015
14156TIP3    H163883   1.511   6.536  16.544 -0.3436  2.8246 -0.8529
14156TIP3    H263884   1.646   6.542  16.475 -0.2189  0.1620 -0.9407
14157TIP3   OH263885   6.378   6.454   1.114  0.3089 -0.5040  0.5990
14157TIP3    H163886   6.415   6.366   1.109  1.0682 -0.1699  0.2199
14157TIP3    H263887   6.284   6.441   1.096  0.4787 -1.1906  0.1652
14158TIP3   OH263888   0.402   0.566   0.657 -0.1385  0.0511  0.4066
14158TIP3    H163889   0.308   0.577   0.672 -0.1112  1.2346 -0.1847
14158TIP3    H263890   0.441   0.573   0.744 -0.7721 -3.1170  1.0690
14159TIP3   OH263891   1.773   4.556   1.144  0.3271 -0.1913  0.2527
14159TIP3    H163892   1.766   4.630   1.204 -1.7929 -0.9771  1.0545
14159TIP3    H263893   1.737   4.588   1.061 -2.0932 -0.6786  1.0247
14160TIP3   OH263894   5.522   1.230  13.468  0.8889  0.3940  0.4283
14160TIP3    H163895   5.567   1.147  13.454 -1.4724 -0.8429 -0.3955
14160TIP3    H263896   5.492   1.256  13.381 -0.2575  0.9866  0.9775
14161TIP3   OH263897   0.570   0.348   1.455  0.3073 -0.1172 -0.1404
14161TIP3    H163898   0.570   0.252   1.450  0.8927 -0.3035  2.1778
14161TIP3    H263899   0.649   0.370   1.503 -0.7888  1.3819  1.0898
14162TIP3   OH263900   3.975   0.183  14.652 -0.3949  0.3061  0.3277
14162TIP3    H163901   4.046   0.247  14.659  0.7034 -0.8609  0.3149
14162TIP3    H263902   4.005   0.122  14.585 -1.4580 -0.1653  0.2674
14163TIP3   OH263903   0.788   1.279   4.505  0.6612  0.0921  0.1296
14163TIP3    H163904   0.841   1.238   4.574  2.2461  1.7850 -0.0117
14163TIP3    H263905   0.727   1.335   4.553 -0.9984 -1.7097  0.2812
14164TIP3   OH263906   6.474   0.068   0.585  0.0523 -0.3494 -0.1915
14164TIP3    H163907   6.378   0.063   0.588  0.0203  0.5763  1.0573
14164TIP3    H263908   6.495   0.150   0.630  1.4422 -0.6286 -0.2970
14165TIP3   OH263909   4.272   4.529   3.206 -0.5792  0.3510 -0.6132
14165TIP3    H163910   4.262   4.455   3.267 -2.3523  0.6770 -0.4611
14165TIP3    H263911   4.309   4.489   3.127  2.5856  0.0494  0.8523
14166TIP3   OH263912   4.315   2.164   0.983 -0.2428  0.0069  0.4460
14166TIP3    H163913   4.349   2.248   1.012  1.3512 -0.2962 -0.4375
14166TIP3    H263914   4.347   2.154   0.893  0.0392 -1.7614  0.6928
14167TIP3   OH263915   3.830   4.886  15.961 -0.6322 -0.1731  0.1004
14167TIP3    H163916   3.843   4.951  15.892 -0.0938 -1.4438 -1.0398
14167TIP3    H263917   3.761   4.923  16.016  1.6082  2.7025  1.2062
14168TIP3   OH263918   6.418   0.031   5.723  0.0595  0.2687  0.3764
14168TIP3    H163919   6.437  -0.024   5.799 -0.0394  0.6307  0.6629
14168TIP3    H263920   6.502   0.071   5.700  0.4257 -0.9941 -0.6364
14169TIP3   OH263921   1.911   1.685  11.290 -0.0274 -0.4772 -0.0318
14169TIP3    H163922   1.846   1.751  11.267  0.0336  0.0142  1.1216
14169TIP3    H263923   1.969   1.681  11.214  1.4795  2.6916  0.7426
14170TIP3   OH263924   0.617   3.274  17.023 -0.2326 -0.2305  0.6091
14170TIP3    H163925   0.662   3.210  16.969 -1.6340 -0.0895 -0.7932
14170TIP3    H263926   0.639   3.250  17.113  0.5523 -1.6865  0.0496
14171TIP3   OH263927   6.612   3.788  16.502 -0.0673  0.1459 -0.2129
14171TIP3    H163928   6.604   3.697  16.528  0.6639  0.1464  0.0386
14171TIP3    H263929   6.599   3.838  16.583 -1.6176  0.3392 -0.5363
14172TIP3   OH263930   5.773   2.584   4.002 -0.3173  0.3163  0.1093
14172TIP3    H163931   5.706   2.527   4.039  1.4488 -2.0749 -0.1105
14172TIP3    H263932   5.853   2.563   4.051  0.5363  2.3463 -0.2777
14173TIP3   OH263933   0.456   2.489  13.951 -0.1328  0.2422  0.2299
14173TIP3    H163934   0.370   2.448  13.947  0.4148 -0.8581 -1.3897
14173TIP3    H263935   0.443   2.568  14.004 -1.9850 -0.2148  0.5236
14174TIP3   OH263936   0.363   2.876  15.237  1.0300  0.1687  0.4144
14174TIP3    H163937   0.353   2.781  15.245  0.8450  0.2789  1.7695
14174TIP3    H263938   0.275   2.910  15.247  1.2565  0.5417  1.2683
14175TIP3   OH263939   2.533   1.040  13.740 -0.3726  0.3203 -0.2611
14175TIP3    H163940   2.515   1.067  13.650 -1.4499  1.6738  0.3227
14175TIP3    H263941   2.460   0.984  13.765  0.8615 -1.6320 -0.7996
14176TIP3   OH263942   4.929   2.820  13.201 -0.3186 -0.3726 -0.2750
14176TIP3    H163943   4.908   2.729  13.221 -0.6047  0.0984  1.8379
14176TIP3    H263944   4.844   2.862  13.187 -0.2826 -0.1382  0.1936
14177TIP3   OH263945   6.387   2.905   4.907 -0.0692 -0.2709  1.4134
14177TIP3    H163946   6.342   2.825   4.935  2.4518 -1.7516  1.6339
14177TIP3    H263947   6.353   2.973   4.964 -0.3196 -1.7744  3.1600
14178TIP3   OH263948   4.087   0.735  14.274 -1.0744 -0.4609  0.0880
14178TIP3    H163949   4.023   0.753  14.343 -1.4155  0.1525 -0.3695
14178TIP3    H263950   4.046   0.769  14.194 -1.1513 -2.0904 -0.6170
14179TIP3   OH263951   3.456   0.021  16.662 -0.1878 -0.4946  0.4222
14179TIP3    H163952   3.416  -0.046  16.607  0.3345 -0.9436  0.5780
14179TIP3    H263953   3.486   0.088  16.600 -1.3182 -0.0618  0.3163
14180TIP3   OH263954   3.529   2.300  16.704  0.4559 -0.3479 -0.4487
14180TIP3    H163955   3.467   2.306  16.632  0.9256  0.3747 -0.8066
14180TIP3    H263956   3.614   2.318  16.664  0.7315 -0.0214  0.2702
14181TIP3   OH263957   4.395   4.115  12.840  0.1462  0.2775 -0.0672
14181TIP3    H163958   4.330   4.182  12.818 -0.6526 -1.0449 -1.9930
14181TIP3    H263959   4.479   4.160  12.830 -0.3992  1.4865  0.5399
14182TIP3   OH263960   0.772   2.829   6.348  0.1702 -0.3671 -0.4767
14182TIP3    H163961   0.795   2.853   6.437 -0.4461 -1.2122 -0.0833
14182TIP3    H263962   0.699   2.886   6.325 -0.5981 -1.1079  0.0762
14183TIP3   OH263963   5.055   6.342   4.913  0.1970  0.3423  0.1031
14183TIP3    H163964   4.960   6.337   4.916  0.2396 -0.4468  0.4070
14183TIP3    H263965   5.083   6.327   5.004  0.6042  0.7487  0.0494
14184TIP3   OH263966   3.405   4.294  11.945 -0.2721  0.4054  0.5150
14184TIP3    H163967   3.480   4.244  11.914  0.2895  0.2993  1.9872
14184TIP3    H263968   3.339   4.228  11.965 -0.2815  0.4023  0.4732
14185TIP3   OH263969   0.436   2.906   5.680 -0.2625  0.1314 -0.1690
14185TIP3    H163970   0.422   2.864   5.595 -0.9860 -1.9996  0.9349
14185TIP3    H263971   0.349   2.934   5.707 -0.0863  0.4604  0.0610
14186TIP3   OH263972   1.656   0.729   4.119  1.0883  0.6465  0.2613
14186TIP3    H163973   1.650   0.783   4.198 -2.4016  0.7555  0.0771
14186TIP3    H263974   1.619   0.783   4.050 -1.5686 -1.5097 -0.1313
14187TIP3   OH263975   4.398   4.137   3.649  0.5011  0.2317 -0.6022
14187TIP3    H163976   4.433   4.092   3.726 -1.0813 -0.8992 -0.4900
14187TIP3    H263977   4.427   4.083   3.575 -0.7834 -0.6111 -0.5207
14188TIP3   OH263978   3.389   5.365  15.986 -0.0729  0.4181 -0.2578
14188TIP3    H163979   3.433   5.402  15.909  0.4228  1.2520  0.4060
14188TIP3    H263980   3.301   5.402  15.983 -1.5458 -2.8481 -2.7295
14189TIP3   OH263981   0.788   3.895   3.432  0.2652  0.3302  0.5658
14189TIP3    H163982   0.698   3.869   3.415  0.6715 -1.0645  0.4268
14189TIP3    H263983   0.841   3.824   3.395  1.4681  1.6538 -0.3681
14190TIP3   OH263984   1.824   5.725   5.694 -0.0900 -0.3467 -0.0035
14190TIP3    H163985   1.852   5.759   5.609  0.0854 -0.7599 -0.1142
14190TIP3    H263986   1.729   5.736   5.694 -0.0938 -0.3694 -0.2664
14191TIP3   OH263987   2.662   1.346   5.278  0.5003 -0.3163  0.1517
14191TIP3    H163988   2.579   1.384   5.307  1.0971  0.5870  0.7415
14191TIP3    H263989   2.728   1.399   5.321  1.3917 -0.9912 -0.3587
14192TIP3   OH263990   5.385   0.640  13.948 -0.3277  0.0505 -0.1869
14192TIP3    H163991   5.349   0.615  14.033 -1.0863  0.7521 -0.2825
14192TIP3    H263992   5.330   0.714  13.920  0.9018  0.8424 -0.5712
14193TIP3   OH263993   1.799   0.778   3.499  0.2677  0.0506  0.9541
14193TIP3    H163994   1.784   0.694   3.541  0.7484  0.0994  1.2263
14193TIP3    H263995   1.838   0.833   3.567 -0.3196  0.5891  0.8703
14194TIP3   OH263996   3.999   0.137  16.590 -0.5219 -0.1959 -0.5147
14194TIP3    H163997   3.964   0.189  16.517 -0.9448  0.8515  0.4026
14194TIP3    H263998   3.928   0.136  16.654  0.6607  0.9583  0.8827
14195TIP3   OH263999   1.341   2.910  10.637 -0.3598 -0.0062  0.2112
14195TIP3    H164000   1.306   2.892  10.550  0.7357  0.9160 -0.4494
14195TIP3    H264001   1.276   2.873  10.697 -1.5808  0.1114 -0.9782
14196TIP3   OH264002   1.307   1.452  16.525  0.8865  0.0134  0.3298
14196TIP3    H164003   1.308   1.543  16.497 -0.3261  0.4561  1.6224
14196TIP3    H264004   1.386   1.414  16.486  0.0764  0.9215 -2.3990
14197TIP3   OH264005   6.574   6.773  16.678  0.3651 -0.1173 -0.1323
14197TIP3    H164006   6.498   6.715  16.669  0.5645 -0.1384 -2.0807
14197TIP3    H264007   6.559   6.842  16.614  1.8277  0.0494 -0.3289
14198TIP3   OH264008   1.981   2.746  14.475 -0.1580 -0.0646  0.0218
14198TIP3    H164009   2.071   2.729  14.445  0.1551  1.0038  0.2901
14198TIP3    H264010   1.947   2.660  14.500  1.0413 -0.3977  0.5924
14199TIP3   OH264011   0.654   4.504   4.795  0.1315  0.1148  0.0050
14199TIP3    H164012   0.649   4.492   4.890 -0.0828 -0.5790 -0.0898
14199TIP3    H264013   0.667   4.416   4.760  0.8396  0.4349 -0.5745
14200TIP3   OH264014   0.150   2.690  15.446 -0.2238 -0.6991  0.1001
14200TIP3    H164015   0.115   2.767  15.490  1.3856  0.6752 -0.9349
14200TIP3    H264016   0.108   2.689  15.360  0.1695 -0.6594 -0.0949
14201TIP3   OH264017   0.200   0.702  16.479 -0.5142  0.0145 -0.0813
14201TIP3    H164018   0.193   0.795  16.499  0.2352  0.5535 -2.0741
14201TIP3    H264019   0.293   0.682  16.489 -0.4974 -0.2503 -0.7529
14202TIP3   OH264020   6.600   6.420   3.196 -0.2688 -0.0111 -0.1487
14202TIP3    H164021   6.566   6.455   3.113  0.6332 -1.8609 -1.3640
14202TIP3    H264022   6.531   6.440   3.260 -1.4871  0.5140 -1.5583
14203TIP3   OH264023   0.753   1.017   5.630 -0.3167 -0.1865 -1.2680
14203TIP3    H164024   0.795   0.973   5.704 -2.1433 -0.2145 -0.1973
14203TIP3    H264025   0.774   0.961   5.555 -0.1919 -1.3234 -0.4198
14204TIP3   OH264026   1.378   5.491  14.969 -0.9043  0.2833  0.9852
14204TIP3    H164027   1.458   5.542  14.972 -1.2143  1.1978 -2.4299
14204TIP3    H264028   1.349   5.486  15.060  2.2927  1.0224  2.1491
14205TIP3   OH264029   5.506   2.468  16.524  0.2071  0.1462  0.1302
14205TIP3    H164030   5.417   2.502  16.534  0.5176  1.3650 -0.9305
14205TIP3    H264031   5.562   2.534  16.565  0.8257  0.9617 -1.8966
14206TIP3   OH264032   2.848   2.156  14.680  0.2730 -0.1971  0.3626
14206TIP3    H164033   2.869   2.077  14.630 -0.1171 -0.4744  0.6329
14206TIP3    H264034   2.789   2.206  14.624 -1.4621 -1.2587  1.1487
14207TIP3   OH264035   6.656   2.993  10.461  0.4206  0.0262 -0.9547
14207TIP3    H164036   6.595   2.919  10.455  0.1980  0.2339 -1.3261
14207TIP3    H264037   6.740   2.954  10.482 -0.3069 -0.0908  2.4638
14208TIP3   OH264038   6.647   4.408  10.952 -0.0910 -0.1171 -0.5629
14208TIP3    H164039   6.690   4.337  10.998 -0.6306 -0.6187 -0.8253
14208TIP3    H264040   6.561   4.373  10.928 -0.1822  0.4602 -1.1019
14209TIP3   OH264041   2.193   5.450   4.224 -0.6819  0.2375 -0.5990
14209TIP3    H164042   2.278   5.487   4.201 -1.3731  2.4674  0.1606
14209TIP3    H264043   2.192   5.365   4.181  1.3064  0.8023 -1.9314
14210TIP3   OH264044   5.963   1.357  11.627 -0.1768  0.5155  0.1257
14210TIP3    H164045   5.982   1.343  11.535  1.5161  0.4319  0.4646
14210TIP3    H264046   5.898   1.290  11.649 -2.0672  1.7102 -1.4106
14211TIP3   OH264047   0.322   1.494   1.618  0.0480  0.2417  0.6634
14211TIP3    H164048   0.314   1.553   1.543 -2.0962 -1.3612 -0.4791
14211TIP3    H264049   0.365   1.416   1.582 -0.2263 -0.2180  1.3180
14212TIP3   OH264050   5.783   0.994  12.799  0.1629 -0.2484 -0.1174
14212TIP3    H164051   5.765   1.001  12.705 -1.2723 -0.7669  0.0825
14212TIP3    H264052   5.755   0.906  12.822  0.2326 -0.0292  0.8494
14213TIP3   OH264053   2.826   2.797   3.620 -0.7441  0.0215  0.0504
14213TIP3    H164054   2.887   2.748   3.565 -1.3132 -0.0578 -0.5260
14213TIP3    H264055   2.758   2.733   3.643 -1.0092  0.2973  0.0508
14214TIP3   OH264056   5.829   3.880   4.704 -0.3275  0.3939  0.0153
14214TIP3    H164057   5.871   3.966   4.696 -2.0280  1.2077 -0.8036
14214TIP3    H264058   5.854   3.834   4.624  1.5143 -0.3491  0.9744
14215TIP3   OH264059   5.280   2.160   1.785 -0.9949  0.1621  1.1962
14215TIP3    H164060   5.317   2.239   1.826 -2.4476  1.2733  0.4506
14215TIP3    H264061   5.335   2.145   1.708 -1.4414  1.2018  0.6533
14216TIP3   OH264062   3.632   6.168   1.176 -0.3563 -0.5172  0.1656
14216TIP3    H164063   3.726   6.159   1.190 -0.6726 -2.5062  1.3743
14216TIP3    H264064   3.592   6.139   1.258 -2.0437 -1.0978 -0.8062
14217TIP3   OH264065   5.629   1.656  13.845  0.3636  0.0823  0.2394
14217TIP3    H164066   5.608   1.564  13.860  1.4278 -0.6914 -2.5000
14217TIP3    H264067   5.708   1.671  13.897  0.6774 -0.8030  0.0327
14218TIP3   OH264068   3.585   4.621   3.615 -0.4133  0.0632  0.3134
14218TIP3    H164069   3.552   4.709   3.595 -0.9213  0.5360  2.8098
14218TIP3    H264070   3.671   4.636   3.655  0.0735 -0.7060 -0.4049
14219TIP3   OH264071   6.371   3.022   1.252  0.4863  0.7928  0.3725
14219TIP3    H164072   6.389   3.044   1.344 -0.6149  0.6613  0.6291
14219TIP3    H264073   6.457   3.024   1.210  1.0028  0.8721  1.4024
14220TIP3   OH264074   5.949   2.622   1.248  0.3303 -0.9201  0.0871
14220TIP3    H164075   5.947   2.527   1.258 -0.3670 -1.2477 -2.5238
14220TIP3    H264076   5.873   2.653   1.298 -1.3443 -2.0980 -1.5961
14221TIP3   OH264077   1.905   5.815   0.827  0.0199 -0.2221  0.2890
14221TIP3    H164078   1.902   5.870   0.906  0.9309 -1.1703  1.0232
14221TIP3    H264079   1.814   5.810   0.797 -0.0271  2.0828 -0.1146
14222TIP3   OH264080   3.562   5.030   0.041  0.2237 -0.2710  0.1311
14222TIP3    H164081   3.586   5.094   0.108  0.8642 -1.3050  0.9080
14222TIP3    H264082   3.550   5.083  -0.039 -1.3742  1.0910  1.2094
14223TIP3   OH264083   1.107   0.723  13.898  0.0286 -0.1602 -0.4377
14223TIP3    H164084   1.092   0.654  13.962  2.7808  1.2727  1.9714
14223TIP3    H264085   1.027   0.776  13.901 -1.1146 -1.7887 -0.5199
14224TIP3   OH264086   3.233   2.675  12.271  0.4447  0.3272 -0.7268
14224TIP3    H164087   3.302   2.717  12.322 -1.0911  1.8938  0.1371
14224TIP3    H264088   3.224   2.588  12.310  2.0537 -0.0001 -1.0051
14225TIP3   OH264089   6.047   3.210  14.246 -0.1804 -0.3221  0.1580
14225TIP3    H164090   6.042   3.274  14.317  0.5014  0.2973 -0.3399
14225TIP3    H264091   5.960   3.211  14.207  0.3038  1.6753 -0.9999
14226TIP3   OH264092   2.673   2.625  16.521  0.1478  0.2679 -0.7937
14226TIP3    H164093   2.701   2.536  16.499  1.0300  0.5080 -0.6748
14226TIP3    H264094   2.753   2.677  16.517 -0.6088  1.3923 -2.5338
14227TIP3   OH264095   5.612   5.875  12.334  0.5736  0.0498 -0.3755
14227TIP3    H164096   5.621   5.866  12.429 -0.7038  0.2888 -0.2179
14227TIP3    H264097   5.616   5.786  12.301 -2.1565 -0.3921  0.2388
14228TIP3   OH264098   6.392   4.361   0.921  0.3389  0.6977  0.2106
14228TIP3    H164099   6.412   4.287   0.864  0.9806  0.0569  1.2437
14228TIP3    H264100   6.304   4.388   0.895  0.3631  0.0116 -0.6330
14229TIP3   OH264101   6.014   4.047   2.530 -0.1908 -0.3193  0.2309
14229TIP3    H164102   6.001   4.084   2.443  0.6455 -0.6129 -0.0286
14229TIP3    H264103   6.076   4.106   2.573 -2.1946  1.0226  1.4254
14230TIP3   OH264104   2.625   0.897  11.992  0.2974  0.4721 -0.1283
14230TIP3    H164105   2.541   0.872  12.030  0.0638  1.7997  0.2544
14230TIP3    H264106   2.630   0.846  11.911 -0.8508  0.3473 -0.1378
14231TIP3   OH264107   6.674   5.031   5.775 -0.6051 -0.3740 -0.1670
14231TIP3    H164108   6.731   5.030   5.852 -3.4516  0.2410  2.1402
14231TIP3    H264109   6.690   4.947   5.732  3.3517  0.5565 -0.8332
14232TIP3   OH264110   1.643   2.074  16.922  0.2344  0.1104  0.0092
14232TIP3    H164111   1.630   2.001  16.862 -0.0988  0.7113 -0.6660
14232TIP3    H264112   1.561   2.123  16.918  0.8662  1.1721 -0.4719
14233TIP3   OH264113   3.710   5.849   2.912  0.6978 -0.1459 -0.1696
14233TIP3    H164114   3.680   5.761   2.889  0.0951  0.2905 -1.1211
14233TIP3    H264115   3.805   5.844   2.909  0.6802 -0.9318  0.4336
14234TIP3   OH264116   3.625   4.862   0.967  0.6424 -0.2158  0.2796
14234TIP3    H164117   3.679   4.795   0.925  1.3362  0.8340 -0.5281
14234TIP3    H264118   3.632   4.842   1.061  1.0097 -1.1397  0.0687
14235TIP3   OH264119   4.236   4.252  13.404  0.4228 -0.2064  0.5949
14235TIP3    H164120   4.222   4.252  13.309  0.7357 -0.6722  0.5454
14235TIP3    H264121   4.323   4.215  13.415  0.0012 -1.0720  1.1210
14236TIP3   OH264122   0.834   5.988   2.701  0.6996  0.4115 -0.5972
14236TIP3    H164123   0.760   5.939   2.737 -1.1024  2.3377 -1.4380
14236TIP3    H264124   0.805   6.015   2.614  2.0309  1.9872 -0.6023
14237TIP3   OH264125   0.236   2.912   4.228 -0.2293  0.1278  0.2804
14237TIP3    H164126   0.192   2.993   4.251 -2.5141 -0.8667 -0.2948
14237TIP3    H264127   0.270   2.927   4.140 -0.1173  0.6321  0.4071
14238TIP3   OH264128   2.145   4.563  11.086  0.2077 -0.3364 -0.0250
14238TIP3    H164129   2.218   4.600  11.037 -0.4737 -0.9147 -1.5455
14238TIP3    H264130   2.184   4.494  11.139  0.9281  0.1040  0.0335
14239TIP3   OH264131   5.792   5.001  15.411 -0.2196 -0.5463  0.5594
14239TIP3    H164132   5.788   5.093  15.385 -1.4274 -1.1704 -1.8402
14239TIP3    H264133   5.718   4.961  15.364  0.6106 -2.8247  1.0969
14240TIP3   OH264134   6.620   1.558  12.718 -0.3268 -0.6712  0.1042
14240TIP3    H164135   6.677   1.481  12.715 -0.3092 -0.6588 -2.4995
14240TIP3    H264136   6.577   1.559  12.633 -1.3711  1.4470  0.5858
14241TIP3   OH264137   6.038   3.473   4.319 -0.1893 -0.1107 -0.1775
14241TIP3    H164138   5.990   3.545   4.277 -0.8934 -1.0037 -0.9265
14241TIP3    H264139   6.125   3.476   4.279  0.0627  0.8362  0.4012
14242TIP3   OH264140   6.405   2.954   3.881  0.1082 -0.1246 -0.9137
14242TIP3    H164141   6.351   3.012   3.934 -0.4199 -0.4888 -1.0354
14242TIP3    H264142   6.494   2.988   3.889  0.0421 -0.1919  0.2211
14243TIP3   OH264143   1.014   6.422   4.764  0.0937  0.4296 -0.2334
14243TIP3    H164144   1.067   6.364   4.709 -1.5062  0.3272 -1.7622
14243TIP3    H264145   1.052   6.509   4.751  1.3056  0.0455  0.5577
14244TIP3   OH264146   5.140   3.145   2.030  0.0497 -0.1459 -0.2888
14244TIP3    H164147   5.222   3.102   2.052 -0.0859  0.8198  2.5053
14244TIP3    H264148   5.072   3.086   2.063 -0.4206 -0.6079 -1.9575
14245TIP3   OH264149   5.717   0.882  11.518 -0.5419 -0.0112  0.0819
14245TIP3    H164150   5.729   0.793  11.485 -3.4127 -0.4670 -0.0381
14245TIP3    H264151   5.718   0.937  11.440  1.1333  0.1102  0.1461
14246TIP3   OH264152   1.678   1.616  12.697 -0.7235  0.6446  0.2316
14246TIP3    H164153   1.760   1.575  12.724 -0.6768 -0.9474 -2.0861
14246TIP3    H264154   1.627   1.621  12.777  0.7826 -0.3803  1.3181
14247TIP3   OH264155   6.334   2.026   6.036  0.4692 -0.1260 -0.1603
14247TIP3    H164156   6.395   2.098   6.020  0.1763  0.0939 -0.3115
14247TIP3    H264157   6.381   1.966   6.093 -0.1007  1.3074  1.8998
14248TIP3   OH264158   5.224   4.072   3.672 -0.1501 -0.2811  0.6021
14248TIP3    H164159   5.206   4.162   3.699  0.3921 -0.2401  0.8538
14248TIP3    H264160   5.320   4.066   3.675 -0.2036 -1.6623  3.3035
14249TIP3   OH264161   3.936   5.012  15.524 -0.5428 -0.0607 -0.5836
14249TIP3    H164162   4.014   5.062  15.500 -0.8516  0.6646 -0.1209
14249TIP3    H264163   3.954   4.923  15.493 -0.6089  0.6367 -2.7986
14250TIP3   OH264164   1.486   4.448  14.267  0.3497 -0.3033  0.2847
14250TIP3    H164165   1.402   4.478  14.233  0.8257  1.4026  0.5550
14250TIP3    H264166   1.533   4.417  14.190 -0.1459 -0.3421 -0.0069
14251TIP3   OH264167   6.668   3.749  12.020 -0.2496 -0.8296 -0.3758
14251TIP3    H164168   6.603   3.693  11.978 -1.0118  0.2497 -0.6422
14251TIP3    H264169   6.715   3.689  12.079 -1.9359 -1.4966  0.3573
14252TIP3   OH264170   0.965   3.332   3.885  0.6762  0.0512 -0.1163
14252TIP3    H164171   0.936   3.333   3.976 -0.6075 -0.8022 -0.4856
14252TIP3    H264172   0.907   3.393   3.840  0.6315 -0.2946 -0.5388
14253TIP3   OH264173   6.503   3.164   5.901  0.1509  0.0225 -0.1917
14253TIP3    H164174   6.465   3.082   5.932 -0.8024  1.2927  2.2240
14253TIP3    H264175   6.594   3.142   5.880 -0.3909 -1.8713 -0.7475
14254TIP3   OH264176   1.243   6.349   3.119  0.5810  0.1531 -0.4495
14254TIP3    H164177   1.237   6.421   3.055 -0.0096  0.2459 -0.2982
14254TIP3    H264178   1.183   6.375   3.189  0.9154 -0.1463 -0.0512
14255TIP3   OH264179   3.646   4.092  16.629  0.1350  0.0014 -0.1364
14255TIP3    H164180   3.589   4.056  16.561  1.2197 -2.9000  0.3567
14255TIP3    H264181   3.617   4.049  16.710  2.2066 -0.6861  0.3095
14256TIP3   OH264182   4.317   0.216  12.947  0.4790 -0.0883  0.5765
14256TIP3    H164183   4.377   0.169  13.005 -1.5990 -1.3780  1.8271
14256TIP3    H264184   4.305   0.158  12.872  0.0546 -0.3046  0.8055
14257TIP3   OH264185   3.112   4.936  14.349  0.1597 -0.1207 -0.3935
14257TIP3    H164186   3.115   4.847  14.313 -2.3918 -0.3364 -0.2541
14257TIP3    H264187   3.193   4.943  14.399  1.9356 -1.2061 -2.9009
14258TIP3   OH264188   4.940   3.858   0.011  0.2800 -0.0245 -0.3913
14258TIP3    H164189   4.874   3.901   0.066  1.3032 -1.4339  2.0782
14258TIP3    H264190   4.915   3.766   0.010  0.3100 -0.0625 -2.3776
14259TIP3   OH264191   1.724   2.570  11.171 -0.0541 -0.4534 -0.0104
14259TIP3    H164192   1.639   2.603  11.201  0.3947  0.5197  0.2277
14259TIP3    H264193   1.759   2.640  11.116 -0.5589 -1.9391 -2.3402
14260TIP3   OH264194   2.768   2.605  14.026 -0.5677  0.0582 -0.0860
14260TIP3    H164195   2.744   2.685  14.073 -4.7499 -0.8998 -0.1890
14260TIP3    H264196   2.757   2.536  14.091  2.5287 -0.5916 -0.1348
14261TIP3   OH264197   4.962   1.318   4.873 -0.2986  0.3838 -0.6349
14261TIP3    H164198   4.899   1.246   4.881 -1.4311  1.4259  0.0116
14261TIP3    H264199   5.023   1.304   4.946 -2.3413  1.8017  1.4701
14262TIP3   OH264200   0.360   4.084   1.621  0.3973  0.0511 -0.1060
14262TIP3    H164201   0.293   4.016   1.607  0.1983  0.3289 -0.5045
14262TIP3    H264202   0.361   4.097   1.716 -1.2327  1.1552 -0.1999
14263TIP3   OH264203   0.417   1.778  11.698 -0.2529  0.5361  0.5621
14263TIP3    H164204   0.438   1.799  11.606 -0.2531 -0.9009  0.2141
14263TIP3    H264205   0.329   1.812  11.710 -0.8414 -0.5682 -0.4420
14264TIP3   OH264206   6.532   5.752   5.995  0.5009 -0.0158  0.4344
14264TIP3    H164207   6.478   5.722   5.922 -1.7787  2.7147  0.8485
14264TIP3    H264208   6.511   5.692   6.067  0.3601 -0.7865 -0.2274
14265TIP3   OH264209   5.242   2.649   5.747 -0.0127 -0.4162  0.2921
14265TIP3    H164210   5.309   2.598   5.701  1.8341  3.1775 -1.4260
14265TIP3    H264211   5.171   2.658   5.683 -1.1734 -2.1640  1.2425
14266TIP3   OH264212   0.166   6.002   2.415  0.2158  0.2229  0.2263
14266TIP3    H164213   0.135   6.059   2.485 -0.5164  1.8255 -1.3175
14266TIP3    H264214   0.219   5.935   2.459  0.2831  1.5199  2.2153
14267TIP3   OH264215   1.157   4.922  16.418  0.1674 -0.2817 -0.2498
14267TIP3    H164216   1.173   4.932  16.511 -0.9047  1.2094 -0.1992
14267TIP3    H264217   1.244   4.919  16.379  0.6604 -2.0497  0.8664
14268TIP3   OH264218   5.675   5.133   3.063 -0.4403  0.1450 -0.0013
14268TIP3    H164219   5.630   5.077   3.127 -0.3277  0.6898  0.5685
14268TIP3    H264220   5.690   5.215   3.110  0.6974  0.1481 -0.3427
14269TIP3   OH264221   3.149   1.580  15.484  0.2195 -0.3387  0.2157
14269TIP3    H164222   3.245   1.578  15.481  0.2549  1.0345 -1.7327
14269TIP3    H264223   3.123   1.488  15.477  1.4555 -0.6016 -3.1621
14270TIP3   OH264224   1.595   2.359  15.921 -0.9178 -0.9876  0.0603
14270TIP3    H164225   1.599   2.273  15.965  2.0152 -2.0277 -1.9111
14270TIP3    H264226   1.590   2.422  15.993 -1.9666 -2.7521  1.6225
14271TIP3   OH264227   0.482   2.185   3.614  0.4170 -0.3617  0.1760
14271TIP3    H164228   0.570   2.207   3.647  0.7225  1.5844 -1.6724
14271TIP3    H264229   0.496   2.166   3.521 -0.9154 -1.8161  0.2360
14272TIP3   OH264230   4.223   5.430  12.623 -0.0828 -0.3720  0.4919
14272TIP3    H164231   4.254   5.504  12.571  0.9112 -2.2501 -1.7677
14272TIP3    H264232   4.128   5.437  12.619 -0.0467 -0.4240 -1.6522
14273TIP3   OH264233   1.946   3.733   5.155  0.1491  0.0464 -0.0861
14273TIP3    H164234   1.888   3.747   5.080  2.0021 -0.9952 -1.7975
14273TIP3    H264235   2.022   3.687   5.119  1.0658 -0.6144  2.4695
14274TIP3   OH264236   1.916   5.293  13.071 -0.2917  0.3832  0.1753
14274TIP3    H164237   1.843   5.312  13.013 -0.6356 -0.2557  0.3907
14274TIP3    H264238   1.945   5.379  13.103 -0.5389  0.6823 -0.3969
14275TIP3   OH264239   3.323   1.365  13.145 -0.0606  0.1028 -0.0709
14275TIP3    H164240   3.407   1.391  13.184 -0.4440  1.2098  0.0376
14275TIP3    H264241   3.297   1.287  13.195  2.0844 -1.8001 -1.7158
14276TIP3   OH264242   3.130   4.407  11.961  0.0543  0.2034 -0.4075
14276TIP3    H164243   3.132   4.411  11.865  0.8511  1.3185 -0.3687
14276TIP3    H264244   3.220   4.388  11.986 -0.3078 -0.9267  0.1182
14277TIP3   OH264245   0.508   0.169  16.216  0.5288 -0.3655  0.3879
14277TIP3    H164246   0.458   0.089  16.201 -2.8031  1.6454 -0.1565
14277TIP3    H264247   0.506   0.180  16.311  0.8526 -0.7862  0.4513
14278TIP3   OH264248   0.260   0.710   3.166  0.3638 -0.4489  0.1750
14278TIP3    H164249   0.306   0.666   3.238  0.7354 -0.8266 -0.2849
14278TIP3    H264250   0.202   0.642   3.131 -0.8133  0.1200  0.9651
14279TIP3   OH264251   3.788   4.196   0.202 -0.7034  0.2081 -0.9095
14279TIP3    H164252   3.772   4.158   0.116  1.3347 -0.5902 -1.0040
14279TIP3    H264253   3.853   4.138   0.242 -1.8638  0.3500  1.3417
14280TIP3   OH264254   6.565   3.001   2.564  0.2262 -0.6662 -0.5770
14280TIP3    H164255   6.524   3.023   2.480 -0.0882  1.2147  0.0347
14280TIP3    H264256   6.657   2.985   2.542  0.0215 -0.8093 -1.3573
14281TIP3   OH264257   3.533   2.309   5.693 -0.5369 -0.3373 -0.1451
14281TIP3    H164258   3.627   2.323   5.707  0.1128 -1.3897 -2.8065
14281TIP3    H264259   3.501   2.393   5.661 -1.0145  0.6244  2.6037
14282TIP3   OH264260   6.322   1.432  14.226  0.4655 -0.6057 -0.0044
14282TIP3    H164261   6.245   1.380  14.248  0.4811 -0.8347 -0.4686
14282TIP3    H264262   6.382   1.420  14.300  0.0760 -0.4642  0.3371
14283TIP3   OH264263   1.620   2.981  13.804 -0.7533  0.6955 -0.0118
14283TIP3    H164264   1.574   2.938  13.876 -1.2935  0.6447 -0.3881
14283TIP3    H264265   1.698   3.019  13.846 -0.9313  0.4541  0.5529
14284TIP3   OH264266   6.136   4.050   3.973 -0.1800  0.2547 -0.7423
14284TIP3    H164267   6.104   4.014   3.890 -0.6720  0.8330 -0.8163
14284TIP3    H264268   6.223   4.013   3.984  0.1829  0.7322 -1.8768
14285TIP3   OH264269   6.774   6.661   2.844  0.3796 -0.0010 -0.7726
14285TIP3    H164270   6.849   6.602   2.830 -0.2666 -0.8687 -0.6838
14285TIP3    H264271   6.804   6.745   2.810  2.1799  0.2425  1.1861
14286TIP3   OH264272   5.635   4.491   1.594  0.2480 -0.3538  0.5301
14286TIP3    H164273   5.670   4.463   1.509  1.5071  0.5887  0.7037
14286TIP3    H264274   5.613   4.410   1.639 -1.6232 -0.8480 -1.1409
14287TIP3   OH264275   0.132   0.928   3.491 -0.4324 -0.1004 -0.1422
14287TIP3    H164276   0.107   0.918   3.399  0.9035  0.5621 -0.5940
14287TIP3    H264277   0.131   1.022   3.506  0.4761 -0.1372  0.1890
14288TIP3   OH264278   4.021   2.033   5.566  0.5641  0.4864  0.1954
14288TIP3    H164279   3.936   1.991   5.578  0.4250  0.8723  0.5699
14288TIP3    H264280   4.080   1.984   5.623  0.3010  1.1036  1.0060
14289TIP3   OH264281   0.473   2.473   1.624 -0.1731  0.1190 -0.3202
14289TIP3    H164282   0.528   2.398   1.646  0.2964  0.7383  0.6942
14289TIP3    H264283   0.535   2.544   1.609 -0.6593  1.3797  2.9232
14290TIP3   OH264284   4.997   2.640  17.023  0.5049  0.2425  0.9517
14290TIP3    H164285   4.904   2.620  17.038  0.7288 -0.3922  1.5220
14290TIP3    H264286   4.997   2.690  16.941 -0.2402 -0.7482  0.3098
14291TIP3   OH264287   1.342   5.775   5.115  0.5177 -0.2134 -0.3600
14291TIP3    H164288   1.349   5.702   5.052 -0.6083  0.1313 -0.9059
14291TIP3    H264289   1.291   5.842   5.068  1.5740  0.9609  0.1096
14292TIP3   OH264290   3.064   4.090   5.468 -0.3769 -0.8499 -0.1835
14292TIP3    H164291   3.043   4.031   5.540 -1.4417 -2.3084 -1.6106
14292TIP3    H264292   3.012   4.168   5.484  1.9061  0.3146  2.3549
14293TIP3   OH264293   1.580   3.518   4.802  0.3495  0.0091  0.0324
14293TIP3    H164294   1.631   3.441   4.826  0.5459  0.3694  0.8005
14293TIP3    H264295   1.541   3.548   4.885 -1.0102 -0.1859 -0.4994
14294TIP3   OH264296   5.340   0.437  12.681 -0.2451  0.1212 -0.7683
14294TIP3    H164297   5.310   0.349  12.702 -0.6802  0.3746 -0.3164
14294TIP3    H264298   5.421   0.447  12.731 -0.5468  0.2173 -0.2932
14295TIP3   OH264299   4.983   1.787   6.690 -0.3213 -0.5383  0.0859
14295TIP3    H164300   4.943   1.874   6.690  0.2413 -0.2121  2.0649
14295TIP3    H264301   5.061   1.797   6.636 -0.5674  0.0282 -0.1786
14296TIP3   OH264302   5.208   6.454   6.406 -0.2768 -0.2891  0.0590
14296TIP3    H164303   5.138   6.439   6.469  1.1134 -0.8647  1.5450
14296TIP3    H264304   5.278   6.496   6.456  0.9396 -0.8897 -1.0451
14297TIP3   OH264305   4.478   2.535  15.773  0.1427  0.4836  0.4435
14297TIP3    H164306   4.529   2.488  15.709  0.5947  0.7350  0.6134
14297TIP3    H264307   4.539   2.551  15.846 -0.3094  0.3541  0.8568
14298TIP3   OH264308   2.639   1.947   0.258  0.3717  0.1590  0.4092
14298TIP3    H164309   2.720   1.912   0.294  0.1669 -1.2880 -0.4326
14298TIP3    H264310   2.655   1.953   0.164 -0.6578 -0.7166  0.1534
14299TIP3   OH264311   4.867   2.737   5.115  0.2732  0.1293 -0.0870
14299TIP3    H164312   4.830   2.718   5.201  1.0527  1.3824  0.5502
14299TIP3    H264313   4.960   2.716   5.123  0.2003 -0.5688 -0.9023
14300TIP3   OH264314   4.205   4.702  13.961 -0.0736 -0.4707 -0.2933
14300TIP3    H164315   4.257   4.652  13.898  2.6028  0.1575  1.2845
14300TIP3    H264316   4.120   4.713  13.918  0.9572 -1.7998 -2.8947
14301TIP3   OH264317   6.121   3.424   3.862  0.4504 -0.1348 -0.2342
14301TIP3    H164318   6.183   3.495   3.845  1.7016 -1.0469  0.3882
14301TIP3    H264319   6.042   3.450   3.815  1.2260  1.1589 -0.8823
14302TIP3   OH264320   3.973   6.366  15.208 -0.1640  0.2156  0.1694
14302TIP3    H164321   3.878   6.358  15.205 -0.1097 -0.7571  0.6539
14302TIP3    H264322   4.005   6.276  15.210  0.8407  0.4853 -1.5493
14303TIP3   OH264323   3.199   6.697   4.725 -0.4569  0.0431  0.1586
14303TIP3    H164324   3.222   6.614   4.685 -2.0641 -0.4011  0.0795
14303TIP3    H264325   3.233   6.763   4.665  2.5707 -0.4452  1.1796
14304TIP3   OH264326   6.290   0.560   0.410 -0.0150  0.0441  0.4072
14304TIP3    H164327   6.320   0.528   0.495 -1.0532  0.2572  0.8670
14304TIP3    H264328   6.365   0.607   0.374  1.0549 -1.6472  0.3517
14305TIP3   OH264329   0.907   0.368   0.320  0.3392 -0.0054  0.4496
14305TIP3    H164330   0.853   0.333   0.390  1.0976 -1.9579  0.1077
14305TIP3    H264331   0.864   0.450   0.295 -1.7294 -0.8697  1.0229
14306TIP3   OH264332   6.293   5.375  11.501 -0.3778 -0.0122  0.0314
14306TIP3    H164333   6.332   5.393  11.586 -0.5459  0.6569 -0.0309
14306TIP3    H264334   6.355   5.314  11.459 -0.0017  0.1119  0.3950
14307TIP3   OH264335   4.215   4.541  16.890 -1.1408 -0.3439 -0.5978
14307TIP3    H164336   4.190   4.624  16.930 -0.9953 -0.1691 -0.8644
14307TIP3    H264337   4.132   4.495  16.875 -1.1158 -1.2107  1.5748
14308TIP3   OH264338   2.151   5.623   2.633 -0.0843 -0.1200 -0.1572
14308TIP3    H164339   2.151   5.717   2.648 -1.4027 -0.0125 -0.6975
14308TIP3    H264340   2.240   5.595   2.654  0.4702  1.3191 -0.4892
14309TIP3   OH264341   2.543   5.624  12.230  0.0622  0.4584 -0.1119
14309TIP3    H164342   2.512   5.630  12.321 -1.7189 -0.2023 -0.6501
14309TIP3    H264343   2.471   5.584  12.182  2.0068 -1.9185 -1.3120
14310TIP3   OH264344   6.169   4.931   0.833 -0.6878  0.2601 -0.6839
14310TIP3    H164345   6.220   4.855   0.805 -1.5361 -0.8340  0.6527
14310TIP3    H264346   6.173   4.930   0.928 -2.0242  0.9836 -0.5926
14311TIP3   OH264347   0.929   5.613   5.403  0.1706  0.1517 -0.1447
14311TIP3    H164348   0.910   5.647   5.491 -0.1074 -1.4157  0.4302
14311TIP3    H264349   0.974   5.685   5.359  0.2710  0.9901  1.2664
14312TIP3   OH264350   3.479   6.018  16.759 -0.1127  0.1360 -0.0040
14312TIP3    H164351   3.425   5.950  16.719  0.4440 -0.0202 -0.5064
14312TIP3    H264352   3.513   5.977  16.839 -3.6431  1.4178  2.3890
14313TIP3   OH264353   6.796   1.519  14.916 -0.5388  0.4923  0.8321
14313TIP3    H164354   6.858   1.566  14.860  0.8809 -2.0884  0.0601
14313TIP3    H264355   6.773   1.581  14.985  1.8265  2.0141  0.3589
14314TIP3   OH264356   4.728   1.874  13.589  1.2830  0.0866  0.2439
14314TIP3    H164357   4.651   1.857  13.535  1.3417  0.4528  0.0412
14314TIP3    H264358   4.764   1.787  13.608  0.5249 -0.1181  0.7759
14315TIP3   OH264359   0.922   4.873  11.373 -1.2801 -0.0547 -0.1360
14315TIP3    H164360   0.990   4.823  11.326 -2.0209 -1.8566  0.6341
14315TIP3    H264361   0.912   4.953  11.321  2.1546  0.8367  0.2671
14316TIP3   OH264362   6.669   2.143   2.490  0.5854  0.5078 -0.6230
14316TIP3    H164363   6.690   2.219   2.434 -1.4500  1.1169 -0.6229
14316TIP3    H264364   6.645   2.074   2.428 -0.9794  0.9657 -0.5527
14317TIP3   OH264365   1.164   3.705  10.403 -0.3476 -0.0489  0.4061
14317TIP3    H164366   1.235   3.722  10.342  0.2874 -2.5218  0.3582
14317TIP3    H264367   1.195   3.742  10.486  0.1051  0.6400 -0.0533
14318TIP3   OH264368   4.300   6.792  12.778  0.1945  0.4048 -0.1580
14318TIP3    H164369   4.287   6.726  12.846  1.7381  0.6892  0.4527
14318TIP3    H264370   4.226   6.781  12.719 -1.5079  0.5233  1.8499
14319TIP3   OH264371   2.927   5.102   0.843  0.0048  0.1924  0.7955
14319TIP3    H164372   2.916   5.135   0.753  0.1037 -0.1823  0.6430
14319TIP3    H264373   2.945   5.009   0.832 -0.5081  0.0369  1.2325
14320TIP3   OH264374   3.127   0.853  15.548  0.2803  0.2246 -0.6182
14320TIP3    H164375   3.196   0.820  15.606 -0.1033 -1.1274 -0.8968
14320TIP3    H264376   3.175   0.900  15.479  0.7115  2.4463  1.0761
14321TIP3   OH264377   6.364   0.557  14.797 -0.0280 -0.0567  0.4684
14321TIP3    H164378   6.450   0.543  14.837  0.4783  0.7198 -0.3235
14321TIP3    H264379   6.380   0.618  14.725 -1.0689 -0.7168 -0.3573
14322TIP3   OH264380   2.726   2.959  16.099  0.7978  0.5179  0.3183
14322TIP3    H164381   2.674   2.879  16.102  1.3040  0.0126 -2.0869
14322TIP3    H264382   2.665   3.029  16.122 -0.8697 -0.1252 -1.8172
14323TIP3   OH264383   3.866   4.729  14.718  0.6521 -0.3867 -0.0475
14323TIP3    H164384   3.784   4.711  14.673 -0.0728 -1.5775  1.6309
14323TIP3    H264385   3.932   4.733  14.648 -0.7806  0.4355 -1.4103
14324TIP3   OH264386   1.944   6.329  15.387 -0.3318  0.1397 -0.0466
14324TIP3    H164387   1.854   6.308  15.413 -0.6695  2.0500  0.4910
14324TIP3    H264388   1.997   6.259  15.426 -1.2553  0.7397  2.5089
14325TIP3   OH264389   4.077   1.653  13.876  0.8304  0.2235  0.3155
14325TIP3    H164390   4.074   1.636  13.970  1.4941 -0.8063  0.1776
14325TIP3    H264391   4.006   1.601  13.840 -0.1753  1.5299  0.3412
14326TIP3   OH264392   0.540   1.379   0.592 -0.3003  0.5717 -0.2156
14326TIP3    H164393   0.485   1.457   0.587  0.2007  0.8669 -1.2746
14326TIP3    H264394   0.629   1.411   0.578 -0.3426 -0.5061 -4.4877
14327TIP3   OH264395   5.777   2.378  16.017 -0.3308  0.1736 -0.3038
14327TIP3    H164396   5.850   2.420  16.061 -0.4160  0.7081 -0.6635
14327TIP3    H264397   5.702   2.395  16.074 -0.4007  0.6752 -0.5462
14328TIP3   OH264398   2.764   5.231  14.353 -0.3326  0.3105 -0.0588
14328TIP3    H164399   2.810   5.245  14.270  0.5700 -1.0670  0.1859
14328TIP3    H264400   2.681   5.190  14.327  1.2070 -3.0680 -0.2077
14329TIP3   OH264401   5.301   1.130  11.597  0.2886  0.5367  0.5628
14329TIP3    H164402   5.281   1.222  11.578  1.5714  0.8413  0.5960
14329TIP3    H264403   5.346   1.098  11.519 -1.0026 -0.3728  0.1497
14330TIP3   OH264404   0.976   1.329   0.260 -0.4750 -0.2100 -0.3702
14330TIP3    H164405   0.938   1.387   0.194 -0.2914 -0.8439 -1.0442
14330TIP3    H264406   1.043   1.280   0.213  0.6535  0.3423  0.6245
14331TIP3   OH264407   6.238   4.930   4.074 -0.2475  0.1813 -0.2191
14331TIP3    H164408   6.215   4.839   4.095 -0.4615  0.7054  2.1339
14331TIP3    H264409   6.168   4.982   4.113  0.4457  1.4038 -0.5556
14332TIP3   OH264410   0.256   1.559  12.266  0.0481 -0.3049  0.2396
14332TIP3    H164411   0.269   1.470  12.299  2.3360  0.7237  2.4328
14332TIP3    H264412   0.297   1.560  12.180  0.6608 -1.1996  0.5122
14333TIP3   OH264413   0.780   0.539  16.901 -0.8714  1.1046 -0.3173
14333TIP3    H164414   0.816   0.542  16.813 -0.6665 -2.6629 -0.5385
14333TIP3    H264415   0.847   0.580  16.956  0.5638  0.4421 -1.5285
14334TIP3   OH264416   6.140   4.528   0.164  0.0398  0.1998  0.1086
14334TIP3    H164417   6.154   4.467   0.237  1.4696  1.5376  1.0174
14334TIP3    H264418   6.193   4.493   0.093 -1.9327 -1.5268 -0.6368
14335TIP3   OH264419   2.333   4.615  11.759 -0.4871 -0.1395  0.3984
14335TIP3    H164420   2.288   4.562  11.692  0.1274 -0.4200  0.2028
14335TIP3    H264421   2.426   4.601  11.742 -0.3014  1.3003  0.1109
14336TIP3   OH264422   2.138   2.851  13.053 -0.0574 -0.1809  0.0565
14336TIP3    H164423   2.172   2.767  13.084 -2.0965 -1.2337 -0.3403
14336TIP3    H264424   2.088   2.829  12.974  1.5188  1.8154 -1.6003
14337TIP3   OH264425   5.547   3.351  13.592 -0.2124 -0.5034 -0.2796
14337TIP3    H164426   5.489   3.423  13.617 -1.3436 -1.4611 -0.0778
14337TIP3    H264427   5.505   3.312  13.516  0.0407 -1.3657  0.0145
14338TIP3   OH264428   3.979   1.857   3.194  0.0609  0.3682  0.3888
14338TIP3    H164429   3.894   1.815   3.206 -0.0135  0.4771  0.2481
14338TIP3    H264430   3.989   1.913   3.270 -0.2920  0.8603  0.0758
14339TIP3   OH264431   2.322   1.010  12.577  0.5933  0.3837 -0.1457
14339TIP3    H164432   2.252   0.961  12.534  0.5897  0.2037  0.0650
14339TIP3    H264433   2.382   0.944  12.610  1.0905  0.5497 -0.6923
14340TIP3   OH264434   1.291   2.046   4.186 -0.9871 -0.3134 -0.2723
14340TIP3    H164435   1.264   2.035   4.277  0.4655  0.9778  0.3658
14340TIP3    H264436   1.322   2.136   4.181  1.3313 -1.0746 -1.3577
14341TIP3   OH264437   6.164   2.389  13.492  1.0312  0.8855 -0.0867
14341TIP3    H164438   6.079   2.385  13.449  0.9976  1.6798 -0.1137
14341TIP3    H264439   6.175   2.481  13.514  0.3016  0.3255  3.1011
14342TIP3   OH264440   2.750   1.980   1.186  0.1672 -0.3528 -0.4993
14342TIP3    H164441   2.802   2.054   1.219  1.0821 -1.3382  0.3740
14342TIP3    H264442   2.670   2.020   1.153  1.9636  1.4245 -3.1717
14343TIP3   OH264443   3.806   0.554   4.405  0.4752  0.1642 -0.0842
14343TIP3    H164444   3.897   0.568   4.377  1.2555  0.4604  2.3662
14343TIP3    H264445   3.790   0.461   4.388  1.5706 -0.1046  0.2687
14344TIP3   OH264446   1.724   3.465   1.844 -0.0375 -0.3532 -0.3717
14344TIP3    H164447   1.751   3.373   1.842 -1.2769 -0.7939 -3.6704
14344TIP3    H264448   1.636   3.463   1.883  0.8380 -0.1665  1.7405
14345TIP3   OH264449   2.751   0.319  10.634 -0.2324  0.4637  0.7317
14345TIP3    H164450   2.774   0.230  10.661 -1.4974  0.3131  1.3718
14345TIP3    H264451   2.701   0.355  10.708 -0.6761  1.3156  0.0419
14346TIP3   OH264452   2.373   2.328  16.937 -0.2333  0.0609  0.0988
14346TIP3    H164453   2.353   2.365  16.851 -0.6733  1.5459  0.8210
14346TIP3    H264454   2.399   2.403  16.991 -3.7679 -0.1374  2.3888
14347TIP3   OH264455   1.678   5.084   0.712  0.2117  0.6774 -0.0776
14347TIP3    H164456   1.601   5.072   0.656  0.5244 -1.5317 -0.1374
14347TIP3    H264457   1.749   5.106   0.651  0.1991 -0.0917 -0.3872
14348TIP3   OH264458   3.493   2.735  12.109 -0.8175 -0.0177  0.2879
14348TIP3    H164459   3.452   2.821  12.115 -1.8067 -0.5192  1.1276
14348TIP3    H264460   3.530   2.720  12.196 -1.8599 -0.9883  0.6014
14349TIP3   OH264461   1.226   0.441   0.701 -0.3356  1.0001  0.1609
14349TIP3    H164462   1.284   0.429   0.777 -1.5870  1.7484  1.2798
14349TIP3    H264463   1.286   0.452   0.627  0.9048 -1.0489  0.8008
14350TIP3   OH264464   1.060   0.446  10.918 -0.8157 -0.3138 -0.3409
14350TIP3    H164465   0.980   0.498  10.915 -0.8983 -0.3995  0.1850
14350TIP3    H264466   1.074   0.418  10.828 -1.3275 -0.2206 -0.4538
14351TIP3   OH264467   5.078   2.041  14.768  0.3287  0.7527  0.3469
14351TIP3    H164468   4.993   2.002  14.789  1.0708 -0.6428  0.9875
14351TIP3    H264469   5.089   2.110  14.833  0.7771 -0.8012  2.0326
14352TIP3   OH264470   5.652   4.408   5.697  0.4320  0.8320  0.1709
14352TIP3    H164471   5.660   4.487   5.750  1.5581  0.9847 -0.1991
14352TIP3    H264472   5.705   4.426   5.619 -0.9465  0.4927 -0.8719
14353TIP3   OH264473   1.917   0.368  13.530 -0.5139  0.0664 -0.1326
14353TIP3    H164474   1.895   0.302  13.595 -0.5841 -1.7557 -1.9256
14353TIP3    H264475   1.833   0.401  13.499 -0.5247 -0.4264 -0.6305
14354TIP3   OH264476   3.501   3.806   6.195 -0.0354 -0.2885 -0.4793
14354TIP3    H164477   3.587   3.766   6.206 -0.2115 -0.8348 -1.0376
14354TIP3    H264478   3.508   3.890   6.241  0.2712 -1.0282  0.9124
14355TIP3   OH264479   2.719   4.723  12.211  0.0447  0.4912  0.1964
14355TIP3    H164480   2.746   4.812  12.233 -0.3374  1.1738 -1.8657
14355TIP3    H264481   2.792   4.687  12.161  0.3455 -0.5223  1.3145
14356TIP3   OH264482   6.070   5.136   2.892 -0.2056 -0.5971 -0.2867
14356TIP3    H164483   6.117   5.144   2.809  1.7327 -1.6987  0.6273
14356TIP3    H264484   5.995   5.080   2.872 -0.1879 -0.2287 -1.4498
14357TIP3   OH264485   2.457   6.635  11.409  0.0447  0.6933  0.1664
14357TIP3    H164486   2.363   6.635  11.391  0.1103  1.8894 -0.2630
14357TIP3    H264487   2.467   6.577  11.485 -0.9646  0.1484 -0.0955
14358TIP3   OH264488   4.322   4.952  12.588 -0.2679  0.4157 -0.0285
14358TIP3    H164489   4.385   5.019  12.562 -0.5901  0.1371 -1.6667
14358TIP3    H264490   4.265   4.996  12.651  2.4118  0.2329  2.7649
14359TIP3   OH264491   4.587   5.312   6.624  0.3889 -0.4957 -0.1393
14359TIP3    H164492   4.677   5.305   6.590 -0.0459 -0.4787 -1.3230
14359TIP3    H264493   4.532   5.279   6.553 -0.8095  2.5854 -0.8110
14360TIP3   OH264494   4.500   3.778   2.187  0.5316  0.6127  0.2405
14360TIP3    H164495   4.421   3.828   2.209 -0.9346 -0.8046 -1.4470
14360TIP3    H264496   4.476   3.687   2.203  2.2485  0.2100  0.7618
14361TIP3   OH264497   5.810   1.691  16.945  0.3934 -0.0074  0.3739
14361TIP3    H164498   5.722   1.719  16.917  0.4286  1.2171  1.3935
14361TIP3    H264499   5.811   1.597  16.928 -0.3812  0.2903 -1.5474
14362TIP3   OH264500   5.156   1.924   1.536 -0.6078 -0.2406 -0.0648
14362TIP3    H164501   5.132   1.975   1.458 -0.5654 -2.3448 -1.5241
14362TIP3    H264502   5.250   1.937   1.545 -0.5188 -0.4398 -0.6978
14363TIP3   OH264503   1.416   6.354  13.331 -0.3708  0.4632  0.4468
14363TIP3    H164504   1.511   6.339  13.327 -0.3723  0.6076 -2.8533
14363TIP3    H264505   1.391   6.324  13.419  2.6559  0.1501  1.3232
14364TIP3   OH264506   0.984   2.672   2.259  0.2251  0.1313 -0.0861
14364TIP3    H164507   0.912   2.628   2.304  1.0038 -1.1711 -0.0444
14364TIP3    H264508   1.004   2.615   2.184  0.4079  1.1136 -0.8109
14365TIP3   OH264509   5.223   5.079  15.305  0.3135 -0.1554 -0.5543
14365TIP3    H164510   5.284   5.046  15.371 -1.1465 -1.5615  0.1528
14365TIP3    H264511   5.274   5.079  15.223  1.3827 -0.8339  0.0820
14366TIP3   OH264512   5.748   6.758  16.112  0.9802  0.5306  0.3710
14366TIP3    H164513   5.711   6.761  16.201 -2.0036  1.4896 -0.7630
14366TIP3    H264514   5.695   6.692  16.067 -0.0485  2.5605 -1.5981
14367TIP3   OH264515   5.635   5.285  15.578  0.0151  0.4340 -0.2336
14367TIP3    H164516   5.696   5.297  15.651  1.2908 -0.6793 -1.0751
14367TIP3    H264517   5.690   5.288  15.500 -0.7128 -2.2971 -0.9443
14368TIP3   OH264518   6.529   2.599  11.840  0.6029  0.6469  0.2377
14368TIP3    H164519   6.463   2.583  11.772 -0.6869  0.7148  1.4304
14368TIP3    H264520   6.550   2.511  11.873 -0.4664  0.7482  1.2646
14369TIP3   OH264521   1.321   2.197  12.902 -0.4778 -0.0760  0.2388
14369TIP3    H164522   1.226   2.185  12.894 -0.6383  1.9368 -2.0128
14369TIP3    H264523   1.354   2.190  12.812  1.0428  2.3254  0.5060
14370TIP3   OH264524   0.864   6.231  12.049  0.3831  0.1096  0.2497
14370TIP3    H164525   0.836   6.323  12.054 -0.2954 -0.1269  1.1065
14370TIP3    H264526   0.811   6.186  12.115  1.8932 -0.6090  1.0311
14371TIP3   OH264527   5.026   4.811  15.339  0.2257  0.3043 -0.1868
14371TIP3    H164528   4.967   4.877  15.303 -1.6032  0.3968  2.7022
14371TIP3    H264529   5.017   4.736  15.281  1.2215  1.9934 -2.6827
14372TIP3   OH264530   2.025   2.718  15.005 -0.3437  0.0481 -0.0682
14372TIP3    H164531   1.929   2.723  15.012 -0.4605  1.3381 -1.8001
14372TIP3    H264532   2.046   2.626  15.021 -1.8182 -0.1733  0.7626
14373TIP3   OH264533   3.515   5.587  16.942  0.4750 -0.1254 -0.2634
14373TIP3    H164534   3.427   5.599  16.978  0.9311 -0.4326  0.9991
14373TIP3    H264535   3.570   5.645  16.994  1.5087 -2.1596  1.0250
14374TIP3   OH264536   0.050   1.978   2.242  0.3004 -0.2784  0.0946
14374TIP3    H164537  -0.001   1.897   2.240  0.4079 -0.3330 -0.8727
14374TIP3    H264538  -0.011   2.046   2.214  0.8328 -0.3986 -1.4296
14375TIP3   OH264539   2.613   2.189  13.767 -0.5410 -0.1296 -0.2630
14375TIP3    H164540   2.606   2.268  13.713  0.7055 -1.1837 -2.0611
14375TIP3    H264541   2.557   2.125  13.724 -0.6704 -0.5850  0.5563
14376TIP3   OH264542   3.657   5.667   4.268 -0.0121  0.6156 -0.3516
14376TIP3    H164543   3.642   5.667   4.362 -0.5504 -0.1530 -0.4245
14376TIP3    H264544   3.721   5.736   4.253  0.9614 -0.0260  0.7161
14377TIP3   OH264545   1.022   1.577   1.514 -0.9831  0.4500  0.0787
14377TIP3    H164546   0.969   1.656   1.522 -3.0988 -0.8147 -0.5862
14377TIP3    H264547   1.058   1.580   1.425 -0.5023  0.9652  0.2861
14378TIP3   OH264548   1.673   0.292   0.132 -0.2320  0.1698 -0.0946
14378TIP3    H164549   1.621   0.218   0.099  0.1529  0.3873 -1.2180
14378TIP3    H264550   1.667   0.358   0.064  0.5529  0.6579  0.2959
14379TIP3   OH264551   0.401   2.712  15.564  0.1715  0.2057  0.2531
14379TIP3    H164552   0.329   2.679  15.510  1.7717 -0.0772 -1.8677
14379TIP3    H264553   0.480   2.674  15.524  1.5873  1.2794  1.8728
14380TIP3   OH264554   2.138   6.798   5.779  0.8201 -0.1574  0.0333
14380TIP3    H164555   2.214   6.752   5.815  0.6127 -1.1602 -0.7778
14380TIP3    H264556   2.072   6.792   5.847  1.0845 -0.2885  0.2813
14381TIP3   OH264557   0.862   5.696   4.843 -0.3735 -0.1587 -0.2717
14381TIP3    H164558   0.873   5.695   4.748 -0.7579 -0.4965 -0.3146
14381TIP3    H264559   0.846   5.787   4.865 -1.4460 -0.2479 -0.6632
14382TIP3   OH264560   0.512   3.772  15.911  0.3423  0.5778  0.3405
14382TIP3    H164561   0.542   3.686  15.940  1.2837  0.6478 -0.3809
14382TIP3    H264562   0.483   3.759  15.821  2.3576  1.3816 -0.4763
14383TIP3   OH264563   4.761   0.706   5.219 -0.5528 -0.0805 -0.1294
14383TIP3    H164564   4.797   0.634   5.269  0.5436  0.9260  0.5846
14383TIP3    H264565   4.739   0.668   5.133 -0.6292 -1.3791  0.4502
14384TIP3   OH264566   4.564   4.159  16.694  0.2831  0.2907  0.3000
14384TIP3    H164567   4.499   4.225  16.720  0.9123  0.2425  2.1558
14384TIP3    H264568   4.638   4.209  16.661 -0.1056  0.4045 -0.4176
14385TIP3   OH264569   0.146   0.528   5.220 -0.0021  0.8101 -0.6991
14385TIP3    H164570   0.080   0.463   5.195  2.0418 -1.8720  0.5157
14385TIP3    H264571   0.229   0.490   5.192  1.5631  1.5383  2.5298
14386TIP3   OH264572   1.739   2.839  10.582  0.3122 -0.3770  0.2928
14386TIP3    H164573   1.724   2.871  10.671 -0.3918 -0.1829  0.1088
14386TIP3    H264574   1.673   2.883  10.529  1.3820  0.3158 -0.5151
14387TIP3   OH264575   3.351   2.083   2.592 -0.3593 -0.2222  0.3062
14387TIP3    H164576   3.352   2.061   2.686 -1.9333  1.4270  0.7650
14387TIP3    H264577   3.347   1.998   2.548  3.4347 -1.2259  1.5292
14388TIP3   OH264578   0.133   2.186   5.449 -0.3312  0.1505  0.7765
14388TIP3    H164579   0.089   2.271   5.437  1.6853  1.1352 -0.1190
14388TIP3    H264580   0.080   2.141   5.515 -3.9783  0.2725 -1.7754
14389TIP3   OH264581   3.194   2.119   4.975 -0.5304 -0.0588  0.3266
14389TIP3    H164582   3.114   2.158   4.941 -0.8733 -0.3212  0.8131
14389TIP3    H264583   3.243   2.194   5.010 -0.1879  0.2046 -0.6971
14390TIP3   OH264584   1.651   6.382  11.260  0.3311  0.2095  0.0417
14390TIP3    H164585   1.596   6.426  11.325  0.2513 -1.9298  1.5696
14390TIP3    H264586   1.608   6.399  11.176 -0.7674  1.3357  0.7988
14391TIP3   OH264587   6.011   4.206  14.643  0.0130  0.1662  0.0926
14391TIP3    H164588   5.979   4.153  14.717  1.0980  0.1785  0.5946
14391TIP3    H264589   6.006   4.147  14.568 -1.2918  0.2144  0.1234
14392TIP3   OH264590   2.071   1.386  13.759  0.3735  0.1010 -0.2476
14392TIP3    H164591   2.039   1.308  13.805 -1.6154  1.2067  0.3790
14392TIP3    H264592   2.086   1.449  13.829  0.5561  0.7459 -0.8654
14393TIP3   OH264593   5.409   2.276  12.146  0.1718 -0.3560  0.3587
14393TIP3    H164594   5.410   2.325  12.064 -0.3703  0.2342  0.6969
14393TIP3    H264595   5.432   2.187  12.121 -3.8173 -1.1640 -1.1160
14394TIP3   OH264596   4.212   5.316  12.241  0.3563  0.4386  0.8103
14394TIP3    H164597   4.253   5.241  12.199  1.7295  1.5945 -0.0399
14394TIP3    H264598   4.278   5.348  12.302  0.2519  1.5936  0.3464
14395TIP3   OH264599   2.098   3.030   5.918 -0.1112  0.2408 -0.0003
14395TIP3    H164600   2.100   3.006   5.825 -0.3854  0.0629  0.0379
14395TIP3    H264601   2.137   2.955   5.962 -2.5459 -0.9555  0.2803
14396TIP3   OH264602   1.219   3.847  17.002 -0.0004  0.2738  0.4983
14396TIP3    H164603   1.249   3.766  16.961 -1.7030 -0.3844  0.4669
14396TIP3    H264604   1.211   3.826  17.095  1.9759  1.1905  0.9188
14397TIP3   OH264605   3.737   4.350  13.713 -0.2120 -0.8455 -0.6960
14397TIP3    H164606   3.693   4.426  13.751 -2.3230 -0.8583 -2.8910
14397TIP3    H264607   3.810   4.387  13.664 -0.0583 -0.4391 -0.1760
14398TIP3   OH264608   4.046   5.803   3.848 -0.3612  0.3810 -0.7133
14398TIP3    H164609   4.139   5.821   3.834  0.0546 -2.1268 -1.8389
14398TIP3    H264610   4.033   5.814   3.943  1.1740  0.4599 -0.4943
14399TIP3   OH264611   3.567   0.965  12.315 -0.4742 -0.2438  0.4003
14399TIP3    H164612   3.621   1.000  12.386 -0.2147 -0.1790  0.1730
14399TIP3    H264613   3.630   0.920  12.258 -0.6881 -0.3294  0.2334
14400TIP3   OH264614   3.620   1.921   2.886 -0.4656 -0.2594  0.5495
14400TIP3    H164615   3.700   1.940   2.837 -1.1859  1.9374  0.1065
14400TIP3    H264616   3.606   1.827   2.874  1.5233 -0.5232 -0.1144
14401TIP3   OH264617   1.482   5.456   5.787  0.0518 -0.1490 -0.1555
14401TIP3    H164618   1.483   5.377   5.840 -0.8759  0.1506  0.3427
14401TIP3    H264619   1.420   5.438   5.717 -1.9095  0.8645  1.2107
14402TIP3   OH264620   4.832   0.748  12.156  0.1070  0.2155  0.3300
14402TIP3    H164621   4.917   0.774  12.193  0.8711 -0.9869 -0.5251
14402TIP3    H264622   4.789   0.700  12.227 -0.6577  2.3130  1.3813
14403TIP3   OH264623   5.818   6.446   2.414  0.8803 -0.0799 -0.0534
14403TIP3    H164624   5.742   6.505   2.409  0.1453 -1.0344 -0.4944
14403TIP3    H264625   5.780   6.359   2.428  1.6426 -1.0936 -3.2951
14404TIP3   OH264626   6.170   2.453  10.433  0.5344  0.0565  0.3954
14404TIP3    H164627   6.259   2.446  10.466  1.3006  2.9526 -0.7825
14404TIP3    H264628   6.138   2.537  10.465 -1.1616 -0.1482 -0.6009
14405TIP3   OH264629   2.838   0.615  13.040  0.0128  0.7432 -0.0345
14405TIP3    H164630   2.902   0.658  13.097  1.2373  0.3923 -1.1039
14405TIP3    H264631   2.873   0.626  12.952 -0.8295 -0.4637 -0.5384
14406TIP3   OH264632   2.766   1.507   4.933 -0.1914  0.0468  0.6457
14406TIP3    H164633   2.836   1.560   4.971  0.1164  1.3278 -1.5322
14406TIP3    H264634   2.778   1.421   4.972  1.5572  0.6639  1.6039
14407TIP3   OH264635   5.678   5.817  14.414 -0.7481 -0.3443 -0.1390
14407TIP3    H164636   5.603   5.824  14.474 -0.1457 -0.8835  0.7150
14407TIP3    H264637   5.740   5.882  14.446 -0.9255  0.2523 -0.9788
14408TIP3   OH264638   2.587   5.980   1.700 -0.5086 -0.5492  0.3615
14408TIP3    H164639   2.681   5.966   1.684 -0.6022 -2.6785  1.3798
14408TIP3    H264640   2.561   6.043   1.633  1.1480 -1.6941 -1.4802
14409TIP3   OH264641   3.262   5.943  14.256  0.2105 -0.5130 -0.2024
14409TIP3    H164642   3.330   5.877  14.267  0.4701 -0.0084  1.3426
14409TIP3    H264643   3.181   5.893  14.250  0.2334 -0.9564  2.4006
14410TIP3   OH264644   3.008   2.112   1.991 -0.7266  0.8501  0.3525
14410TIP3    H164645   3.085   2.154   1.953 -0.1062 -0.6270 -0.0834
14410TIP3    H264646   3.018   2.125   2.085  0.8626 -0.5695  0.4277
14411TIP3   OH264647   4.682   1.885   1.662 -0.2090  0.6544  0.2900
14411TIP3    H164648   4.775   1.900   1.676 -0.2808  2.3787 -0.7686
14411TIP3    H264649   4.667   1.795   1.692  1.3136  1.0932  2.5974
14412TIP3   OH264650   2.083   1.298  14.844  0.5879 -0.1343 -0.0522
14412TIP3    H164651   2.097   1.249  14.925  1.6559 -1.7980 -1.1922
14412TIP3    H264652   2.159   1.355  14.836  1.2020 -1.0092 -0.5804
14413TIP3   OH264653   3.566   1.593  12.705 -0.1945  0.0677 -0.2814
14413TIP3    H164654   3.520   1.676  12.714  0.0495  0.2874 -1.0291
14413TIP3    H264655   3.509   1.539  12.651  0.3648  0.3019 -1.1169
14414TIP3   OH264656   2.443   2.518  16.140 -0.0358 -0.0310  0.1189
14414TIP3    H164657   2.427   2.582  16.071  0.7177 -0.2209 -0.2448
14414TIP3    H264658   2.450   2.434  16.093 -1.0847 -0.3976  0.5954
14415TIP3   OH264659   3.175   1.010   3.772  0.1443  0.1314  0.0090
14415TIP3    H164660   3.184   0.996   3.678  2.6376  1.0628  0.0436
14415TIP3    H264661   3.163   1.104   3.781  1.7404  0.3060  0.6603
14416TIP3   OH264662   1.737   0.741   5.962  0.1596  0.5957 -0.4063
14416TIP3    H164663   1.774   0.654   5.943  2.9968  1.8209 -1.0455
14416TIP3    H264664   1.783   0.769   6.042 -2.6178  0.5573  1.3409
14417TIP3   OH264665   2.910   1.952  15.902 -0.3743 -0.0266 -0.1680
14417TIP3    H164666   2.854   1.890  15.949  0.0296  0.3826  0.8839
14417TIP3    H264667   2.898   2.035  15.949  0.1627  0.3631 -0.7031
14418TIP3   OH264668   1.657   6.169   2.325 -0.0676 -0.4463 -0.3315
14418TIP3    H164669   1.589   6.132   2.381  0.2978  1.2976  1.3664
14418TIP3    H264670   1.707   6.093   2.294  0.3616 -1.4626  2.5768
14419TIP3   OH264671   2.184   4.872   0.101  0.0946  0.3361 -0.0762
14419TIP3    H164672   2.127   4.832   0.166 -2.2331  0.3004 -2.0230
14419TIP3    H264673   2.223   4.947   0.147 -2.2635  0.9340  1.1130
14420TIP3   OH264674   4.616   1.795   1.324  0.4489  0.1581 -0.1664
14420TIP3    H164675   4.559   1.721   1.342  0.2833  0.0970 -0.9255
14420TIP3    H264676   4.562   1.856   1.275  0.9296  0.2524 -0.5886
14421TIP3   OH264677   2.930   5.308   4.889 -0.0138  0.4235 -0.5550
14421TIP3    H164678   2.999   5.274   4.833  0.6728 -3.3939  2.1730
14421TIP3    H264679   2.966   5.389   4.926  1.8160 -0.0279 -1.2693
14422TIP3   OH264680   4.495   3.321  14.751 -0.6883 -0.1308  0.1043
14422TIP3    H164681   4.561   3.327  14.682 -0.5686  0.0149  0.2313
14422TIP3    H264682   4.529   3.377  14.821 -0.6554 -0.5177  0.4026
14423TIP3   OH264683   6.480   6.677  13.956  0.3498 -0.6431  0.1935
14423TIP3    H164684   6.552   6.726  13.996 -1.8303  2.9691  0.1111
14423TIP3    H264685   6.416   6.667  14.026 -0.3795 -0.9589 -0.5067
14424TIP3   OH264686   6.401   4.094   2.740 -0.7104 -0.0786  0.1725
14424TIP3    H164687   6.375   4.032   2.809  0.9923 -0.0871  0.8571
14424TIP3    H264688   6.494   4.077   2.727 -0.9066  0.2085 -1.8852
14425TIP3   OH264689   3.966   0.144  12.754 -0.6934  0.2566 -0.1930
14425TIP3    H164690   4.014   0.223  12.781  2.7940 -1.4432 -0.9196
14425TIP3    H264691   3.928   0.167  12.669 -0.7095  1.5244  0.1396
14426TIP3   OH264692   2.978   2.369   4.591  0.0801  0.8065 -0.1459
14426TIP3    H164693   2.892   2.331   4.577  0.4445 -0.1261  0.0739
14426TIP3    H264694   3.030   2.336   4.518  1.0167 -1.0590  1.2780
14427TIP3   OH264695   6.048   0.317   2.419 -0.0559 -0.1503 -0.9825
14427TIP3    H164696   5.975   0.370   2.450  0.1217 -0.5654  0.1739
14427TIP3    H264697   6.113   0.320   2.490  1.9085  1.7250 -2.6945
14428TIP3   OH264698   6.757   6.414  16.793 -0.2727 -0.6114 -0.7038
14428TIP3    H164699   6.798   6.426  16.708 -0.9116 -1.2749 -1.1221
14428TIP3    H264700   6.675   6.463  16.787 -1.1793 -2.1190 -1.1380
14429TIP3   OH264701   3.232   2.665   0.227  0.6431  0.0820  0.3440
14429TIP3    H164702   3.283   2.628   0.299 -1.5089 -3.4816  0.2847
14429TIP3    H264703   3.239   2.600   0.156 -2.1761  0.4026 -0.3672
14430TIP3   OH264704   4.723   5.055  15.720  0.0578  0.9610 -0.4226
14430TIP3    H164705   4.810   5.029  15.690 -0.1484 -1.9152  1.0898
14430TIP3    H264706   4.739   5.107  15.799  0.4031  0.8510 -0.4190
14431TIP3   OH264707   0.869   3.887  15.684 -0.1508  0.0568 -0.3792
14431TIP3    H164708   0.816   3.930  15.616 -1.8440 -0.0905  0.7722
14431TIP3    H264709   0.854   3.794  15.671 -2.7314  0.0468  1.7514
14432TIP3   OH264710   2.513   4.189  13.440 -0.0925  0.0649  0.1092
14432TIP3    H164711   2.475   4.111  13.399 -0.3402  0.9626 -1.4143
14432TIP3    H264712   2.442   4.253  13.442  0.5877  0.8515 -0.2972
14433TIP3   OH264713   4.639   0.801  11.291 -0.1597  0.2632 -0.0452
14433TIP3    H164714   4.678   0.809  11.204  0.5553  0.3042  0.2713
14433TIP3    H264715   4.569   0.737  11.281 -0.1162  0.3095 -0.6607
14434TIP3   OH264716   2.565   2.178   3.088 -0.8351 -0.2055 -0.1897
14434TIP3    H164717   2.546   2.251   3.028 -0.2633  0.5351  0.5148
14434TIP3    H264718   2.575   2.219   3.173 -0.5707 -1.1312  0.2364
14435TIP3   OH264719   2.529   2.782  10.887  0.4657  0.3627 -0.2248
14435TIP3    H164720   2.530   2.692  10.854  1.4133  0.5186 -0.6535
14435TIP3    H264721   2.458   2.783  10.951  1.0890 -0.9684  0.5447
14436TIP3   OH264722   1.316   6.651  11.533 -0.4483 -0.1259 -0.0117
14436TIP3    H164723   1.278   6.667  11.447 -1.6282  1.4763  0.7607
14436TIP3    H264724   1.302   6.732  11.581 -1.4685 -1.5532  2.2963
14437TIP3   OH264725   4.727   0.727  16.121  0.4738  0.1533  0.2396
14437TIP3    H164726   4.694   0.768  16.041 -0.7876 -1.5482 -0.1537
14437TIP3    H264727   4.741   0.801  16.181  0.0712  1.3265 -1.0569
14438TIP3   OH264728   2.366   3.339  12.248  0.0532 -0.2991  0.3468
14438TIP3    H164729   2.368   3.414  12.307  3.3999 -1.3257  1.7452
14438TIP3    H264730   2.386   3.376  12.162  1.2923  0.5071  0.9581
14439TIP3   OH264731   4.247   6.260   3.490  0.0065  0.3851 -0.4283
14439TIP3    H164732   4.260   6.169   3.464  0.7499  0.2162  0.4799
14439TIP3    H264733   4.334   6.290   3.517 -0.5500  0.7758  1.0635
14440TIP3   OH264734   4.434   4.143   5.534 -0.3437  0.0751 -0.0971
14440TIP3    H164735   4.435   4.052   5.505 -0.3982 -0.2521  0.9036
14440TIP3    H264736   4.492   4.189   5.473  1.0921 -0.9548  0.4411
14441TIP3   OH264737   0.655   3.996  12.303  0.7962  0.4622  0.6038
14441TIP3    H164738   0.631   4.038  12.385  3.3050  0.3032  1.5105
14441TIP3    H264739   0.682   4.068  12.246 -0.4580  0.5262  0.0585
14442TIP3   OH264740   4.649   2.462   5.067 -0.3843 -0.1699 -0.6095
14442TIP3    H164741   4.601   2.536   5.105 -2.0713 -1.4387 -0.1455
14442TIP3    H264742   4.700   2.500   4.995 -0.1519  1.6432  0.4628
14443TIP3   OH264743   0.243   0.717  12.262  0.1042 -0.5641 -0.2417
14443TIP3    H164744   0.175   0.755  12.208  0.9691 -0.0804 -1.0285
14443TIP3    H264745   0.252   0.627  12.231  1.7091  0.1549 -2.1076
14444TIP3   OH264746   5.197   4.623  12.033 -0.5352 -0.2658 -0.0661
14444TIP3    H164747   5.209   4.717  12.040 -1.3397  0.0173 -1.8434
14444TIP3    H264748   5.153   4.598  12.114 -0.1642  0.8450  0.4929
14445TIP3   OH264749   3.195   1.114  11.744 -0.2465 -0.3003 -0.3468
14445TIP3    H164750   3.128   1.169  11.703 -1.0776  0.7801  2.2992
14445TIP3    H264751   3.149   1.032  11.763 -0.6229  0.1541  0.7536
14446TIP3   OH264752   1.647   4.277   4.127  0.0960  0.6580 -0.0088
14446TIP3    H164753   1.731   4.322   4.135 -0.4853  1.6978  0.3769
14446TIP3    H264754   1.636   4.231   4.210  1.9563 -2.5663 -1.3353
14447TIP3   OH264755   3.111   6.124  11.933  0.3911 -0.1304 -0.5203
14447TIP3    H164756   3.103   6.037  11.971 -0.7355 -0.8722 -2.3352
14447TIP3    H264757   3.187   6.119  11.876 -0.0405 -0.1400 -1.1083
14448TIP3   OH264758   4.836   0.337  13.621 -0.1239  0.0420 -0.1610
14448TIP3    H164759   4.877   0.252  13.639 -1.2219  0.0328  2.6864
14448TIP3    H264760   4.889   0.400  13.670  0.4474  1.0344 -1.9331
14449TIP3   OH264761   3.542   4.403  11.560  0.1881  0.1011  0.8654
14449TIP3    H164762   3.478   4.332  11.568 -0.6389  0.7949  0.5532
14449TIP3    H264763   3.514   4.452  11.483  2.2222 -0.6716 -0.4546
14450TIP3   OH264764   0.668   1.368   3.007 -0.3816  0.3084  0.2235
14450TIP3    H164765   0.641   1.279   3.030  0.1063  0.3688  1.0639
14450TIP3    H264766   0.680   1.366   2.912 -1.4987 -0.2110  0.0878
14451TIP3   OH264767   5.025   3.579  10.614  0.1342 -0.4658 -0.2413
14451TIP3    H164768   5.003   3.577  10.520 -1.8841 -2.5225  0.1895
14451TIP3    H264769   4.944   3.604  10.657  1.1947  1.0017  0.9823
14452TIP3   OH264770   4.667   0.384  15.303 -0.8671 -0.2858  0.3228
14452TIP3    H164771   4.752   0.361  15.341  0.0968 -0.7204 -1.9868
14452TIP3    H264772   4.682   0.469  15.261 -1.8845  0.1288  0.7529
14453TIP3   OH264773   6.389   1.811  12.174 -0.1478  0.6875  0.1580
14453TIP3    H164774   6.480   1.827  12.200 -0.0469 -1.0014  0.9431
14453TIP3    H264775   6.396   1.768  12.089 -0.1485 -0.1608  0.5724
14454TIP3   OH264776   0.134   4.167   0.843 -0.0152  0.1789  0.7855
14454TIP3    H164777   0.048   4.189   0.878 -1.4543 -0.0860 -2.2661
14454TIP3    H264778   0.124   4.176   0.748  2.6937 -2.0289  0.1703
14455TIP3   OH264779   1.135   3.430   1.845  0.4793 -0.0990 -0.0647
14455TIP3    H164780   1.207   3.493   1.851  0.2468  0.3193 -1.3310
14455TIP3    H264781   1.157   3.363   1.909  1.1675  0.8446  0.7164
14456TIP3   OH264782   0.206   2.629  14.272  0.2065 -0.0363 -0.7376
14456TIP3    H164783   0.283   2.588  14.233  1.0063  0.5091  0.2142
14456TIP3    H264784   0.199   2.590  14.359 -1.0107 -0.5808 -1.0626
14457TIP3   OH264785   2.199   2.114   2.784 -0.2498 -0.0365 -0.4954
14457TIP3    H164786   2.219   2.082   2.873  1.2136  0.5601 -0.5768
14457TIP3    H264787   2.120   2.166   2.795  1.0686  1.8112  0.9044
14458TIP3   OH264788   2.960   1.615   1.429  0.2506 -0.1494 -0.1275
14458TIP3    H164789   3.030   1.652   1.374  0.1886 -1.1555 -0.9246
14458TIP3    H264790   2.883   1.667   1.408 -0.0655 -1.2756 -1.9592
14459TIP3   OH264791   0.389   0.613   2.315 -0.0470  0.1821 -0.3562
14459TIP3    H164792   0.323   0.681   2.325  0.7070  0.8572  0.1774
14459TIP3    H264793   0.347   0.533   2.347 -0.5432  0.6389  0.1397
14460TIP3   OH264794   5.456   6.754  11.286  0.3082  0.0885 -0.0305
14460TIP3    H164795   5.476   6.663  11.265 -1.7094 -0.3812 -0.1171
14460TIP3    H264796   5.495   6.804  11.215 -0.9238 -0.9641 -1.5157
14461TIP3   OH264797   5.328   5.074   4.651  0.5736  0.0293  0.3395
14461TIP3    H164798   5.354   5.166   4.652  0.2696  0.1377 -0.6303
14461TIP3    H264799   5.348   5.042   4.739  0.5567  1.0532  0.7248
14462TIP3   OH264800   5.121   6.154   2.828 -0.0833  0.4619  0.0689
14462TIP3    H164801   5.169   6.073   2.844 -0.9551 -0.0677  0.0817
14462TIP3    H264802   5.060   6.161   2.902 -1.5531 -0.0575 -1.0418
14463TIP3   OH264803   6.793   6.616  16.359 -0.2981  0.2871 -0.1836
14463TIP3    H164804   6.733   6.598  16.431  0.4377 -0.8316  0.1821
14463TIP3    H264805   6.752   6.575  16.282 -0.4511  0.3441 -0.1328
14464TIP3   OH264806   0.996   2.684   2.888  0.0269  0.7732  0.6796
14464TIP3    H164807   0.904   2.661   2.873  0.4060 -2.3078  2.2983
14464TIP3    H264808   0.994   2.743   2.963 -0.6421  0.5676  0.8355
14465TIP3   OH264809   4.608   3.552   3.717  0.5676 -0.1711  0.1082
14465TIP3    H164810   4.595   3.491   3.645 -0.6092  0.5942 -0.3549
14465TIP3    H264811   4.660   3.623   3.680  2.4982 -1.1355  0.8135
14466TIP3   OH264812   0.684   5.621   0.121  0.3612 -0.0510  0.2708
14466TIP3    H164813   0.685   5.625   0.026 -0.8232 -2.5306  0.0836
14466TIP3    H264814   0.776   5.631   0.147  0.6167  1.3128 -1.0355
14467TIP3   OH264815   3.221   4.966  11.787 -0.0547  0.1604  0.3498
14467TIP3    H164816   3.302   4.917  11.797  1.6524  2.6301 -0.4836
14467TIP3    H264817   3.227   5.037  11.851 -1.3611  0.6432 -0.0210
14468TIP3   OH264818   4.259   2.346   2.250  0.4733 -0.1571  0.2944
14468TIP3    H164819   4.293   2.436   2.241  0.1855  0.2341  2.5775
14468TIP3    H264820   4.272   2.325   2.342  0.3949 -2.4472 -0.1634
14469TIP3   OH264821   3.259   4.745  15.137 -0.5698 -0.2681  0.3317
14469TIP3    H164822   3.200   4.795  15.080 -1.3418  0.8171  2.0187
14469TIP3    H264823   3.332   4.720  15.080  0.2236  3.3808 -0.4818
14470TIP3   OH264824   0.578   2.392  10.669  0.1240 -0.0287  0.2068
14470TIP3    H164825   0.668   2.419  10.651  0.1098 -0.2352 -0.1820
14470TIP3    H264826   0.535   2.472  10.700 -0.4544  0.9615 -2.8449
14471TIP3   OH264827   3.032   1.163  16.545  0.2754  0.0822 -0.2748
14471TIP3    H164828   2.998   1.087  16.499 -2.0204  1.2123 -0.6044
14471TIP3    H264829   2.969   1.179  16.615  0.0157  2.3312 -0.9230
14472TIP3   OH264830   3.694   1.436   0.270 -0.0902  0.1759 -0.3250
14472TIP3    H164831   3.697   1.357   0.324  1.2901  0.2403 -0.2917
14472TIP3    H264832   3.728   1.505   0.327 -0.2535  0.5841 -0.7205
14473TIP3   OH264833   1.707   2.313   1.463  0.3899 -0.3635  0.0823
14473TIP3    H164834   1.716   2.382   1.398  0.1292 -0.7982 -0.4245
14473TIP3    H264835   1.672   2.357   1.541 -0.7900 -0.0902 -0.5669
14474TIP3   OH264836   2.914   3.984   5.246  0.5869  0.1659  0.2698
14474TIP3    H164837   2.825   4.019   5.247  0.9668  1.1505  0.6466
14474TIP3    H264838   2.955   4.019   5.325  1.8355  1.1506 -0.7737
14475TIP3   OH264839   4.473   5.068  14.840  0.3969 -0.3711 -0.7332
14475TIP3    H164840   4.410   5.069  14.912  2.4112 -0.7437  1.1505
14475TIP3    H264841   4.471   4.978  14.807 -0.3136 -0.2806 -0.9523
14476TIP3   OH264842   6.783   1.535  13.183  0.0020 -0.0703  0.4160
14476TIP3    H164843   6.878   1.535  13.167 -0.1564  0.2389 -0.5864
14476TIP3    H264844   6.757   1.626  13.174 -0.8797 -0.5003 -2.6435
14477TIP3   OH264845   3.345   0.517  12.670 -0.3042  0.4997  0.5041
14477TIP3    H164846   3.322   0.496  12.761  0.7309  0.2671  0.7256
14477TIP3    H264847   3.275   0.576  12.641  0.3419  2.1275  2.0852
14478TIP3   OH264848   6.663   6.537  12.287  0.3214  0.5138 -0.4271
14478TIP3    H164849   6.654   6.466  12.351  1.5278  0.4959 -0.2523
14478TIP3    H264850   6.671   6.616  12.341 -1.0063  0.8150 -0.6206
14479TIP3   OH264851   3.222   3.834  12.684  0.2132 -0.2100  0.1905
14479TIP3    H164852   3.191   3.744  12.675  0.6391 -0.1845 -2.2889
14479TIP3    H264853   3.160   3.886  12.633  0.8678  0.6550  0.2458
14480TIP3   OH264854   2.434   5.183   2.093  1.3083  0.0805  0.4874
14480TIP3    H164855   2.454   5.120   2.162 -0.2857 -1.2776 -0.2229
14480TIP3    H264856   2.345   5.213   2.113  0.8040 -0.3714 -0.9878
14481TIP3   OH264857   4.850   0.554  17.150  0.4448 -0.5755  0.7939
14481TIP3    H164858   4.912   0.494  17.107  2.8879  2.1978  0.1002
14481TIP3    H264859   4.828   0.618  17.082 -1.9304 -0.4892  1.5500
14482TIP3   OH264860   3.503   3.278  11.207  0.3664  0.4620 -0.0413
14482TIP3    H164861   3.591   3.311  11.224 -0.0136  1.2454  0.4644
14482TIP3    H264862   3.445   3.352  11.226 -0.4094 -0.0656 -0.2841
14483TIP3   OH264863   5.670   1.159   1.224  0.2152  0.9189  0.2626
14483TIP3    H164864   5.648   1.073   1.261  2.3024  0.7188  1.2288
14483TIP3    H264865   5.721   1.139   1.146  0.6195  1.2711  0.4318
14484TIP3   OH264866   3.878   1.229  12.870  0.2964 -0.3028 -0.1732
14484TIP3    H164867   3.869   1.301  12.808 -2.7760 -0.9091 -0.6034
14484TIP3    H264868   3.971   1.207  12.867  1.1005  2.6350 -1.1070
14485TIP3   OH264869   6.187   6.147   3.677  0.0169  0.0546 -0.5675
14485TIP3    H164870   6.244   6.076   3.706  0.5539  0.7958  0.2593
14485TIP3    H264871   6.202   6.217   3.740 -0.7221  0.8017 -1.1906
14486TIP3   OH264872   6.516   4.629   2.496  0.0127 -0.4365  0.0430
14486TIP3    H164873   6.519   4.696   2.565 -0.2689  1.3039 -1.5588
14486TIP3    H264874   6.605   4.624   2.463 -0.4897  1.2996 -1.7430
14487TIP3   OH264875   1.407   1.009   5.242  0.3667 -0.6830 -0.2768
14487TIP3    H164876   1.478   1.047   5.190 -1.0523  0.2025 -1.6496
14487TIP3    H264877   1.414   0.914   5.226  0.4118 -0.4847 -1.5289
14488TIP3   OH264878   4.462   1.813  13.541 -0.5637  0.6657 -0.5140
14488TIP3    H164879   4.460   1.799  13.636  1.1976 -0.2900 -0.5845
14488TIP3    H264880   4.409   1.742  13.506  2.3341 -1.7228 -0.4267
14489TIP3   OH264881   5.477   2.063   2.414 -0.1891  0.0925 -0.4090
14489TIP3    H164882   5.531   1.984   2.408 -1.0062 -0.4771 -0.4199
14489TIP3    H264883   5.529   2.124   2.467  1.0357  0.0508 -1.5085
14490TIP3   OH264884   6.757   3.362   5.786  0.2419  0.4020  0.4015
14490TIP3    H164885   6.745   3.276   5.825 -0.6226  0.4449  0.2303
14490TIP3    H264886   6.680   3.376   5.732 -0.3778  1.9043  1.5770
14491TIP3   OH264887   3.915   2.409   4.101  0.2013  0.0556  0.0665
14491TIP3    H164888   3.827   2.443   4.085 -0.1109 -0.7449  0.0148
14491TIP3    H264889   3.974   2.477   4.069 -0.3449  1.7681  2.4139
14492TIP3   OH264890   0.523   2.146  11.682 -0.4101  0.0138 -0.4144
14492TIP3    H164891   0.534   2.055  11.708  1.2993 -0.6074 -2.9258
14492TIP3    H264892   0.599   2.191  11.720 -1.3523  0.4880  0.9850
14493TIP3   OH264893   0.941   6.414   1.359 -0.6345 -0.2123 -0.2345
14493TIP3    H164894   0.876   6.415   1.289  0.6406 -0.6015 -1.4910
14493TIP3    H264895   1.004   6.482   1.333 -1.1153  0.9806  1.5599
14494TIP3   OH264896   4.094   3.110  13.964 -0.5373 -0.0371 -0.1890
14494TIP3    H164897   4.118   3.179  14.025  2.6772 -0.9223 -0.2487
14494TIP3    H264898   4.099   3.029  14.015 -0.9992 -0.5209 -0.8826
14495TIP3   OH264899   6.785   3.549  11.404 -0.1173  0.3413 -0.1747
14495TIP3    H164900   6.824   3.471  11.445 -1.2222 -0.8011 -1.2105
14495TIP3    H264901   6.694   3.548  11.433  0.0689  1.8119  0.5548
14496TIP3   OH264902   4.718   3.753  16.335  0.6908 -0.3991  0.1529
14496TIP3    H164903   4.702   3.806  16.257  1.2838  1.2583  1.0992
14496TIP3    H264904   4.660   3.790  16.401  1.3187 -0.7426  0.9086
14497TIP3   OH264905   0.530   1.699   1.480  0.4209 -0.2606  0.4910
14497TIP3    H164906   0.597   1.686   1.548  1.0147 -1.3420 -0.2602
14497TIP3    H264907   0.580   1.713   1.399 -0.2091 -2.0975 -0.2753
14498TIP3   OH264908   3.424   1.580  15.516  0.6833  0.0081 -0.0985
14498TIP3    H164909   3.517   1.597  15.502  0.7512  0.7437  1.1347
14498TIP3    H264910   3.407   1.608  15.606  0.1487 -3.8395  1.1885
14499TIP3   OH264911   4.590   1.094   1.368 -0.1828  0.2981 -0.3498
14499TIP3    H164912   4.625   1.043   1.441  0.5184  1.9597  0.5395
14499TIP3    H264913   4.581   1.031   1.297  2.2742 -0.7340  0.1390
14500TIP3   OH264914   4.941   2.788   5.891  0.7869  1.0183  0.0318
14500TIP3    H164915   4.991   2.716   5.931  0.4743  0.4333 -0.5960
14500TIP3    H264916   4.902   2.834   5.965  0.0281 -0.1838  0.4098
14501TIP3   OH264917   5.406   3.635  13.398 -0.2408  0.3546  0.2008
14501TIP3    H164918   5.495   3.624  13.431  0.5370  1.3230 -1.4400
14501TIP3    H264919   5.351   3.596  13.465  1.1962  2.2444  2.6217
14502TIP3   OH264920   0.641   3.601  11.589 -0.8153  0.2866 -0.2609
14502TIP3    H164921   0.668   3.689  11.617 -1.1514  0.0750  0.7630
14502TIP3    H264922   0.686   3.542  11.649 -0.3802 -0.2593 -1.1167
14503TIP3   OH264923   3.573   3.712  15.351  0.0480 -0.1792  0.0955
14503TIP3    H164924   3.516   3.786  15.331  0.8690  0.4371  0.0222
14503TIP3    H264925   3.542   3.642  15.294 -1.1535 -0.1136  0.6234
14504TIP3   OH264926   3.887   6.271   4.784  0.8212  0.0248  0.2690
14504TIP3    H164927   3.794   6.251   4.789  0.5425  1.1421 -0.1493
14504TIP3    H264928   3.922   6.206   4.723  0.1572  0.0717 -0.1748
14505TIP3   OH264929   1.827   3.173  14.782  0.4999  0.4089  0.8525
14505TIP3    H164930   1.847   3.089  14.742  1.8384  1.4861 -0.9009
14505TIP3    H264931   1.898   3.187  14.846  2.0234  1.4563 -0.9625
14506TIP3   OH264932   4.610   3.200   6.266 -0.2091  0.5932  0.4276
14506TIP3    H164933   4.683   3.219   6.207  1.2950 -0.6238  1.8271
14506TIP3    H264934   4.607   3.104   6.270 -0.9633  0.6454  1.5120
14507TIP3   OH264935   4.324   6.082  15.967 -0.0593  0.0754  0.3301
14507TIP3    H164936   4.403   6.136  15.960 -0.3774  0.4113 -0.9697
14507TIP3    H264937   4.355   5.993  15.951  0.4664 -0.1731  2.4796
14508TIP3   OH264938   5.994   5.040  12.875  0.1622 -0.0566 -0.3810
14508TIP3    H164939   6.067   5.101  12.886  0.4871 -0.1625 -1.7755
14508TIP3    H264940   5.987   5.028  12.781 -0.7511 -1.1663 -0.1909
14509TIP3   OH264941   0.967   2.338  11.346  0.5429  0.3772 -0.3056
14509TIP3    H164942   1.015   2.394  11.407 -1.7815  0.7106  1.3471
14509TIP3    H264943   1.002   2.250  11.361  2.5641  0.9824 -1.2208
14510TIP3   OH264944   0.769   2.680  13.215 -0.1335 -0.0312 -0.1634
14510TIP3    H164945   0.775   2.687  13.119 -0.6209 -1.9460 -0.3774
14510TIP3    H264946   0.847   2.630  13.240 -0.9562 -1.1833  0.1944
14511TIP3   OH264947   2.582   5.255   2.866  0.3738  0.0977 -0.1540
14511TIP3    H164948   2.626   5.318   2.809  2.2350 -0.3946  0.6526
14511TIP3    H264949   2.615   5.275   2.954  1.4749 -2.2839  0.0746
14512TIP3   OH264950   2.192   4.243  11.815 -0.4344 -0.1148  0.7032
14512TIP3    H164951   2.162   4.311  11.756 -0.4716 -1.8546 -1.4178
14512TIP3    H264952   2.126   4.239  11.884 -1.6730  0.4079 -0.4286
14513TIP3   OH264953   1.515   1.977   3.327  0.0009  0.1694 -0.6180
14513TIP3    H164954   1.574   1.901   3.327 -0.2650 -0.0362 -0.4550
14513TIP3    H264955   1.574   2.052   3.317  0.2564 -0.0634 -0.8731
14514TIP3   OH264956   0.297   2.750   2.079  0.5348  0.0392 -0.0380
14514TIP3    H164957   0.275   2.724   1.990  0.0517 -0.5237  0.2371
14514TIP3    H264958   0.247   2.830   2.095  0.0341 -0.2760 -0.0150
14515TIP3   OH264959   3.207   5.550  10.307  0.0503 -0.0556 -0.0737
14515TIP3    H164960   3.129   5.499  10.328 -0.3827  0.2796 -0.8411
14515TIP3    H264961   3.202   5.627  10.364  0.5830 -0.7373  0.9175
14516TIP3   OH264962   5.129   6.371   2.173 -0.3480  0.0477  0.1051
14516TIP3    H164963   5.184   6.446   2.196 -0.3854  0.2525 -0.4636
14516TIP3    H264964   5.092   6.342   2.257  0.8285 -0.2598  0.5386
14517TIP3   OH264965   6.470   2.271   0.116 -0.0562 -0.1896  0.2431
14517TIP3    H164966   6.549   2.282   0.168  0.8740 -0.8522 -0.9826
14517TIP3    H264967   6.459   2.354   0.070  0.1960 -0.2525  0.0667
14518TIP3   OH264968   1.490   2.997   1.471 -0.3093  0.0702  0.1777
14518TIP3    H164969   1.543   3.075   1.486  0.0484  0.1304 -1.2003
14518TIP3    H264970   1.435   2.989   1.549 -0.2491  1.6009  0.4101
14519TIP3   OH264971   6.241   4.603  12.298  0.4338 -0.6829  0.1986
14519TIP3    H164972   6.320   4.600  12.352 -1.3351 -0.9273  2.9653
14519TIP3    H264973   6.235   4.695  12.270 -0.8063  0.6959  4.2491
14520TIP3   OH264974   1.655   4.075   2.243 -0.1446  0.4594 -0.3001
14520TIP3    H164975   1.684   4.116   2.162  1.2263 -2.0956 -1.2357
14520TIP3    H264976   1.568   4.040   2.223  0.4110 -0.6284 -0.8929
14521TIP3   OH264977   4.919   0.632  11.844 -0.1469 -0.1451 -0.4834
14521TIP3    H164978   4.859   0.642  11.918 -1.2172 -0.4787 -1.2730
14521TIP3    H264979   4.995   0.587  11.881 -0.3215  0.4030  0.5725
14522TIP3   OH264980   0.480   3.635   3.538 -0.1305  0.3821 -0.5309
14522TIP3    H164981   0.564   3.590   3.531 -0.6776 -0.4736 -1.7722
14522TIP3    H264982   0.484   3.678   3.624  0.5542 -1.7153  0.5672
14523TIP3   OH264983   2.384   1.644  14.682  0.5888  0.0803 -0.3382
14523TIP3    H164984   2.351   1.590  14.754 -0.6936 -1.0545 -1.7017
14523TIP3    H264985   2.307   1.691  14.651  0.4339 -1.5640 -2.7181
14524TIP3   OH264986   5.741   6.579   4.365 -0.4059  0.1731 -0.0001
14524TIP3    H164987   5.665   6.617   4.410  0.0897  2.1019 -0.6666
14524TIP3    H264988   5.706   6.550   4.280 -0.3209  1.7412 -0.6123
14525TIP3   OH264989   6.100   4.777  12.968 -1.0632  0.3143 -0.1185
14525TIP3    H164990   6.071   4.845  12.907 -1.6866 -0.5570 -0.8126
14525TIP3    H264991   6.082   4.814  13.054  1.2559  2.2275 -0.3309
14526TIP3   OH264992   2.317   3.481  16.461  0.0159 -0.3814  0.3284
14526TIP3    H164993   2.364   3.541  16.519  0.9569 -0.4017 -0.3929
14526TIP3    H264994   2.245   3.447  16.515 -0.0664  0.7803  0.9954
14527TIP3   OH264995   4.518   2.007   4.122  0.2603  0.1862 -0.0997
14527TIP3    H164996   4.594   1.956   4.153  0.0232 -0.3378 -0.3630
14527TIP3    H264997   4.498   2.065   4.195 -0.0104 -0.7215  0.5717
14528TIP3   OH264998   3.153   5.132  15.332 -0.3865  0.3462 -0.3808
14528TIP3    H164999   3.069   5.105  15.368 -0.6475  0.2003 -1.0680
14528TIP3    H265000   3.218   5.101  15.395 -0.7467 -0.9095 -0.5938
14529TIP3   OH265001   4.048   1.593  16.700 -0.4866 -0.5770 -0.6112
14529TIP3    H165002   4.002   1.537  16.638  0.2305 -1.0711 -0.6984
14529TIP3    H265003   3.985   1.606  16.772 -1.1116 -0.4572 -1.1676
14530TIP3   OH265004   6.231   4.492   5.709  0.2523 -0.4556  0.3091
14530TIP3    H165005   6.226   4.585   5.732 -0.0096 -0.5133  0.4933
14530TIP3    H265006   6.169   4.450   5.769 -0.9354 -0.5199 -0.9071
14531TIP3   OH265007   4.570   3.728   3.046 -0.1941  0.2263  0.1682
14531TIP3    H165008   4.629   3.803   3.053 -0.1463  0.1271  0.8765
14531TIP3    H265009   4.622   3.661   3.001  0.7284 -0.3300  1.9611
14532TIP3   OH265010   1.431   3.281   5.862  0.4587  0.5855 -0.5279
14532TIP3    H165011   1.493   3.323   5.801  0.8818 -1.2223 -1.4086
14532TIP3    H265012   1.355   3.261   5.808  0.6923 -0.7202 -0.3869
14533TIP3   OH265013   6.693   4.417  11.918 -0.3861  0.4482  0.2415
14533TIP3    H165014   6.696   4.363  11.839  1.2332  0.1573  0.4672
14533TIP3    H265015   6.729   4.361  11.987 -2.0354  0.5913  1.2881
14534TIP3   OH265016   3.468   0.833  16.271  0.1385 -0.2524 -0.0204
14534TIP3    H165017   3.392   0.785  16.304 -0.6604  0.4500 -0.7669
14534TIP3    H265018   3.537   0.818  16.335 -0.2503 -1.9450  0.0301
14535TIP3   OH265019   5.454   2.630   2.704  0.3029  0.3830  0.5020
14535TIP3    H165020   5.462   2.613   2.798  1.0594  0.4485  0.4505
14535TIP3    H265021   5.533   2.591   2.666  0.1166  0.5710 -0.0782
14536TIP3   OH265022   2.849   5.246   0.620  0.0825 -0.5526  0.2454
14536TIP3    H165023   2.926   5.226   0.566  0.7510 -0.8619  1.2814
14536TIP3    H265024   2.829   5.338   0.601  0.2977 -0.6598 -0.5265
14537TIP3   OH265025   6.630   5.975  13.247 -0.3533 -0.0276 -0.5292
14537TIP3    H165026   6.657   5.898  13.297 -1.7156 -1.9942 -2.6113
14537TIP3    H265027   6.712   6.022  13.229  0.4147 -0.4810  1.4767
14538TIP3   OH265028   3.692   2.749  16.998 -0.1701  0.1126 -0.2072
14538TIP3    H165029   3.699   2.661  16.960 -1.0744 -0.3917  0.7420
14538TIP3    H265030   3.758   2.800  16.952  0.4789 -1.1020 -0.6770
14539TIP3   OH265031   5.528   3.818   1.731 -0.0957  0.0749 -0.3401
14539TIP3    H165032   5.510   3.726   1.711  1.1981 -0.0860 -0.8613
14539TIP3    H265033   5.522   3.862   1.646 -1.3022  0.5892 -0.0009
14540TIP3   OH265034   3.814   0.871  11.368 -0.3525 -0.2719 -0.1493
14540TIP3    H165035   3.823   0.878  11.273  2.1485  1.6905  0.1203
14540TIP3    H265036   3.755   0.942  11.391  0.8925  0.7929 -0.0989
14541TIP3   OH265037   1.532   1.153  11.117  0.0664  0.0589  0.5448
14541TIP3    H165038   1.614   1.125  11.076 -0.2290 -1.4099  0.8980
14541TIP3    H265039   1.505   1.078  11.171 -0.3652  1.3510  2.1978
14542TIP3   OH265040   6.504   3.917  15.766 -0.4266  0.0608 -0.0054
14542TIP3    H165041   6.555   3.996  15.750 -0.2546 -0.2477 -1.0807
14542TIP3    H265042   6.483   3.920  15.859 -1.2816  1.8764 -0.2165
14543TIP3   OH265043   6.123   0.281   1.521  0.3341  0.0968 -0.0119
14543TIP3    H165044   6.189   0.244   1.579  1.1807  0.6096 -0.6293
14543TIP3    H265045   6.083   0.352   1.572 -0.3473 -0.7596  0.6726
14544TIP3   OH265046   2.515   4.669   3.699 -0.0524 -0.6307  0.5595
14544TIP3    H165047   2.502   4.610   3.773 -0.7791 -1.3547 -0.1261
14544TIP3    H265048   2.584   4.628   3.646 -0.6784 -0.9800 -0.0083
14545TIP3   OH265049   4.058   6.217  14.398  0.5613  0.6385  0.1627
14545TIP3    H165050   4.073   6.132  14.440  0.0172  0.0791 -0.7399
14545TIP3    H265051   4.025   6.195  14.310 -1.1492  1.7690  0.4644
14546TIP3   OH265052   0.355   1.364  15.344  0.2691  0.0722 -0.1079
14546TIP3    H165053   0.423   1.419  15.384 -0.7113  0.8463  0.5497
14546TIP3    H265054   0.390   1.275  15.348  1.2326  0.4589  0.2413
14547TIP3   OH265055   2.694   3.505  14.951 -0.0097 -0.0127  0.3855
14547TIP3    H165056   2.712   3.587  14.997  0.5750 -0.8591  1.7602
14547TIP3    H265057   2.599   3.498  14.950 -0.1048  1.1378 -0.6411
14548TIP3   OH265058   2.864   1.756   0.745 -0.0219  0.1256  0.3467
14548TIP3    H165059   2.862   1.738   0.651 -1.2422  0.4466  0.2882
14548TIP3    H265060   2.951   1.792   0.761  0.2282 -0.0060 -0.6511
14549TIP3   OH265061   5.959   3.087   3.912  0.0062 -0.1136  0.6384
14549TIP3    H165062   5.952   3.148   3.986  1.8957 -1.8245  2.3842
14549TIP3    H265063   5.912   3.009   3.942  0.8637 -0.8610  0.0827
14550TIP3   OH265064   1.529   4.030  14.467 -0.2452 -0.5051  0.4731
14550TIP3    H165065   1.613   4.029  14.513  0.5078 -0.3330 -0.8218
14550TIP3    H265066   1.491   3.944  14.482  0.2522 -0.6438  0.9394
14551TIP3   OH265067   6.419   2.956   1.653  0.1917  0.0631 -0.2669
14551TIP3    H165068   6.378   2.954   1.739 -0.7770  1.3879 -0.6688
14551TIP3    H265069   6.438   3.048   1.637  1.0528 -0.2482 -1.1615
14552TIP3   OH265070   2.455   4.998  10.717  1.0857  0.3008  0.1361
14552TIP3    H165071   2.550   5.001  10.705  1.2604  0.2706  1.4055
14552TIP3    H265072   2.432   4.906  10.703  1.3547  0.1649  0.5610
14553TIP3   OH265073   0.639   4.217  16.507 -0.1987  0.2815  0.3975
14553TIP3    H165074   0.650   4.153  16.436  0.9590 -0.1581  0.9482
14553TIP3    H265075   0.573   4.277  16.474 -0.3704 -0.4558 -0.6731
14554TIP3   OH265076   0.030   3.016   2.485 -0.3930 -0.2209  0.1768
14554TIP3    H165077   0.056   2.934   2.442 -1.8023 -0.4463 -0.2827
14554TIP3    H265078   0.113   3.061   2.503  0.3332 -1.1348 -0.7792
14555TIP3   OH265079   3.335   1.391   2.034 -0.2689  0.0981  0.5050
14555TIP3    H165080   3.384   1.336   2.094 -0.6009 -0.8999 -0.1221
14555TIP3    H265081   3.245   1.388   2.068  0.0005  1.7302  1.5139
14556TIP3   OH265082   4.878   1.450  15.517  0.2695 -0.6473 -0.1168
14556TIP3    H165083   4.913   1.459  15.605 -1.4198 -0.0041  0.5145
14556TIP3    H265084   4.955   1.453  15.460  1.4109 -1.3945  1.3343
14557TIP3   OH265085   1.462   2.325   5.435  0.4674 -0.0352  0.1967
14557TIP3    H165086   1.513   2.406   5.442 -0.1728  0.4331 -0.4682
14557TIP3    H265087   1.402   2.328   5.510 -1.7735  1.7115 -1.5493
14558TIP3   OH265088   6.643   0.959   0.747  0.0599  0.1679  0.2809
14558TIP3    H165089   6.695   1.026   0.791 -1.4799  1.7848 -0.2647
14558TIP3    H265090   6.579   0.931   0.812  0.3732 -0.4050  0.3437
14559TIP3   OH265091   2.067   4.824  13.948  0.1123  0.4287 -0.9058
14559TIP3    H165092   2.098   4.815  14.038 -1.3958  4.0909  0.1754
14559TIP3    H265093   1.991   4.766  13.944 -1.4076  2.1047  1.1643
14560TIP3   OH265094   0.073   1.237  14.807 -0.3087  0.1959  0.0086
14560TIP3    H165095   0.016   1.269  14.878  1.1100  1.6821  0.5274
14560TIP3    H265096   0.058   1.298  14.735  0.2114  0.2589 -0.0472
14561TIP3   OH265097   0.745   1.009  15.116  0.3421  0.3452 -0.0424
14561TIP3    H165098   0.800   0.957  15.056  1.4224  0.1959  1.0361
14561TIP3    H265099   0.788   1.094  15.119  0.6022  0.1907  0.9046
14562TIP3   OH265100   5.932   3.250  11.620 -0.0109  0.1494 -0.6982
14562TIP3    H165101   5.886   3.167  11.630 -0.7073  0.6499  0.4510
14562TIP3    H265102   5.929   3.268  11.526  0.2518 -1.1616 -0.9856
14563TIP3   OH265103   0.010   1.812   0.534  0.4089  0.3102  0.0117
14563TIP3    H165104  -0.070   1.763   0.554  0.1384  0.5590 -0.4473
14563TIP3    H265105  -0.015   1.904   0.543  0.8841  0.3810  0.7533
14564TIP3   OH265106   1.152   0.440  15.048  1.0429  0.0507  0.2479
14564TIP3    H165107   1.078   0.393  15.086  0.2689  0.3452 -0.8369
14564TIP3    H265108   1.153   0.413  14.956  2.2594  0.0906  0.2345
14565TIP3   OH265109   0.881   1.999  14.448  0.1380  0.3185  0.3298
14565TIP3    H165110   0.876   2.025  14.356  2.1238  0.2029  0.1356
14565TIP3    H265111   0.962   1.949  14.453  0.1208  0.4370  2.1757
14566TIP3   OH265112   6.052   4.636   3.620 -0.5096  0.4143  0.3599
14566TIP3    H165113   6.073   4.675   3.705  0.3833  1.1086 -0.1706
14566TIP3    H265114   6.102   4.555   3.618  1.5843  1.6562 -0.5496
14567TIP3   OH265115   0.973   0.724   5.709  0.0068  0.2599 -0.2055
14567TIP3    H165116   1.009   0.766   5.787  0.6175  5.6323 -2.8551
14567TIP3    H265117   0.881   0.708   5.730  0.9290 -2.1367  2.6671
14568TIP3   OH265118   0.613   6.176   5.550 -0.3344  0.2407  0.5357
14568TIP3    H165119   0.565   6.238   5.495  0.7115  1.2943  0.7611
14568TIP3    H265120   0.684   6.228   5.588  0.5715 -1.1005  0.7497
14569TIP3   OH265121   2.988   3.400   3.872  0.0200 -0.1201  0.0644
14569TIP3    H165122   2.947   3.331   3.819  0.0575 -0.8316  0.9446
14569TIP3    H265123   3.011   3.468   3.809  0.2732 -1.0472 -0.8687
14570TIP3   OH265124   6.440   1.257  11.726 -0.0266 -0.0128 -0.1306
14570TIP3    H165125   6.532   1.245  11.751 -0.1851  0.8294  0.8922
14570TIP3    H265126   6.443   1.313  11.649  0.3206 -0.1594 -0.2267
14571TIP3   OH265127   4.465   5.174  12.559 -0.2522  0.3870 -0.2539
14571TIP3    H165128   4.434   5.202  12.645 -0.6531 -2.5328  0.6537
14571TIP3    H265129   4.539   5.232  12.540 -1.8416  2.8930  0.7575
14572TIP3   OH265130   4.286   0.525  17.080  0.0827  0.0047 -0.3147
14572TIP3    H165131   4.376   0.551  17.095  0.6482 -2.6127  1.4461
14572TIP3    H265132   4.283   0.433  17.105 -3.3992  0.3514  1.1181
14573TIP3   OH265133   2.366   3.714  13.814 -0.1752 -0.5212  0.0775
14573TIP3    H165134   2.377   3.802  13.850  4.8590 -0.5987 -0.5706
14573TIP3    H265135   2.378   3.655  13.889 -1.3611 -0.7218  0.1316
14574TIP3   OH265136   1.326   6.235  13.582 -0.0137  0.1632  0.1023
14574TIP3    H165137   1.237   6.208  13.561  0.4339 -1.2887 -0.0033
14574TIP3    H265138   1.317   6.287  13.662 -0.8548 -0.6360  0.5430
14575TIP3   OH265139   3.081   1.289   2.615  0.3005 -0.0477 -0.3587
14575TIP3    H165140   3.078   1.273   2.709 -1.1832  1.4509 -0.1014
14575TIP3    H265141   3.000   1.251   2.581  2.3909 -3.8507 -1.7275
14576TIP3   OH265142   2.311   0.467  11.662 -0.1693 -0.1264 -0.3843
14576TIP3    H165143   2.358   0.392  11.626 -2.0990 -1.9442  0.6630
14576TIP3    H265144   2.257   0.430  11.732 -0.1139  2.5016  1.1835
14577TIP3   OH265145   3.052   1.154   4.468  0.4035  0.5313 -0.1145
14577TIP3    H165146   3.031   1.247   4.457 -1.3129  0.1754 -0.1033
14577TIP3    H265147   2.993   1.124   4.538  0.1929 -0.7892 -0.8226
14578TIP3   OH265148   4.342   4.302  11.659  0.1057 -0.0825  0.0306
14578TIP3    H165149   4.262   4.336  11.700  0.1980 -0.0020  0.1447
14578TIP3    H265150   4.389   4.260  11.731  0.1769 -0.1114 -0.0333
14579TIP3   OH265151   5.858   0.630   0.548  0.2110 -0.1710  0.3392
14579TIP3    H165152   5.898   0.588   0.624 -1.3209 -1.4068  0.5373
14579TIP3    H265153   5.887   0.577   0.474  2.3046  1.4737 -0.0927
14580TIP3   OH265154   3.887   3.739  13.867  0.4012  0.7243  0.0106
14580TIP3    H165155   3.929   3.822  13.886 -0.5115  1.5188 -1.2678
14580TIP3    H265156   3.946   3.673  13.903  1.8602  1.8554 -0.2310
14581TIP3   OH265157   0.845   5.440   0.358  0.3472  0.5939  0.0985
14581TIP3    H165158   0.848   5.472   0.268 -0.2330  0.2560 -0.0484
14581TIP3    H265159   0.935   5.415   0.377  0.1218 -1.5077 -1.2180
14582TIP3   OH265160   3.526   2.200  12.361 -0.1497  0.2494 -0.1107
14582TIP3    H165161   3.594   2.141  12.393  1.1117  1.3542 -0.6929
14582TIP3    H265162   3.446   2.168  12.403  0.8961 -0.3868  1.4986
14583TIP3   OH265163   2.593   2.171  12.637 -0.5274  0.2819 -0.0323
14583TIP3    H165164   2.658   2.102  12.623 -0.4353  0.7281 -2.1167
14583TIP3    H265165   2.638   2.252  12.613 -1.4816  0.7358 -0.3272
14584TIP3   OH265166   1.726   1.577   3.497  0.2007  0.3122 -0.6856
14584TIP3    H165167   1.755   1.501   3.546 -0.3629  1.0911  0.9139
14584TIP3    H265168   1.728   1.649   3.560 -0.1823  1.4390 -1.9087
14585TIP3   OH265169   3.320   0.166   2.628 -0.1030  0.0923 -1.1497
14585TIP3    H165170   3.243   0.111   2.616 -0.7153  0.9023 -1.0598
14585TIP3    H265171   3.369   0.158   2.547  0.6496 -1.8158 -0.5550
14586TIP3   OH265172   6.551   3.545   1.293  0.4111 -0.0456  0.2205
14586TIP3    H165173   6.470   3.505   1.262  0.2602  0.2130  0.2751
14586TIP3    H265174   6.537   3.557   1.387 -0.2183  1.6655 -0.0535
14587TIP3   OH265175   6.594   5.245   1.698  0.2014 -0.4240  0.5648
14587TIP3    H165176   6.669   5.261   1.640  0.6332 -1.1442  0.9059
14587TIP3    H265177   6.588   5.324   1.751 -1.7884  1.4075 -2.1049
14588TIP3   OH265178   0.724   6.276   4.037  0.1789 -0.4329 -0.3892
14588TIP3    H165179   0.654   6.227   3.995  0.3141 -0.2895 -0.7859
14588TIP3    H265180   0.802   6.223   4.022  0.1791 -0.5311 -0.0547
14589TIP3   OH265181   3.660   4.621  13.792  0.3178  0.1906  0.4203
14589TIP3    H165182   3.712   4.697  13.819  0.1423  0.8855 -1.0789
14589TIP3    H265183   3.580   4.658  13.756  0.0918 -0.7189 -0.0477
14590TIP3   OH265184   2.761   4.727  15.083  0.1751  0.4785  0.2238
14590TIP3    H165185   2.816   4.805  15.073 -0.4459  0.8881 -0.0069
14590TIP3    H265186   2.725   4.734  15.171 -1.1759  1.3073 -0.3710
14591TIP3   OH265187   5.984   4.036  14.434 -0.1115  0.5133  0.3020
14591TIP3    H165188   5.931   4.012  14.358 -1.0031  1.7611  0.4990
14591TIP3    H265189   6.031   3.956  14.457 -2.1038 -0.7287  0.2671
14592TIP3   OH265190   0.233   1.998   5.930 -0.3770 -0.2913  0.2538
14592TIP3    H165191   0.153   2.040   5.897 -0.1286 -0.9576 -1.3207
14592TIP3    H265192   0.202   1.919   5.973 -0.7506  0.8385  2.1914
14593TIP3   OH265193   2.379   5.322   4.558 -0.1982 -0.1485  0.0056
14593TIP3    H165194   2.308   5.258   4.564 -1.1595  0.9124  0.1115
14593TIP3    H265195   2.425   5.313   4.641  1.0006 -2.1652 -0.7865
14594TIP3   OH265196   0.061   1.723   3.974  0.2596  0.8014 -0.4187
14594TIP3    H165197   0.006   1.792   4.011  0.5989  0.3630  0.9674
14594TIP3    H265198   0.150   1.758   3.976  0.8977 -0.6317  3.0390
14595TIP3   OH265199   2.973   6.243  13.104 -0.1115 -0.0827  0.0077
14595TIP3    H165200   3.017   6.325  13.084  0.3376 -0.7097 -1.8338
14595TIP3    H265201   2.882   6.268  13.121  0.2996  0.9090  0.8038
14596TIP3   OH265202   4.784   5.404   0.348 -0.6508 -0.1046 -0.3562
14596TIP3    H165203   4.737   5.471   0.299 -1.2587  0.1913  0.6034
14596TIP3    H265204   4.863   5.388   0.297 -0.2828  1.6342 -0.3878
14597TIP3   OH265205   2.532   5.266   2.474 -0.6991  0.0888  0.5907
14597TIP3    H165206   2.598   5.205   2.506 -0.2186  0.9092  1.1931
14597TIP3    H265207   2.451   5.215   2.474  0.0040 -1.1105 -0.7481
14598TIP3   OH265208   0.071   4.878  12.812 -0.4671  0.0173 -0.3566
14598TIP3    H165209   0.057   4.930  12.733  1.2644  0.5271 -0.3530
14598TIP3    H265210  -0.017   4.845  12.834 -1.6742  2.8956 -0.3562
14599TIP3   OH265211   0.647   0.268  13.951 -0.2087 -0.0232 -0.1347
14599TIP3    H165212   0.663   0.342  13.892 -1.0503 -0.3517 -0.7940
14599TIP3    H265213   0.733   0.247  13.987  0.2282  0.5263 -0.8363
14600TIP3   OH265214   0.646   2.122  12.016 -0.6849  0.8159 -0.3548
14600TIP3    H165215   0.662   2.204  11.969  2.6964  1.1069  0.9724
14600TIP3    H265216   0.697   2.057  11.968 -1.4793 -0.0209 -0.0880
14601TIP3   OH265217   0.853   1.414   4.276  0.3750  0.6319 -0.1708
14601TIP3    H165218   0.823   1.359   4.349  2.6233 -0.3708  0.0663
14601TIP3    H265219   0.851   1.503   4.310 -0.9347  0.4690  0.2604
14602TIP3   OH265220   3.777   2.258  13.800 -0.2264 -0.3728  0.1667
14602TIP3    H165221   3.742   2.221  13.719  0.8165 -0.9619 -0.0248
14602TIP3    H265222   3.836   2.191  13.835  0.1012  0.2709  0.8954
14603TIP3   OH265223   2.195   5.972  14.907  0.0426  0.2880 -0.4239
14603TIP3    H165224   2.234   6.059  14.904  2.7040 -0.7903  0.4199
14603TIP3    H265225   2.266   5.912  14.885 -0.9268 -1.8744  1.7740
14604TIP3   OH265226   5.256   5.826   4.964 -0.0808  0.1762  0.2743
14604TIP3    H165227   5.184   5.795   4.909  0.5992 -0.1658 -0.4431
14604TIP3    H265228   5.224   5.816   5.053 -0.6197 -0.7324 -0.0120
14605TIP3   OH265229   2.701   4.098   3.935 -0.3540  0.2136 -0.4731
14605TIP3    H165230   2.660   4.184   3.930 -2.4859 -0.6318  0.9800
14605TIP3    H265231   2.691   4.071   4.027  2.9293 -0.4038 -0.1549
14606TIP3   OH265232   2.129   5.050  15.293  0.0606 -0.0670  0.2401
14606TIP3    H165233   2.069   5.069  15.365 -1.8177 -0.5753 -1.0925
14606TIP3    H265234   2.111   5.118  15.229 -0.9897 -1.6491 -1.2437
14607TIP3   OH265235   2.020   4.360   2.235 -0.1139 -0.1016  0.1518
14607TIP3    H165236   1.962   4.394   2.303 -0.4982 -0.6423  0.0994
14607TIP3    H265237   2.108   4.373   2.270 -0.2046  1.5171 -0.1319
14608TIP3   OH265238   5.101   2.785   3.854  0.3010 -0.1799  0.0669
14608TIP3    H165239   5.190   2.771   3.822  1.2599 -1.1229  2.8266
14608TIP3    H265240   5.081   2.705   3.903 -0.0260  1.9114  3.7095
14609TIP3   OH265241   4.857   2.718  13.745 -0.1564 -0.3610  0.5457
14609TIP3    H165242   4.809   2.689  13.823  0.5802 -0.4075  0.9905
14609TIP3    H265243   4.869   2.812  13.757 -1.6566 -0.0117 -0.4121
14610TIP3   OH265244   2.884   3.282  10.490  0.4349 -0.4116 -0.4899
14610TIP3    H165245   2.932   3.349  10.441  0.3944  0.2810  0.3969
14610TIP3    H265246   2.792   3.296  10.466  0.3752  0.1697  0.0573
14611TIP3   OH265247   4.304   3.211   5.463  0.0126  0.1044 -0.1984
14611TIP3    H165248   4.395   3.242   5.460  0.3016 -0.6221  0.5499
14611TIP3    H265249   4.301   3.153   5.539 -1.0262 -0.0671 -0.3529
14612TIP3   OH265250   5.107   0.598  11.541  0.9384  0.2332 -0.4727
14612TIP3    H165251   5.089   0.677  11.593  1.2390 -0.0938  0.1391
14612TIP3    H265252   5.188   0.563  11.578 -0.0819 -1.3142  0.4051
14613TIP3   OH265253   3.677   4.849  10.880 -0.2182 -0.2422  0.3758
14613TIP3    H165254   3.682   4.931  10.830  0.6333  0.9123  2.2342
14613TIP3    H265255   3.730   4.787  10.829  0.1076  0.6932 -0.4762
14614TIP3   OH265256   1.161   0.443  12.905 -0.2139  0.3082  0.0452
14614TIP3    H165257   1.132   0.518  12.957 -0.6421  1.1909 -1.4118
14614TIP3    H265258   1.082   0.415  12.857 -0.0700 -1.1121  0.5989
14615TIP3   OH265259   5.794   5.755  14.886 -0.1599  0.7163 -0.0971
14615TIP3    H165260   5.829   5.835  14.925  0.7962  0.2119  0.1000
14615TIP3    H265261   5.739   5.786  14.814  3.1804  1.4839 -2.5101
14616TIP3   OH265262   5.702   6.487   1.943  0.8300 -0.7915  0.6926
14616TIP3    H165263   5.696   6.475   2.037 -1.1127  2.4708  1.1405
14616TIP3    H265264   5.621   6.532   1.919  1.5398 -0.9089 -2.4484
14617TIP3   OH265265   3.098   3.510  11.456 -0.3172 -0.4330  0.0751
14617TIP3    H165266   3.088   3.604  11.472 -0.5894 -0.3260 -0.6916
14617TIP3    H265267   3.186   3.490  11.487 -0.7374 -0.1988  1.4624
14618TIP3   OH265268   1.107   1.267  11.788  0.0133 -0.5913 -0.3257
14618TIP3    H165269   1.076   1.242  11.701  1.5170  1.1138 -1.4475
14618TIP3    H265270   1.098   1.362  11.790  1.8335 -0.3883  0.5746
14619TIP3   OH265271   5.158   1.286  15.955 -1.1643 -0.2559  0.5199
14619TIP3    H165272   5.176   1.372  15.992  0.9942 -0.4787  0.1055
14619TIP3    H265273   5.211   1.226  16.007 -1.5751 -1.1619 -0.0784
14620TIP3   OH265274   1.564   1.320  12.651 -0.3258 -0.5826 -0.2317
14620TIP3    H165275   1.627   1.345  12.718 -1.9265  1.7686  0.5365
14620TIP3    H265276   1.609   1.337  12.568  0.6449 -0.6725  0.2622
14621TIP3   OH265277   4.410   1.984   5.041  0.2688  0.6010  0.1146
14621TIP3    H165278   4.430   2.063   5.092  0.1593 -0.0245  1.1591
14621TIP3    H265279   4.453   1.999   4.957  1.6025  1.0991  0.8494
14622TIP3   OH265280   3.062   6.565   0.221  0.6671 -0.0004  0.2730
14622TIP3    H165281   3.117   6.534   0.149  0.1418  0.1748 -0.2083
14622TIP3    H265282   3.086   6.509   0.295  0.1143 -1.2241 -0.4421
14623TIP3   OH265283   5.716   0.705  16.485  0.4678  0.2143  0.8633
14623TIP3    H165284   5.795   0.748  16.451  0.1531 -0.0405 -0.2030
14623TIP3    H265285   5.737   0.688  16.577  1.9991 -0.5909  0.4180
14624TIP3   OH265286   5.417   2.342   1.537 -0.0475  0.2572 -0.3067
14624TIP3    H165287   5.362   2.304   1.467 -1.8005  0.5539  0.8495
14624TIP3    H265288   5.358   2.398   1.586  1.5724  1.3930  0.4193
14625TIP3   OH265289   0.127   5.992  16.168 -0.5903 -0.6394  0.1072
14625TIP3    H165290   0.039   6.012  16.198  0.2249  1.1607  1.5837
14625TIP3    H265291   0.127   6.013  16.075 -0.9020  2.8463  0.7597
14626TIP3   OH265292   1.258   4.626   4.746  0.1792  0.2745  0.2112
14626TIP3    H165293   1.216   4.548   4.783 -0.5115  0.2528 -0.6020
14626TIP3    H265294   1.327   4.647   4.809 -0.0069 -0.6403  0.7478
14627TIP3   OH265295   5.771   2.296  14.172  0.2218  0.0023 -0.4239
14627TIP3    H165296   5.704   2.266  14.112 -0.3034  0.3250 -0.0095
14627TIP3    H265297   5.728   2.298  14.258  0.5866  0.7545 -0.2447
14628TIP3   OH265298   3.456   3.095  13.562  0.7726  0.1342 -0.3583
14628TIP3    H165299   3.389   3.163  13.564 -1.2312 -1.7463  0.4801
14628TIP3    H265300   3.450   3.057  13.475  0.7872 -0.0367 -0.2842
14629TIP3   OH265301   4.468   5.646   4.680  0.5246  0.3470 -0.4966
14629TIP3    H165302   4.444   5.565   4.636 -0.4988  0.7486 -0.7115
14629TIP3    H265303   4.385   5.681   4.713  1.2148  0.1835  1.5634
14630TIP3   OH265304   0.017   0.671   5.423  0.0645 -0.2177  0.8340
14630TIP3    H165305   0.099   0.709   5.453  1.0415 -2.1739  0.7606
14630TIP3    H265306   0.040   0.625   5.342 -0.6676 -2.2872  1.7286
14631TIP3   OH265307   6.454   5.516  15.083  0.5306  0.0114 -0.1416
14631TIP3    H165308   6.408   5.528  15.000 -0.2748 -1.8159 -0.0133
14631TIP3    H265309   6.394   5.552  15.149  0.9954  1.0991 -0.2967
14632TIP3   OH265310   6.107   6.521   6.170  0.0461 -0.1934  0.1370
14632TIP3    H165311   6.015   6.497   6.172  0.4916 -2.3481  3.4838
14632TIP3    H265312   6.153   6.442   6.142  0.9394  0.7268 -1.1125
14633TIP3   OH265313   1.615   0.868   1.962 -0.3142  0.5803 -0.5447
14633TIP3    H165314   1.621   0.961   1.938  0.0938  0.5370 -0.6100
14633TIP3    H265315   1.700   0.832   1.940 -1.1890 -0.3272 -2.6956
14634TIP3   OH265316   1.481   1.698  13.415 -0.1047 -0.0726  0.0808
14634TIP3    H165317   1.551   1.763  13.417  1.8466 -2.0009 -1.5728
14634TIP3    H265318   1.431   1.719  13.336  2.2406 -2.1176 -2.0988
14635TIP3   OH265319   6.746   1.517   2.676  0.4746  0.0084 -0.0627
14635TIP3    H165320   6.768   1.598   2.630  1.8742 -0.5526 -0.4453
14635TIP3    H265321   6.830   1.487   2.713  0.1174 -1.5969 -0.4815
14636TIP3   OH265322   2.726   4.440   2.518 -0.2046  0.3208 -0.8447
14636TIP3    H165323   2.709   4.517   2.464 -0.0082  0.4928 -0.6565
14636TIP3    H265324   2.685   4.368   2.469  0.2810  0.4201 -1.4058
14637TIP3   OH265325   3.570   1.010   2.463 -0.4136  0.5129 -0.2654
14637TIP3    H165326   3.498   1.034   2.521  0.0066 -0.6917  0.7885
14637TIP3    H265327   3.649   1.037   2.510 -0.0235 -1.2403  0.1720
14638TIP3   OH265328   1.041   0.188  15.738 -0.4345  0.0374  0.2946
14638TIP3    H165329   1.053   0.191  15.643 -2.1867 -0.2819  0.0343
14638TIP3    H265330   0.964   0.133  15.751  0.7270 -1.3225  2.0149
14639TIP3   OH265331   5.970   2.482   4.138  0.1738  0.1333 -0.1949
14639TIP3    H165332   6.060   2.463   4.110  0.1733 -0.4406  0.1629
14639TIP3    H265333   5.927   2.397   4.135 -0.1614  0.2864  0.3356
14640TIP3   OH265334   1.536   5.388  15.863 -0.0960 -0.1133 -0.2335
14640TIP3    H165335   1.534   5.477  15.900  2.5163 -0.5846  1.3344
14640TIP3    H265336   1.462   5.344  15.904 -0.9858  1.1266 -0.4548
14641TIP3   OH265337   3.295   4.027   5.617  0.2016 -0.4692  0.1535
14641TIP3    H165338   3.242   4.071   5.551 -1.2013 -0.5289  1.1812
14641TIP3    H265339   3.297   4.089   5.690 -1.5213 -1.8939  1.4960
14642TIP3   OH265340   0.109   2.998  15.298 -0.9339  0.3263  0.2385
14642TIP3    H165341   0.093   3.014  15.391  0.4432  2.4446  0.1969
14642TIP3    H265342   0.097   3.083  15.257  0.9152 -0.0030 -1.1163
14643TIP3   OH265343   4.131   3.069  16.256 -0.2012 -0.5505  0.1724
14643TIP3    H165344   4.128   3.022  16.173 -0.5420 -0.3333  0.0609
14643TIP3    H265345   4.089   3.153  16.238  1.4879  0.3034  0.0530
14644TIP3   OH265346   0.059   0.318  14.810  0.4326  0.2949 -0.3196
14644TIP3    H165347  -0.011   0.288  14.752  1.1660 -0.1834 -0.9706
14644TIP3    H265348   0.044   0.270  14.892 -1.3889  1.9366  0.3944
14645TIP3   OH265349   4.050   3.362   4.986  0.2903  0.1334 -0.3012
14645TIP3    H165350   4.099   3.384   4.907 -2.6065 -0.6234 -2.4375
14645TIP3    H265351   3.978   3.425   4.989  0.1706 -0.0364  1.6005
14646TIP3   OH265352   6.774   2.573  13.044  0.4430 -0.7448 -0.1780
14646TIP3    H165353   6.741   2.531  12.965 -0.9703  1.3874 -0.8272
14646TIP3    H265354   6.696   2.585  13.099  1.1227 -0.6948  0.7908
14647TIP3   OH265355   3.608   0.304   1.617  0.5032  0.7439 -0.1499
14647TIP3    H165356   3.668   0.344   1.680  0.6957 -0.5055  0.4994
14647TIP3    H265357   3.607   0.211   1.641  0.1397  0.3354 -1.6503
14648TIP3   OH265358   4.770   3.929   3.042 -0.5153  0.1807 -0.4452
14648TIP3    H165359   4.761   3.997   3.108 -2.4109 -1.2262  0.8706
14648TIP3    H265360   4.821   3.860   3.086 -0.1658  0.0085 -1.1130
14649TIP3   OH265361   0.890   2.070   0.174  0.5030 -0.5118  0.2569
14649TIP3    H165362   0.907   1.979   0.147  1.9254 -0.2226  0.0838
14649TIP3    H265363   0.961   2.120   0.134 -2.3994  1.3774 -3.1814
14650TIP3   OH265364   6.498   2.069  15.449 -0.0736 -0.6602 -0.4003
14650TIP3    H165365   6.589   2.096  15.448 -0.1456 -0.0250  2.2876
14650TIP3    H265366   6.450   2.143  15.413  0.3694 -0.5354 -0.7376
14651TIP3   OH265367   1.164   4.784   2.931  0.0213 -0.0015 -0.3113
14651TIP3    H165368   1.222   4.746   2.997 -0.8239 -0.6624  0.0570
14651TIP3    H265369   1.109   4.845   2.980 -0.0151  0.1613 -0.5550
14652TIP3   OH265370   2.014   2.435  14.934 -0.0489  0.4380  0.2372
14652TIP3    H165371   2.034   2.483  14.853 -0.3616  0.2516  0.0460
14652TIP3    H265372   1.921   2.415  14.927  0.2238 -0.8481 -0.0410
14653TIP3   OH265373   1.401   5.873   6.012  0.2038 -0.4210  0.5732
14653TIP3    H165374   1.399   5.779   5.991  1.4243 -0.3473  0.0235
14653TIP3    H265375   1.423   5.876   6.106 -0.1148 -0.6821  0.6591
14654TIP3   OH265376   3.350   4.885   2.321  0.3279 -0.1260 -0.1426
14654TIP3    H165377   3.425   4.927   2.280  1.1220 -1.3359  0.0448
14654TIP3    H265378   3.347   4.923   2.410  2.0035 -1.5807  0.5742
14655TIP3   OH265379   6.292   0.258   2.647  0.0599 -0.3125  0.5532
14655TIP3    H165380   6.271   0.217   2.731  2.8863 -0.7946  1.1286
14655TIP3    H265381   6.244   0.341   2.648 -1.2395 -1.0354  1.9036
14656TIP3   OH265382   4.493   1.177   1.057  0.3874 -0.3818  0.4759
14656TIP3    H165383   4.414   1.222   1.087  0.0740  0.2433 -1.1552
14656TIP3    H265384   4.564   1.240   1.073  0.7318 -1.2565  2.6942
14657TIP3   OH265385   4.123   1.299  11.725  0.0782  0.9775 -0.0051
14657TIP3    H165386   4.154   1.334  11.641  1.1772 -1.1804 -0.5641
14657TIP3    H265387   4.131   1.373  11.785  1.7878  1.8766 -1.2192
14658TIP3   OH265388   2.749   4.105  15.001 -0.4976  0.1104  0.3589
14658TIP3    H165389   2.660   4.069  15.008 -0.5016  0.0006 -0.2166
14658TIP3    H265390   2.767   4.107  14.907  0.5964 -1.0536  0.5114
14659TIP3   OH265391   4.755   2.503   2.748 -0.3908  0.4307  0.2550
14659TIP3    H165392   4.745   2.441   2.676  1.3179  0.4837 -0.0879
14659TIP3    H265393   4.805   2.575   2.710  0.0501  0.7234  1.3504
14660TIP3   OH265394   1.520   5.110  15.271  0.1470 -0.0615 -0.2026
14660TIP3    H165395   1.590   5.047  15.287  0.6742  0.8512  1.1711
14660TIP3    H265396   1.562   5.182  15.225  0.0242  0.3142  0.2744
14661TIP3   OH265397   5.607   3.329   3.535 -0.6907 -0.1005 -0.5128
14661TIP3    H165398   5.693   3.304   3.501 -0.2750  0.2201  0.2871
14661TIP3    H265399   5.613   3.313   3.629 -1.4397  0.1143 -0.4267
14662TIP3   OH265400   6.007   2.037  14.988 -0.3228  0.1234 -0.3361
14662TIP3    H165401   5.920   2.006  14.961  0.7663 -1.5285 -2.1987
14662TIP3    H265402   6.054   2.052  14.906  1.5481 -0.1582  0.6314
14663TIP3   OH265403   2.638   3.027   3.901  0.6468 -0.2130 -0.3337
14663TIP3    H165404   2.638   3.004   3.808  1.5431 -1.6482 -0.0066
14663TIP3    H265405   2.701   2.968   3.941  0.2077  0.3088  1.2250
14664TIP3   OH265406   0.774   6.671   6.008  0.0659 -0.3581 -0.3759
14664TIP3    H165407   0.732   6.714   6.082  0.9029 -1.2388  0.6338
14664TIP3    H265408   0.855   6.721   5.994  1.0095 -1.4937  0.7590
14665TIP3   OH265409   6.210   3.582   5.742  0.6229  0.3018  0.2563
14665TIP3    H165410   6.255   3.665   5.757  2.4197 -0.5817 -0.0493
14665TIP3    H265411   6.218   3.536   5.826  1.6685 -0.4714 -0.2442
14666TIP3   OH265412   0.591   5.805  14.784 -0.2407 -0.4297 -0.2468
14666TIP3    H165413   0.623   5.845  14.864  0.8261 -0.5348 -0.6049
14666TIP3    H265414   0.524   5.742  14.813 -1.4290  1.0559  0.3645
14667TIP3   OH265415   1.572   0.223   5.708 -0.0064 -0.2131 -0.2185
14667TIP3    H165416   1.667   0.224   5.721  0.2062  2.8309 -1.1217
14667TIP3    H265417   1.558   0.161   5.637  1.2441 -1.0294  0.2153
14668TIP3   OH265418   5.102   5.852  15.656  0.3001  0.7006 -0.1777
14668TIP3    H165419   5.171   5.912  15.626  0.0803 -0.1954 -2.6736
14668TIP3    H265420   5.022   5.904  15.651  0.5710  1.3789  1.6047
14669TIP3   OH265421   0.120   3.985   4.910 -0.7710  0.2622 -0.2197
14669TIP3    H165422   0.213   4.003   4.927 -1.4538  2.1569  2.1836
14669TIP3    H265423   0.102   4.029   4.827  0.6199 -0.8054 -1.1233
14670TIP3   OH265424   5.956   2.996   4.825 -0.8049  0.1286  0.5936
14670TIP3    H165425   5.983   3.068   4.882 -0.1682 -1.3686  2.2432
14670TIP3    H265426   5.968   2.917   4.877 -0.6209 -1.2867 -1.4685
14671TIP3   OH265427   0.767   6.343   2.771 -0.3305  0.0108 -0.4920
14671TIP3    H165428   0.854   6.305   2.761 -0.8003 -1.5463  0.8293
14671TIP3    H265429   0.775   6.432   2.737  2.0202  0.2316  0.4651
14672TIP3   OH265430   1.109   2.416  13.682 -0.2153  0.1458  0.2625
14672TIP3    H165431   1.077   2.377  13.763  1.0343 -0.1202  0.6546
14672TIP3    H265432   1.149   2.498  13.709  1.9848 -0.8448  0.2680
14673TIP3   OH265433   4.197   6.593   5.925  0.5319  0.4427  0.7587
14673TIP3    H165434   4.247   6.644   5.988  1.1434 -0.5790  1.1380
14673TIP3    H265435   4.214   6.502   5.949 -0.1725  0.0459 -0.1561
14674TIP3   OH265436   0.325   1.267   0.020  0.1353 -0.8878  0.5889
14674TIP3    H165437   0.390   1.218  -0.031  1.2470  1.0499 -0.0025
14674TIP3    H265438   0.344   1.245   0.111  2.3783  0.3555  0.5072
14675TIP3   OH265439   4.416   6.181   3.946  0.4453 -0.1360 -0.5461
14675TIP3    H165440   4.374   6.222   3.871  0.5039 -0.9212 -1.0189
14675TIP3    H265441   4.472   6.113   3.908  0.3884 -0.6183  0.2119
14676TIP3   OH265442   6.787   0.494  10.582  0.0959  0.1158  0.2733
14676TIP3    H165443   6.722   0.557  10.551 -0.3035 -0.3559  0.1506
14676TIP3    H265444   6.736   0.419  10.613  0.5950 -1.8007 -3.0573
14677TIP3   OH265445   2.807   3.275   1.124  0.1672  0.6310  0.0981
14677TIP3    H165446   2.806   3.297   1.031  0.9391  1.1522  0.2027
14677TIP3    H265447   2.721   3.302   1.156  0.1102  0.9998 -0.3477
14678TIP3   OH265448   1.200   2.839   2.484  0.4015 -0.4464  0.3598
14678TIP3    H165449   1.112   2.865   2.510  0.2411 -1.6879  1.1532
14678TIP3    H265450   1.188   2.775   2.414  0.4051 -3.2780  2.7098
14679TIP3   OH265451   3.967   1.845  17.096  0.7102  0.2235  0.0418
14679TIP3    H165452   3.934   1.853  17.007 -0.6623 -0.4254  0.4693
14679TIP3    H265453   4.041   1.906  17.100 -0.3896  1.6950 -0.9889
14680TIP3   OH265454   4.696   5.361   2.926  0.2532  0.5901 -0.5807
14680TIP3    H165455   4.692   5.441   2.873  0.1157 -0.6993 -2.6165
14680TIP3    H265456   4.781   5.323   2.906 -0.1181 -0.3119 -0.4956
14681TIP3   OH265457   0.620   0.750  11.970 -0.1380 -0.2319  0.1991
14681TIP3    H165458   0.622   0.726  11.877 -1.8980  0.9539 -0.1965
14681TIP3    H265459   0.596   0.669  12.016  0.3715 -0.7342 -0.3966
14682TIP3   OH265460   0.889   0.423  15.981 -0.3795 -0.2286 -0.2074
14682TIP3    H165461   0.863   0.351  15.923 -0.0109 -0.6747  0.1769
14682TIP3    H265462   0.823   0.423  16.050 -0.3944 -0.1798 -0.2221
14683TIP3   OH265463   6.409   6.445   1.943 -0.0728  0.3378 -0.0056
14683TIP3    H165464   6.419   6.420   2.035  0.4716  0.4368 -0.0321
14683TIP3    H265465   6.325   6.491   1.939 -0.0170  0.4902  0.4793
14684TIP3   OH265466   5.441   1.002  11.995  0.2988  0.1752  0.1773
14684TIP3    H165467   5.360   1.052  11.986 -0.7500 -1.4818 -0.1239
14684TIP3    H265468   5.499   1.039  11.929 -1.1067 -0.1712 -1.3406
14685TIP3   OH265469   2.906   6.604  15.411  0.1661  0.3938 -0.2754
14685TIP3    H165470   2.986   6.567  15.450  0.0092 -0.5974 -0.8473
14685TIP3    H265471   2.936   6.681  15.363  0.7409  0.1804 -0.2651
14686TIP3   OH265472   5.189   6.287   4.320 -0.1448  0.8642  0.1246
14686TIP3    H165473   5.234   6.327   4.246  1.1116 -0.4510  0.1379
14686TIP3    H265474   5.177   6.196   4.294  1.7960 -0.0428  2.1389
14687TIP3   OH265475   0.712   2.334  15.989  0.4062 -0.3776 -0.0470
14687TIP3    H165476   0.724   2.396  15.917 -2.0289 -0.0235 -0.2417
14687TIP3    H265477   0.667   2.259  15.949 -0.8560 -0.2354  1.0345
14688TIP3   OH265478   0.281   2.201  10.844  0.1954  0.0340 -0.0110
14688TIP3    H165479   0.351   2.229  10.903 -0.1358  1.9961 -0.4623
14688TIP3    H265480   0.210   2.173  10.902  0.8482 -0.6650  0.4615
14689TIP3   OH265481   5.815   5.028   5.463  0.1977 -0.0346  0.2427
14689TIP3    H165482   5.760   4.951   5.451  1.6347 -1.0522 -0.1496
14689TIP3    H265483   5.823   5.038   5.558 -2.3103  1.4187  0.3949
14690TIP3   OH265484   0.183   1.727   6.686  0.4819 -0.1188 -0.4435
14690TIP3    H165485   0.161   1.642   6.724 -1.7965  0.0191 -1.2959
14690TIP3    H265486   0.234   1.706   6.608 -1.0458 -0.8492 -1.3093
14691TIP3   OH265487   3.412   2.824  14.612  0.0881  0.0217 -0.3413
14691TIP3    H165488   3.350   2.781  14.553 -0.7569  1.7726 -0.8178
14691TIP3    H265489   3.390   2.917  14.605  1.5518  0.5014  0.9372
14692TIP3   OH265490   0.200   1.464   5.295 -0.3456  0.4151  0.2140
14692TIP3    H165491   0.273   1.402   5.302 -0.1528  0.4090 -1.3091
14692TIP3    H265492   0.231   1.543   5.338  0.0426 -0.0262  0.7551
14693TIP3   OH265493   2.341   0.997  14.410 -0.5192  0.0363 -0.8439
14693TIP3    H165494   2.313   1.024  14.497 -0.7391  1.4629 -1.3255
14693TIP3    H265495   2.282   1.043  14.350  1.3417  1.3170 -1.8097
14694TIP3   OH265496   3.691   5.467  16.341  0.4388 -0.4649 -0.2712
14694TIP3    H165497   3.613   5.505  16.300  0.9737 -0.0560 -0.9202
14694TIP3    H265498   3.656   5.401  16.401 -0.4988  0.8809  0.7092
14695TIP3   OH265499   3.337   5.508  11.426 -0.0859 -0.3222 -0.9268
14695TIP3    H165500   3.266   5.572  11.424 -1.0510 -1.2120  1.6024
14695TIP3    H265501   3.296   5.427  11.456  1.9700 -0.8160  0.8003
14696TIP3   OH265502   0.481   5.993   0.957  0.3136 -0.1867 -0.0476
14696TIP3    H165503   0.507   6.030   0.873  0.0550  0.4235  0.1429
14696TIP3    H265504   0.392   5.962   0.944 -0.4611  1.7025  0.5603
14697TIP3   OH265505   0.443   0.577  14.684  0.1719 -0.1200 -0.4716
14697TIP3    H165506   0.462   0.670  14.687  3.1293 -0.6218 -0.5034
14697TIP3    H265507   0.352   0.570  14.712  0.1109  2.6801  0.3270
14698TIP3   OH265508   2.706   4.841   6.334 -0.1373 -0.4226  0.2007
14698TIP3    H165509   2.719   4.775   6.265 -1.7782  1.6769 -2.3134
14698TIP3    H265510   2.782   4.832   6.391  0.5634 -3.2781 -1.0159
14699TIP3   OH265511   6.146   1.998  11.599 -0.1820  0.1618  0.7766
14699TIP3    H165512   6.118   2.082  11.561 -1.7386 -0.2384  0.9507
14699TIP3    H265513   6.064   1.953  11.619  0.5865 -1.8729 -0.3154
14700TIP3   OH265514   0.584   4.845  12.277 -0.4969 -0.2898  0.1454
14700TIP3    H165515   0.531   4.789  12.220 -0.2571  0.4271 -0.7885
14700TIP3    H265516   0.602   4.790  12.353 -0.1255 -1.5537 -0.8223
14701TIP3   OH265517   0.008   3.386  12.852 -0.1628 -0.5178  0.5461
14701TIP3    H165518   0.084   3.445  12.853 -0.6024  0.0630  0.4965
14701TIP3    H265519  -0.052   3.426  12.789 -0.3887 -1.1328  0.3685
14702TIP3   OH265520   6.793   0.863   1.858 -0.1542  0.5377  0.3548
14702TIP3    H165521   6.797   0.954   1.886 -0.4809  0.5812  0.2616
14702TIP3    H265522   6.700   0.844   1.848 -0.1558 -0.1611  1.5168
14703TIP3   OH265523   5.785   6.601  14.942  0.1014  0.3122  0.4269
14703TIP3    H165524   5.719   6.641  14.999  0.9654  1.0178  0.9605
14703TIP3    H265525   5.866   6.648  14.963  0.4979  0.4179 -1.1951
14704TIP3   OH265526   3.620   5.076  14.110  0.1410 -0.1902  0.0851
14704TIP3    H165527   3.536   5.110  14.080  1.0483  1.7286 -0.4006
14704TIP3    H265528   3.629   5.108  14.200 -0.2060 -1.4923  0.6046
14705TIP3   OH265529   4.589   4.184   5.320 -0.0749 -0.3087  0.5426
14705TIP3    H165530   4.679   4.152   5.310  0.0572  0.4043 -0.9120
14705TIP3    H265531   4.598   4.280   5.322 -0.8088 -0.2233  0.1394
14706TIP3   OH265532   1.504   5.947   4.875 -0.1869  0.1434  0.1434
14706TIP3    H165533   1.507   6.022   4.815 -1.7182 -0.9064 -1.3548
14706TIP3    H265534   1.499   5.871   4.817  1.0071 -1.1286  1.6306
14707TIP3   OH265535   3.600   6.088   2.749  0.1286  0.0089  0.1456
14707TIP3    H165536   3.604   6.071   2.844 -1.6393 -0.8727  0.0915
14707TIP3    H265537   3.513   6.058   2.723  0.2243  1.1584 -1.6000
14708TIP3   OH265538   3.525   0.099   0.517 -0.0031 -0.3909  0.3803
14708TIP3    H165539   3.525   0.191   0.541  0.0107 -0.1282 -0.6091
14708TIP3    H265540   3.438   0.083   0.480  0.1871 -0.6264  0.0270
14709TIP3   OH265541   5.757   0.629  15.216  0.2562  0.1216 -0.0456
14709TIP3    H165542   5.738   0.715  15.253  1.5342  1.1963 -1.7378
14709TIP3    H265543   5.686   0.573  15.248  0.3912  1.3257  2.5785
14710TIP3   OH265544   5.825   4.592  13.952  0.5040  0.5905  0.0733
14710TIP3    H165545   5.854   4.644  13.877  0.7397 -0.6088 -0.6957
14710TIP3    H265546   5.865   4.506  13.938 -2.2193 -0.7197 -0.3060
14711TIP3   OH265547   0.827   4.188  12.204  0.2002 -0.1398  0.2008
14711TIP3    H165548   0.877   4.122  12.156 -0.3766 -1.2636  1.1154
14711TIP3    H265549   0.872   4.271  12.183  0.9535 -0.7979 -0.9347
14712TIP3   OH265550   3.879   3.846   2.492 -0.0671  0.4131 -0.1278
14712TIP3    H165551   3.828   3.831   2.572 -1.8400 -0.8634 -1.4105
14712TIP3    H265552   3.954   3.899   2.521 -0.8046  0.2716  2.2952
14713TIP3   OH265553   6.311   1.364   5.165  0.8500 -0.6664 -0.2426
14713TIP3    H165554   6.304   1.269   5.155  1.7238 -0.6024 -1.7975
14713TIP3    H265555   6.405   1.380   5.173  0.6389 -0.0205  1.3719
14714TIP3   OH265556   5.452   6.005  11.146 -0.2718  0.0646 -0.2718
14714TIP3    H165557   5.500   5.969  11.072 -0.4623 -0.2393 -0.2472
14714TIP3    H265558   5.519   6.019  11.213  0.1933  1.8768 -1.0450
14715TIP3   OH265559   1.583   6.513  10.996  0.8279  0.0130  0.2013
14715TIP3    H165560   1.503   6.566  10.996 -0.0935 -1.2886  1.7868
14715TIP3    H265561   1.632   6.544  10.920 -1.6105  0.2034 -1.3974
14716TIP3   OH265562   4.358   3.058  12.617  0.2610 -0.1058 -0.3148
14716TIP3    H165563   4.281   3.045  12.673  0.5121  1.8914  0.5946
14716TIP3    H265564   4.323   3.086  12.533 -0.0423 -0.3101 -0.2558
14717TIP3   OH265565   6.422   4.324   4.520  0.6409  0.1605 -0.1423
14717TIP3    H165566   6.327   4.315   4.519  0.5261  1.0002  0.9189
14717TIP3    H265567   6.454   4.241   4.554  0.2285  0.2085  0.3702
14718TIP3   OH265568   3.244   0.928  16.668  0.1500 -0.4234  0.5657
14718TIP3    H165569   3.288   0.900  16.748 -1.0575 -1.1034  1.0175
14718TIP3    H265570   3.164   0.971  16.699  0.6088  1.0754 -0.2200
14719TIP3   OH265571   5.299   6.036   0.342  0.0493 -0.5723  0.4599
14719TIP3    H165572   5.371   5.976   0.327  2.6550  2.0219  1.6482
14719TIP3    H265573   5.270   6.016   0.432  0.1739 -0.7582  0.4595
14720TIP3   OH265574   3.552   0.701  12.571  0.2094 -0.5335  0.3214
14720TIP3    H165575   3.617   0.742  12.628  0.3884 -2.0428  1.2324
14720TIP3    H265576   3.512   0.633  12.624  0.1081 -1.7373 -1.2392
14721TIP3   OH265577   1.079   6.029   6.364 -0.7035 -0.1346  0.4991
14721TIP3    H165578   1.131   5.976   6.425  1.9048 -0.8217 -2.0773
14721TIP3    H265579   0.988   6.008   6.386  0.0237 -0.1252  4.2136
14722TIP3   OH265580   2.578   6.734   2.827  0.0043  0.0264 -0.0738
14722TIP3    H165581   2.578   6.648   2.786 -1.8832  0.2053 -0.5539
14722TIP3    H265582   2.538   6.792   2.762 -0.8823  0.7835  1.0939
14723TIP3   OH265583   0.951   4.372  16.088  0.0838 -0.1380 -0.0717
14723TIP3    H165584   0.912   4.359  16.002  1.1881 -1.7924 -0.3636
14723TIP3    H265585   0.917   4.457  16.117 -3.0626 -1.0785 -0.6220
14724TIP3   OH265586   4.382   6.479   0.768  0.4789  0.2455 -0.7557
14724TIP3    H165587   4.455   6.527   0.729  0.6291 -1.2697 -2.4412
14724TIP3    H265588   4.334   6.443   0.693 -0.6867 -0.6977  0.4031
14725TIP3   OH265589   5.510   4.561  13.509  0.0626 -0.2712  0.0787
14725TIP3    H165590   5.546   4.475  13.487  2.0966  0.7034 -0.6916
14725TIP3    H265591   5.577   4.603  13.562 -1.6584  0.2245  1.9916
14726TIP3   OH265592   3.888   6.348   0.310  0.7344  0.1103 -0.0871
14726TIP3    H165593   3.900   6.399   0.230 -0.5059 -0.9237 -0.9792
14726TIP3    H265594   3.947   6.273   0.300 -1.3325 -1.4540 -1.3677
14727TIP3   OH265595   4.623   1.184  15.205  0.4201 -0.5241  0.2941
14727TIP3    H165596   4.554   1.223  15.151 -0.3903 -1.8555  0.3238
14727TIP3    H265597   4.684   1.145  15.142  0.5292 -0.3553  0.2949
14728TIP3   OH265598   2.344   4.795   2.622 -0.0152  0.0104  0.5939
14728TIP3    H165599   2.256   4.763   2.640 -0.4250 -0.1189 -1.3636
14728TIP3    H265600   2.389   4.720   2.582  0.8318  0.2174  1.1446
14729TIP3   OH265601   5.834   6.339   3.984 -0.0223 -0.4779  0.3865
14729TIP3    H165602   5.778   6.360   4.059 -0.4980 -0.7639  0.1167
14729TIP3    H265603   5.922   6.331   4.021  0.0570  1.1907  0.6212
14730TIP3   OH265604   0.004   4.968   0.595  0.3873  0.0490  1.1187
14730TIP3    H165605  -0.091   4.960   0.603  0.6182 -1.9404  2.6011
14730TIP3    H265606   0.018   5.054   0.555 -2.0368  0.1743  0.4032
14731TIP3   OH265607   3.974   2.864   2.681  0.7342  0.1328  0.2458
14731TIP3    H165608   3.927   2.832   2.758 -1.4661  0.1026 -1.0377
14731TIP3    H265609   4.002   2.952   2.705 -0.9592  0.5799  0.7145
14732TIP3   OH265610   4.708   5.493  16.027 -0.3734  0.8188 -0.6479
14732TIP3    H165611   4.710   5.522  15.935  1.3159 -0.0225 -0.8997
14732TIP3    H265612   4.619   5.514  16.056 -1.0824  0.7110 -2.6029
14733TIP3   OH265613   1.551   1.475   0.392 -0.2284  0.8374  0.3062
14733TIP3    H165614   1.467   1.440   0.360  0.1452  0.3289 -0.1437
14733TIP3    H265615   1.609   1.470   0.316  0.4070  0.5332  0.8012
14734TIP3   OH265616   6.569   4.592   3.873 -0.9044 -0.1693  0.1643
14734TIP3    H165617   6.513   4.588   3.795 -0.5663  1.5358 -0.2214
14734TIP3    H265618   6.517   4.550   3.942 -2.0867  0.1293 -0.5068
14735TIP3   OH265619   0.021   4.606  13.915 -0.0865 -0.0501 -0.1213
14735TIP3    H165620   0.071   4.615  13.997 -1.2963  0.1478  0.6269
14735TIP3    H265621  -0.023   4.521  13.923  0.5019 -0.4427 -0.9875
14736TIP3   OH265622   2.603   4.652  11.632  0.6501 -0.4279 -0.5989
14736TIP3    H165623   2.561   4.726  11.588  1.3784  0.1058 -0.4288
14736TIP3    H265624   2.615   4.682  11.722  0.1539 -1.0971 -0.2997
14737TIP3   OH265625   3.260   0.810  15.013 -0.4028 -0.0036 -0.1399
14737TIP3    H165626   3.252   0.881  15.077 -2.2364 -0.6246  0.3656
14737TIP3    H265627   3.308   0.741  15.059  0.8885  0.6657 -0.4455
14738TIP3   OH265628   2.587   3.432   4.069  0.4839  0.2447 -0.0042
14738TIP3    H165629   2.611   3.521   4.043 -1.9083  0.8364 -0.4353
14738TIP3    H265630   2.513   3.443   4.128  2.0920 -1.3771  2.5035
14739TIP3   OH265631   5.284   1.401  14.703  0.1603 -0.2894 -0.3459
14739TIP3    H165632   5.378   1.413  14.693  0.0472  0.5889 -0.4370
14739TIP3    H265633   5.273   1.308  14.721  1.1621 -0.1711  0.9877
14740TIP3   OH265634   2.917   0.773   5.011 -0.3274 -0.1654 -0.6520
14740TIP3    H165635   2.895   0.761   4.918 -0.9684  1.5116 -0.7440
14740TIP3    H265636   2.963   0.857   5.014 -1.2689  0.3284  0.6873
14741TIP3   OH265637   5.699   1.332  15.510 -0.0378 -0.1562 -0.2620
14741TIP3    H165638   5.652   1.342  15.427  0.0660 -0.9785 -0.4296
14741TIP3    H265639   5.783   1.376  15.495  0.9390 -2.2204 -1.4277
14742TIP3   OH265640   2.478   3.523   2.162  0.3642  0.0688 -0.5029
14742TIP3    H165641   2.554   3.473   2.194 -1.3626 -0.8752  2.5085
14742TIP3    H265642   2.500   3.544   2.071  3.5203 -1.5156 -0.2519
14743TIP3   OH265643   6.481   1.433  11.531 -0.0865 -0.6262  0.3309
14743TIP3    H165644   6.540   1.421  11.457  1.2218 -1.4699  1.4565
14743TIP3    H265645   6.400   1.465  11.492  0.3206 -1.7219 -1.5290
14744TIP3   OH265646   5.287   2.061  13.081 -0.0200 -0.6405 -0.1546
14744TIP3    H165647   5.202   2.050  13.125  0.3115 -1.8054  0.2365
14744TIP3    H265648   5.266   2.059  12.988 -0.5021 -0.2315 -0.0561
14745TIP3   OH265649   5.115   3.093  13.904  0.2671  0.1059  0.2475
14745TIP3    H165650   5.210   3.082  13.907  0.3955  1.1200  0.0954
14745TIP3    H265651   5.096   3.154  13.975 -0.2686 -0.0447  0.2389
14746TIP3   OH265652   5.535   1.961  13.767  0.3505  0.1157 -0.5049
14746TIP3    H165653   5.565   2.024  13.702  1.7085 -0.6742 -0.6823
14746TIP3    H265654   5.572   1.877  13.738 -0.0486 -0.4688  0.6141
14747TIP3   OH265655   5.905   5.600   6.289  0.7847  0.0341  0.5081
14747TIP3    H165656   5.926   5.642   6.372  0.3399  0.1637  0.5556
14747TIP3    H265657   5.811   5.586   6.292  0.3007  2.3824 -1.0606
14748TIP3   OH265658   4.780   4.524  17.061  0.6056  0.1176  0.1569
14748TIP3    H165659   4.731   4.566  16.991 -0.8742 -2.1958 -0.3114
14748TIP3    H265660   4.858   4.579  17.072  0.3443  1.1842 -2.5261
14749TIP3   OH265661   1.999   1.728  15.155 -0.0989  0.2171 -0.7788
14749TIP3    H165662   1.912   1.742  15.117 -0.8602  0.8722  1.0886
14749TIP3    H265663   2.014   1.634  15.145 -1.0795  0.0726 -1.0153
14750TIP3   OH265664   5.966   0.905  15.806  0.2833  0.2498 -0.6834
14750TIP3    H165665   5.885   0.885  15.760 -0.6417 -0.5053  1.1713
14750TIP3    H265666   6.011   0.821  15.813  0.2731  0.3017  0.0366
14751TIP3   OH265667   0.565   3.794   5.547  0.3116  0.5283  0.2187
14751TIP3    H165668   0.488   3.825   5.500 -0.2697  0.1852  0.9206
14751TIP3    H265669   0.638   3.843   5.509 -0.2747  0.9940 -0.3260
14752TIP3   OH265670   2.803   0.936   0.933 -0.5630 -0.1693 -1.0731
14752TIP3    H165671   2.791   0.887   0.852 -1.3601 -1.1401 -0.3762
14752TIP3    H265672   2.898   0.942   0.943 -0.4523 -1.2923 -1.3394
14753TIP3   OH265673   0.010   0.025   2.441  0.0783  0.8403  0.0440
14753TIP3    H165674  -0.048  -0.015   2.376  1.9008  0.1908 -1.2800
14753TIP3    H265675  -0.023   0.115   2.451 -2.3926 -0.0824  0.9723
14754TIP3   OH265676   1.234   3.431   4.021 -0.5444 -0.8799 -0.9163
14754TIP3    H165677   1.313   3.486   4.028 -0.3240 -1.0802 -1.7229
14754TIP3    H265678   1.207   3.440   3.930 -0.5228 -2.0764 -1.0559
14755TIP3   OH265679   5.154   0.420  16.233 -0.4893 -0.0936  0.1604
14755TIP3    H165680   5.083   0.370  16.274  0.6502 -2.8635 -0.9567
14755TIP3    H265681   5.233   0.390  16.279  0.1017  2.2327  0.7682
14756TIP3   OH265682   3.741   2.968   5.370 -0.0153 -0.6797 -0.1054
14756TIP3    H165683   3.764   2.902   5.435  0.1883 -0.0594  0.4620
14756TIP3    H265684   3.781   2.937   5.289  1.9165 -0.1937  0.6053
14757TIP3   OH265685   5.201   4.291   5.715 -0.0194 -0.1346  0.1287
14757TIP3    H165686   5.140   4.250   5.777  0.0051  0.6699  0.6975
14757TIP3    H265687   5.221   4.376   5.754 -1.9218  1.4842 -2.2092
14758TIP3   OH265688   3.324   3.211   0.286  0.1557  0.1749  0.0638
14758TIP3    H165689   3.263   3.187   0.356  1.2189 -0.2761  0.8615
14758TIP3    H265690   3.353   3.127   0.250 -0.4142  0.4014 -0.9732
14759TIP3   OH265691   3.362   5.381   1.366  0.4781  0.1336  0.0417
14759TIP3    H165692   3.386   5.404   1.455  3.4757 -0.7390 -0.4445
14759TIP3    H265693   3.323   5.461   1.330 -0.4162  0.6176  1.9436
14760TIP3   OH265694   6.388   0.098  10.531  0.2817 -0.5121  0.1673
14760TIP3    H165695   6.422   0.180  10.568 -2.2237  0.6749  0.0602
14760TIP3    H265696   6.293   0.106  10.540 -0.0326 -3.7552  0.7925
14761TIP3   OH265697   3.742   0.217   6.011  0.4647 -0.0267  0.0655
14761TIP3    H165698   3.707   0.194   6.098 -1.8167 -1.7885 -1.1945
14761TIP3    H265699   3.804   0.147   5.992  0.5113  0.0249  0.0289
14762TIP3   OH265700   5.344   0.725   3.057  0.4046  0.3464  0.0449
14762TIP3    H165701   5.261   0.764   3.087 -0.5762 -1.9822  0.5696
14762TIP3    H265702   5.338   0.727   2.962 -0.4718 -0.1835  0.0766
14763TIP3   OH265703   6.131   5.204  16.781 -1.0908  0.2963 -0.0177
14763TIP3    H165704   6.078   5.270  16.826  1.0564  2.6559 -0.6932
14763TIP3    H265705   6.214   5.249  16.762  0.6350 -2.7136 -0.2874
14764TIP3   OH265706   5.476   1.631   0.881 -0.1367 -0.4108 -0.6130
14764TIP3    H165707   5.499   1.559   0.939  0.9288 -0.8909 -1.5865
14764TIP3    H265708   5.540   1.626   0.809  0.2369  1.7385 -0.5196
14765TIP3   OH265709   5.974   3.804  16.638  0.5969  0.3914  0.5457
14765TIP3    H165710   5.943   3.784  16.550  0.4867 -0.6245  0.7903
14765TIP3    H265711   5.973   3.899  16.644 -0.8592  0.4411 -0.0384
14766TIP3   OH265712   4.152   0.583   4.613 -0.0127  0.2319  0.1903
14766TIP3    H165713   4.096   0.623   4.547 -0.4747 -0.1524  0.3488
14766TIP3    H265714   4.174   0.655   4.672  0.1097  0.5001 -0.1782
14767TIP3   OH265715   1.469   2.691  11.710 -0.3783 -0.3378  0.0376
14767TIP3    H165716   1.473   2.690  11.806  1.6235 -0.3737  0.0039
14767TIP3    H265717   1.389   2.739  11.690 -1.0902 -0.7438  1.7201
14768TIP3   OH265718   3.305   3.023   3.387  0.4221  1.2104  0.1704
14768TIP3    H165719   3.388   3.069   3.384  1.0213  0.2550  1.2761
14768TIP3    H265720   3.273   3.037   3.477  0.2898  0.0529  0.3116
14769TIP3   OH265721   0.028   6.718  15.088 -0.2420  0.2684  0.0119
14769TIP3    H165722  -0.039   6.694  15.152  0.3622 -0.8149  0.2634
14769TIP3    H265723   0.014   6.658  15.015 -0.7004  1.2598 -0.7245
14770TIP3   OH265724   5.496   3.816  16.879  0.3129 -0.0555  0.5800
14770TIP3    H165725   5.506   3.912  16.881  2.6477 -0.2311  1.2624
14770TIP3    H265726   5.418   3.799  16.932  1.1475  1.4121  2.4231
14771TIP3   OH265727   2.274   0.921  13.739  0.1086 -0.1551  0.4333
14771TIP3    H165728   2.275   0.854  13.670 -0.2469  0.5213 -0.2411
14771TIP3    H265729   2.217   0.885  13.807 -0.8389 -0.1354 -0.3344
14772TIP3   OH265730   5.798   4.461  12.571  0.2140 -0.1600 -0.3810
14772TIP3    H165731   5.846   4.481  12.491  0.0654  0.2287 -0.3785
14772TIP3    H265732   5.709   4.444  12.542  0.3279 -0.7754 -0.3759
14773TIP3   OH265733   2.155   0.753   3.468 -0.6630 -0.4295  0.1203
14773TIP3    H165734   2.141   0.832   3.520  0.4942 -0.4729  0.5295
14773TIP3    H265735   2.164   0.683   3.532  0.7070 -0.4906 -0.1117
14774TIP3   OH265736   6.479   5.872  16.343 -0.1831  0.0456  0.5430
14774TIP3    H165737   6.463   5.819  16.265  0.7738  0.8608 -0.2446
14774TIP3    H265738   6.541   5.820  16.395  0.6806  0.3302 -0.1800
14775TIP3   OH265739   3.744   6.712  14.198 -0.2774 -0.1837  0.1086
14775TIP3    H165740   3.744   6.687  14.290  0.9166  0.5428  0.3337
14775TIP3    H265741   3.778   6.801  14.198 -0.3795 -0.1349 -1.0320
14776TIP3   OH265742   1.560   6.501   5.068 -0.2633  0.0742  0.3065
14776TIP3    H165743   1.522   6.586   5.089 -1.7661  0.2233 -2.5160
14776TIP3    H265744   1.488   6.439   5.080 -0.6497 -0.0671 -2.1815
14777TIP3   OH265745   3.462   4.572  16.142 -0.6706  0.3008  0.0211
14777TIP3    H165746   3.460   4.489  16.190  1.5296  0.7933  1.1215
14777TIP3    H265747   3.443   4.638  16.209 -0.7442  0.7876 -0.4749
14778TIP3   OH265748   0.585   1.664  11.881 -0.0225  0.0274 -0.5257
14778TIP3    H165749   0.511   1.688  11.824  0.4811  0.9853 -0.8014
14778TIP3    H265750   0.634   1.599  11.830 -0.8259 -0.8420 -0.2166
14779TIP3   OH265751   0.485   4.571  14.491 -0.0060  0.4798 -0.6974
14779TIP3    H165752   0.523   4.658  14.478  0.9330  0.0185 -1.0699
14779TIP3    H265753   0.394   4.581  14.463 -0.0109  1.4371 -0.3814
14780TIP3   OH265754   6.738   6.225  14.181 -0.0173  0.2685 -0.7591
14780TIP3    H165755   6.829   6.235  14.209 -0.0329  1.6159 -1.1376
14780TIP3    H265756   6.743   6.200  14.089 -0.0351 -0.6969 -0.5160
14781TIP3   OH265757   0.456   5.869  15.860  0.7816  0.6502 -0.1570
14781TIP3    H165758   0.516   5.889  15.932 -0.1533  2.8034  0.1225
14781TIP3    H265759   0.375   5.842  15.903 -0.5492  4.1207 -0.1445
14782TIP3   OH265760   2.663   3.575   4.469 -0.1862  0.3003  0.6847
14782TIP3    H165761   2.744   3.597   4.423 -0.0218 -2.0457 -0.2916
14782TIP3    H265762   2.692   3.527   4.547 -0.5520 -2.9383 -1.0041
14783TIP3   OH265763   1.846   5.260  13.872  0.0123 -0.4779  0.2046
14783TIP3    H165764   1.883   5.328  13.929  0.9350 -0.7593 -0.0538
14783TIP3    H265765   1.919   5.202  13.853  0.1982  0.5685 -2.7192
14784TIP3   OH265766   6.707   1.535   3.836  0.0942  0.2190  0.2594
14784TIP3    H165767   6.777   1.584   3.880  1.5626 -3.1303  2.0254
14784TIP3    H265768   6.734   1.444   3.842 -3.6598 -1.1294 -0.5112
14785TIP3   OH265769   2.295   3.201   2.224 -0.4894  0.6144  0.7553
14785TIP3    H165770   2.209   3.207   2.265 -0.1495  4.2894  1.2140
14785TIP3    H265771   2.356   3.236   2.289  1.1781 -0.4160 -0.1705
14786TIP3   OH265772   4.535   0.092  11.772  0.3036 -0.2311 -0.3886
14786TIP3    H165773   4.561   0.003  11.748  2.1928  0.3735 -0.7373
14786TIP3    H265774   4.518   0.135  11.688 -1.6965 -0.5314 -0.1775
14787TIP3   OH265775   4.029   1.921   0.782 -0.0039 -0.3547 -0.5543
14787TIP3    H165776   4.051   1.854   0.847 -2.7325 -2.5619 -1.6997
14787TIP3    H265777   4.065   1.887   0.700 -0.8677 -0.1235 -1.0422
14788TIP3   OH265778   6.314   5.665  11.910  0.4520  0.2673 -0.0002
14788TIP3    H165779   6.382   5.695  11.971  0.8007  1.3222 -0.8587
14788TIP3    H265780   6.361   5.648  11.828  0.2363 -2.6052  0.3768
14789TIP3   OH265781   4.790   2.930   2.594 -0.4023  0.2682 -0.4227
14789TIP3    H165782   4.864   2.980   2.559  0.0679  1.1931  1.7322
14789TIP3    H265783   4.800   2.843   2.555  1.4111  0.5665 -0.7314
14790TIP3   OH265784   5.874   0.965  14.869 -0.4583  0.0825  0.2756
14790TIP3    H165785   5.873   0.933  14.779  2.0123  0.0292  0.1933
14790TIP3    H265786   5.798   1.023  14.875 -0.6301  0.1523 -1.8619
14791TIP3   OH265787   4.773   0.760   1.772 -0.0868 -0.5678  0.6715
14791TIP3    H165788   4.685   0.749   1.808 -0.2128  0.1653  0.6035
14791TIP3    H265789   4.792   0.676   1.730 -0.2758 -1.1399  1.7011
14792TIP3   OH265790   6.676   0.710   5.871  0.0443 -0.6532  0.0901
14792TIP3    H165791   6.705   0.782   5.927 -2.4302  0.1393  0.4944
14792TIP3    H265792   6.756   0.675   5.832  1.4521  1.3698  1.0209
14793TIP3   OH265793   6.341   6.700  14.200  0.1937 -0.3770  0.4408
14793TIP3    H165794   6.405   6.683  14.268 -1.0841  0.6880  1.9812
14793TIP3    H265795   6.259   6.666  14.235 -0.5584  0.5279 -0.3943
14794TIP3   OH265796   0.212   4.547  15.095  0.5085 -0.3136 -0.2481
14794TIP3    H165797   0.226   4.513  15.006 -0.9385 -0.7209 -0.3562
14794TIP3    H265798   0.295   4.585  15.120  0.8901 -0.0190 -1.8650
14795TIP3   OH265799   1.993   0.558   0.553  0.1475  0.0162 -0.1851
14795TIP3    H165800   2.026   0.503   0.482  0.8541  0.0811  0.0791
14795TIP3    H265801   1.920   0.606   0.515 -1.0411 -1.7075 -0.1868
14796TIP3   OH265802   0.170   6.167  12.684  1.3132  0.4273 -0.4790
14796TIP3    H165803   0.168   6.149  12.590  1.2810  0.5467 -0.5026
14796TIP3    H265804   0.230   6.102  12.720  0.0205 -0.7260 -0.3410
14797TIP3   OH265805   6.765   5.845   5.357 -0.0907 -0.4100 -0.1848
14797TIP3    H165806   6.832   5.784   5.388 -0.6453 -0.2278  1.4679
14797TIP3    H265807   6.684   5.816   5.399 -1.2102 -0.9640 -2.5813
14798TIP3   OH265808   6.535   6.518   2.803 -0.0302 -0.2271 -0.5685
14798TIP3    H165809   6.617   6.565   2.786 -0.5179  0.3140 -1.5142
14798TIP3    H265810   6.548   6.432   2.763  0.2262 -0.2892 -0.3546
14799TIP3   OH265811   6.414   1.290   2.369  0.0629 -0.1730  0.3336
14799TIP3    H165812   6.351   1.236   2.322 -0.2401  0.9349 -0.5696
14799TIP3    H265813   6.366   1.323   2.445  0.2786 -1.2255  0.9416
14800TIP3   OH265814   4.374   2.002   2.469 -0.0556  0.1220 -0.3416
14800TIP3    H165815   4.288   1.994   2.510  0.1400  0.8810  0.2524
14800TIP3    H265816   4.389   1.917   2.428 -1.0656 -0.0331 -0.4204
14801TIP3   OH265817   2.825   1.117   3.307  0.3408  0.1355 -0.1123
14801TIP3    H165818   2.862   1.041   3.261  0.9796  1.0009 -1.0937
14801TIP3    H265819   2.732   1.099   3.313  0.1212  0.2489 -2.3758
14802TIP3   OH265820   4.078   1.772  14.124  0.4413  0.0601  0.2978
14802TIP3    H165821   3.985   1.791  14.134 -0.1564 -1.5798 -1.3626
14802TIP3    H265822   4.111   1.841  14.067 -0.7908 -1.4468 -2.4746
14803TIP3   OH265823   4.181   1.245  15.242 -0.1367 -0.0918  0.1660
14803TIP3    H165824   4.204   1.163  15.198  1.2629  0.3530  0.0230
14803TIP3    H265825   4.179   1.222  15.335 -0.5517 -0.4553  0.0726
14804TIP3   OH265826   4.405   0.303   4.813  0.0573 -0.5405  0.8032
14804TIP3    H165827   4.386   0.303   4.719  0.0472 -1.1138  0.7996
14804TIP3    H265828   4.428   0.394   4.833  1.0977 -0.6131  0.0274
14805TIP3   OH265829   1.946   1.035   0.589  0.1284 -0.2937 -0.0675
14805TIP3    H165830   1.874   1.090   0.559 -0.4986 -1.0940 -0.0631
14805TIP3    H265831   1.998   1.092   0.645 -0.1518  0.4723 -0.5727
14806TIP3   OH265832   6.374   2.787  16.241  0.8142 -0.5116 -0.2009
14806TIP3    H165833   6.370   2.864  16.184 -0.8719 -0.3036  0.1638
14806TIP3    H265834   6.412   2.819  16.323 -0.1936  0.0222  0.0690
14807TIP3   OH265835   6.354   6.329  11.411 -0.0400 -0.5463  0.1821
14807TIP3    H165836   6.366   6.424  11.400 -0.2954 -0.2318  2.3457
14807TIP3    H265837   6.389   6.292  11.330  1.3217  1.3195 -0.1547
14808TIP3   OH265838   3.161   2.067   5.404 -0.1143 -0.1362 -0.2749
14808TIP3    H165839   3.161   2.070   5.308  0.3631 -1.2913 -0.3249
14808TIP3    H265840   3.193   1.980   5.426  2.5496  1.0061  0.9701
14809TIP3   OH265841   1.120   4.058  13.543 -0.3274  0.1811  0.6266
14809TIP3    H165842   1.193   4.119  13.555 -0.6184  0.3257  1.8302
14809TIP3    H265843   1.051   4.110  13.502  0.1748  0.0905 -0.3434
14810TIP3   OH265844   1.955   5.575   3.741  1.1344 -0.1423  0.1104
14810TIP3    H165845   2.024   5.641   3.737 -0.0294  1.0978 -1.2665
14810TIP3    H265846   1.956   5.534   3.654 -0.0955  0.1988 -0.0890
14811TIP3   OH265847   4.430   6.363  15.668  0.2085  0.5130 -0.2977
14811TIP3    H165848   4.490   6.301  15.709  1.2850  0.8651 -1.3035
14811TIP3    H265849   4.484   6.414  15.608 -1.1120  0.7139 -1.3871
14812TIP3   OH265850   5.791   3.979  11.861  0.1525 -0.2104  0.6061
14812TIP3    H165851   5.754   4.015  11.942 -0.1630  0.5211  0.1449
14812TIP3    H265852   5.740   3.900  11.844 -0.7741  0.4323  0.3264
14813TIP3   OH265853   4.310   0.137  13.798 -0.0407  0.1581 -0.0525
14813TIP3    H165854   4.359   0.098  13.726 -0.3760 -0.5188  0.0778
14813TIP3    H265855   4.235   0.179  13.756  0.1680  0.4205 -0.1663
14814TIP3   OH265856   1.741   1.798   0.125 -0.0091  0.7032 -0.3243
14814TIP3    H165857   1.764   1.858   0.054 -0.8141  2.0938  0.5326
14814TIP3    H265858   1.646   1.800   0.129 -0.1076 -1.1883 -0.6872
14815TIP3   OH265859   5.119   6.228   5.161 -0.4958  0.0816  0.1158
14815TIP3    H165860   5.208   6.257   5.141 -0.1836 -0.5638  0.5416
14815TIP3    H265861   5.111   6.143   5.118 -0.8673  0.0758  0.1932
14816TIP3   OH265862   4.003   5.080   2.685  0.1247  0.2029 -0.4101
14816TIP3    H165863   4.056   5.159   2.676  0.3380  0.4340  2.2964
14816TIP3    H265864   4.063   5.009   2.665  1.0930  0.5527  1.1100
14817TIP3   OH265865   6.576   2.837   5.103 -1.1956  0.2197  0.0638
14817TIP3    H165866   6.535   2.756   5.135 -2.0289  0.4705 -0.3426
14817TIP3    H265867   6.548   2.844   5.012 -1.8760  1.4293  0.3409
14818TIP3   OH265868   3.288   0.149  14.527  0.8436 -0.6672 -0.0436
14818TIP3    H165869   3.316   0.208  14.596  1.3219 -0.1363 -0.6815
14818TIP3    H265870   3.340   0.069  14.541 -0.2933 -1.2374  1.2336
14819TIP3   OH265871   0.417   5.947   0.469 -0.5285  0.3487  0.0191
14819TIP3    H165872   0.463   5.911   0.393  0.2569  0.7830  0.2806
14819TIP3    H265873   0.333   5.975   0.434  0.0083  0.9956 -0.8098
14820TIP3   OH265874   1.631   6.606   1.492  0.4892 -0.0149 -0.3260
14820TIP3    H165875   1.694   6.534   1.503  0.7034 -0.3799 -3.2381
14820TIP3    H265876   1.639   6.631   1.400 -1.4680  2.0146 -0.0200
14821TIP3   OH265877   4.735   2.474   0.027 -0.2394  0.1099 -0.5557
14821TIP3    H165878   4.736   2.454   0.120  1.1816 -0.2330 -0.6278
14821TIP3    H265879   4.669   2.416  -0.010 -1.0573  0.4917  0.2842
14822TIP3   OH265880   6.511   0.246  16.492  0.3303 -0.1181 -0.6539
14822TIP3    H165881   6.573   0.256  16.419 -0.2792  1.1538 -1.0326
14822TIP3    H265882   6.476   0.334  16.505 -0.8157 -0.6639  0.0754
14823TIP3   OH265883   5.859   5.343  12.855  0.1084  0.0825 -0.0282
14823TIP3    H165884   5.891   5.255  12.838  0.0215  0.1262 -0.4263
14823TIP3    H265885   5.764   5.334  12.861 -0.0576  0.3956 -1.7235
14824TIP3   OH265886   1.905   0.808   2.223 -0.0899 -0.1101  0.0532
14824TIP3    H165887   1.977   0.787   2.282 -1.3940  0.3001  1.8851
14824TIP3    H265888   1.830   0.761   2.258 -1.4036  1.8025  0.0048
14825TIP3   OH265889   4.109   4.925   4.904  0.2407  0.5524  0.1549
14825TIP3    H165890   4.039   4.881   4.952 -0.7814  0.3182 -1.4950
14825TIP3    H265891   4.188   4.877   4.928 -0.2864  0.2357  1.3183
14826TIP3   OH265892   1.195   0.479   4.474 -0.3472 -0.6954  0.2146
14826TIP3    H165893   1.104   0.464   4.448 -0.6360  0.1288  0.7023
14826TIP3    H265894   1.228   0.541   4.408 -0.5790  0.1011  0.8270
14827TIP3   OH265895   5.109   3.355  14.049 -0.1479  0.6773 -0.6777
14827TIP3    H165896   5.184   3.349  14.108 -1.4720  0.6082  1.0805
14827TIP3    H265897   5.053   3.423  14.087 -1.7888 -0.4632 -0.9206
14828TIP3   OH265898   3.814   0.664  16.267 -0.3513 -0.5110  0.0703
14828TIP3    H165899   3.756   0.596  16.233 -0.6127 -0.1667 -0.1855
14828TIP3    H265900   3.761   0.711  16.331  0.2716 -1.4155  1.2775
14829TIP3   OH265901   3.146   3.986  13.501  0.1293 -0.5577  0.6721
14829TIP3    H165902   3.233   3.946  13.500  0.2296 -0.3820  1.4978
14829TIP3    H265903   3.115   3.974  13.591 -0.5831 -0.3607  0.4637
14830TIP3   OH265904   1.530   2.322   3.792 -0.2166 -0.1161 -0.1227
14830TIP3    H165905   1.483   2.396   3.753  1.6776  1.3911  0.2882
14830TIP3    H265906   1.476   2.297   3.868  0.3935  2.7235  1.4149
14831TIP3   OH265907   1.740   2.470  15.729 -0.0117  0.3437  0.2478
14831TIP3    H165908   1.699   2.410  15.791  0.3888 -0.6760 -0.4466
14831TIP3    H265909   1.777   2.539  15.783 -1.0172  0.3063  1.0215
14832TIP3   OH265910   1.315   2.355   5.667  0.4942  0.4346  0.0562
14832TIP3    H165911   1.240   2.297   5.679  0.4691  0.6663  1.0775
14832TIP3    H265912   1.290   2.436   5.711  1.2390  0.6084  0.1756
14833TIP3   OH265913   6.730   3.882   4.288 -0.2715 -0.3243  0.0398
14833TIP3    H165914   6.788   3.958   4.294  0.1303 -0.6549  0.3614
14833TIP3    H265915   6.707   3.877   4.195 -1.0862  0.7671  0.1540
14834TIP3   OH265916   3.245   6.687  13.801 -0.4190  0.3699  0.1298
14834TIP3    H165917   3.218   6.601  13.834 -1.5163  1.1105  1.2202
14834TIP3    H265918   3.310   6.718  13.864  0.8987 -0.1459 -0.9183
14835TIP3   OH265919   5.512   4.504   4.596 -0.0488 -0.4332  0.0106
14835TIP3    H165920   5.444   4.502   4.663 -0.9020 -1.1427 -0.8403
14835TIP3    H265921   5.527   4.412   4.574  0.4312 -0.2283 -0.5446
14836TIP3   OH265922   5.591   3.801  16.108  0.1420 -0.0562  0.2647
14836TIP3    H165923   5.591   3.889  16.145 -3.5832 -0.0486  0.6464
14836TIP3    H265924   5.623   3.812  16.018  1.0620  1.4084  0.7468
14837TIP3   OH265925   5.089   1.327  13.231  0.1095 -0.0355  0.1248
14837TIP3    H165926   5.032   1.294  13.161 -0.0090 -0.2258  0.3122
14837TIP3    H265927   5.030   1.371  13.292  0.2440  0.3531 -0.0225
14838TIP3   OH265928   0.352   4.777  12.763  0.3674 -0.6550 -0.3877
14838TIP3    H165929   0.259   4.791  12.785  0.4712  1.2138 -0.9422
14838TIP3    H265930   0.397   4.852  12.803  1.1430  0.3867 -3.0169
14839TIP3   OH265931   3.354   2.232  10.277 -0.1008 -0.2124 -0.2058
14839TIP3    H165932   3.430   2.185  10.242 -0.2316 -0.5506 -0.0433
14839TIP3    H265933   3.279   2.179  10.250 -0.2408 -0.1750  0.1125
14840TIP3   OH265934   3.952   0.299  12.202 -0.5294  0.1293  0.8220
14840TIP3    H165935   4.010   0.368  12.235  0.4696 -0.8840  1.2693
14840TIP3    H265936   3.993   0.218  12.232 -0.7204 -0.7620 -1.1651
14841TIP3   OH265937   3.260   2.079   4.626  0.5905  0.5029 -0.1586
14841TIP3    H165938   3.231   2.032   4.704  3.0064 -1.3308 -0.2258
14841TIP3    H265939   3.179   2.105   4.582 -0.8438  0.9344  2.5166
14842TIP3   OH265940   6.209   1.991   5.048 -0.4158  0.3146 -0.6997
14842TIP3    H165941   6.243   1.997   4.959  0.3033  0.5972 -0.4197
14842TIP3    H265942   6.272   1.935   5.094 -0.4761  0.6151 -0.2351
14843TIP3   OH265943   6.088   2.885   5.905  0.7111  0.4502 -0.3455
14843TIP3    H165944   6.172   2.845   5.885  0.3244  0.1040 -1.3291
14843TIP3    H265945   6.023   2.819   5.880  0.1532  0.2494  1.4630
14844TIP3   OH265946   4.603   0.889  11.757 -0.2685 -0.0484 -0.8512
14844TIP3    H165947   4.673   0.950  11.781  0.4589 -0.0935 -2.6712
14844TIP3    H265948   4.591   0.834  11.834  0.6577  0.9155  0.0208
14845TIP3   OH265949   5.380   4.807  11.315  0.0501  0.2513  0.4078
14845TIP3    H165950   5.426   4.875  11.364  0.0552  0.3291  0.2966
14845TIP3    H265951   5.323   4.765  11.379 -1.9194  2.0515 -0.0417
14846TIP3   OH265952   6.615   6.262   2.734  0.0888  0.5526  0.5173
14846TIP3    H165953   6.585   6.215   2.656 -1.4420  2.0836  0.1225
14846TIP3    H265954   6.623   6.195   2.801 -0.4416 -0.5194 -0.4625
14847TIP3   OH265955   3.049   1.620  12.922 -0.7194  0.5759 -0.1578
14847TIP3    H165956   3.070   1.536  12.881 -0.7631  0.5869 -0.2021
14847TIP3    H265957   3.104   1.683  12.876 -0.8540  0.6054 -0.2782
14848TIP3   OH265958   5.530   1.393  13.845 -0.0075  0.2488 -0.9273
14848TIP3    H165959   5.550   1.301  13.831 -0.2379 -0.2502  1.6685
14848TIP3    H265960   5.442   1.394  13.882  0.6379  1.3533  0.6572
14849TIP3   OH265961   4.110   3.184  16.564 -0.1900  0.1819 -0.4227
14849TIP3    H165962   4.073   3.110  16.516 -0.8922  0.2646 -0.0257
14849TIP3    H265963   4.075   3.175  16.653  0.9183  0.1559  0.0203
14850TIP3   OH265964   1.525   4.801  15.123 -0.3640  0.5247 -0.1381
14850TIP3    H165965   1.585   4.829  15.192 -1.9890  0.1465  1.4821
14850TIP3    H265966   1.513   4.879  15.069 -0.4455  1.3600  1.0467
14851TIP3   OH265967   4.201   2.139  16.023  0.8245 -0.1229  0.3028
14851TIP3    H165968   4.198   2.088  15.942  0.7936 -2.3164  1.6068
14851TIP3    H265969   4.136   2.208  16.010  1.3840  0.0889 -1.8198
14852TIP3   OH265970   1.354   0.871   3.006  0.3598  0.4788  0.0046
14852TIP3    H165971   1.379   0.902   2.918 -0.0033  2.2357  0.4828
14852TIP3    H265972   1.346   0.951   3.058 -2.2606 -0.2942  0.9314
14853TIP3   OH265973   0.757   5.328   3.961  0.1986 -0.5047  0.2314
14853TIP3    H165974   0.827   5.385   3.927 -0.7927  1.3333  1.1384
14853TIP3    H265975   0.776   5.320   4.054  0.2273 -1.5899  0.1504
14854TIP3   OH265976   5.183   5.527   5.183 -0.3310 -0.3773  0.2131
14854TIP3    H165977   5.179   5.538   5.088  0.0167 -0.2459  0.2121
14854TIP3    H265978   5.270   5.490   5.199 -0.3748 -0.3637  0.4821
14855TIP3   OH265979   3.647   6.236   3.824 -0.2583 -0.1009 -0.6392
14855TIP3    H165980   3.586   6.167   3.799  0.2432 -0.3421 -1.2129
14855TIP3    H265981   3.626   6.309   3.767 -1.4866  0.6134  0.6665
14856TIP3   OH265982   4.030   3.331  11.131  0.1535 -0.2489  0.5631
14856TIP3    H165983   4.036   3.268  11.060 -0.2621 -0.0111  0.3178
14856TIP3    H265984   4.111   3.382  11.125 -0.6029  0.8597 -0.7750
14857TIP3   OH265985   3.175   4.643  15.643  0.0322  0.4547  0.2821
14857TIP3    H165986   3.186   4.736  15.620 -0.6513 -0.1583 -3.0205
14857TIP3    H265987   3.262   4.606  15.634  0.4123  0.8030  2.1232
14858TIP3   OH265988   2.501   0.375   0.818  0.1081  0.3358  0.1680
14858TIP3    H165989   2.451   0.294   0.828  0.3320  0.1325 -0.3087
14858TIP3    H265990   2.435   0.445   0.820 -0.8753 -0.0974 -4.6568
14859TIP3   OH265991   6.190   5.148  11.315  0.3280 -0.3296  0.1893
14859TIP3    H165992   6.251   5.101  11.372  0.2000 -1.4367 -0.5535
14859TIP3    H265993   6.241   5.164  11.235 -0.1918 -0.8625 -0.2615
14860TIP3   OH265994   5.697   3.703  15.868 -0.0406  0.0065  0.3700
14860TIP3    H165995   5.642   3.630  15.895 -1.7070  1.4992  1.1847
14860TIP3    H265996   5.694   3.701  15.773 -0.8997 -0.3770  0.3966
14861TIP3   OH265997   2.091   4.888  11.343  0.1097  0.3396  0.8387
14861TIP3    H165998   2.029   4.893  11.271  0.0634 -0.1509  0.8398
14861TIP3    H265999   2.041   4.847  11.414  0.0446  1.1524  1.2713
14862TIP3   OH266000   2.773   1.144   6.269 -0.0953 -0.5399 -0.0119
14862TIP3    H166001   2.808   1.059   6.239  2.9296 -0.0397  1.6764
14862TIP3    H266002   2.739   1.126   6.356 -0.6454 -0.2368 -0.1602
14863TIP3   OH266003   0.070   1.312  15.334  0.2385 -0.5465  0.2993
14863TIP3    H166004   0.164   1.324  15.351  0.2815 -1.3305  0.6432
14863TIP3    H266005   0.028   1.336  15.416  0.1206 -0.0035  0.0817
14864TIP3   OH266006   5.614   2.567  13.201  0.1189 -0.0645 -0.0123
14864TIP3    H166007   5.579   2.481  13.225  0.9120 -0.3348  0.2199
14864TIP3    H266008   5.633   2.609  13.285  1.1742 -0.2833 -0.1191
14865TIP3   OH266009   5.821   5.406  13.638 -0.4726 -0.2688  0.3251
14865TIP3    H166010   5.829   5.390  13.732  1.7756  2.2474  0.7134
14865TIP3    H266011   5.893   5.356  13.599  0.1899  0.6782  0.2994
14866TIP3   OH266012   0.326   4.223  15.025 -0.2044  0.7172 -0.0631
14866TIP3    H166013   0.407   4.214  15.075 -0.0494 -0.8172 -0.5568
14866TIP3    H266014   0.351   4.273  14.948  0.3616 -0.0684 -0.3953
14867TIP3   OH266015   3.256   2.661  11.346 -0.3955  0.1266 -0.4084
14867TIP3    H166016   3.338   2.674  11.297  0.4678 -0.4412  0.8351
14867TIP3    H266017   3.266   2.575  11.388 -0.8816  0.8013  1.1585
14868TIP3   OH266018   1.395   2.233   0.501 -0.7202  0.2095 -0.0335
14868TIP3    H166019   1.436   2.255   0.418 -0.4233 -0.3277 -0.0394
14868TIP3    H266020   1.301   2.240   0.486 -0.8682 -2.8961 -1.3549
14869TIP3   OH266021   4.465   1.076   3.158 -0.3158 -0.1676 -0.5737
14869TIP3    H166022   4.477   0.993   3.203 -1.1855  1.2126  2.5019
14869TIP3    H266023   4.554   1.108   3.141  0.0479 -0.6745  0.3435
14870TIP3   OH266024   2.450   0.753  15.745 -0.2193 -0.4097  0.3408
14870TIP3    H166025   2.506   0.822  15.710 -2.9324  2.0668  0.5165
14870TIP3    H266026   2.382   0.741  15.678 -2.2826  0.3534  2.1928
14871TIP3   OH266027   0.607   2.858  15.122  0.2149  0.2089  0.5345
14871TIP3    H166028   0.659   2.801  15.179 -0.1857 -0.9810 -0.2520
14871TIP3    H266029   0.523   2.866  15.167  0.5026  0.7824  0.9924
14872TIP3   OH266030   6.415   4.207  11.641  0.4052  0.2883  0.7168
14872TIP3    H166031   6.471   4.143  11.597 -0.8494 -0.5209  0.2583
14872TIP3    H266032   6.450   4.211  11.730  1.3154 -0.0464  0.3878
14873TIP3   OH266033   3.322   5.843  15.993 -0.5441 -0.5382  0.3351
14873TIP3    H166034   3.285   5.911  15.936  1.2791 -0.1065 -0.3992
14873TIP3    H266035   3.332   5.885  16.078  0.8656  0.2516 -0.1933
14874TIP3   OH266036   0.782   1.611  14.749 -0.3050 -0.0020  0.1423
14874TIP3    H166037   0.854   1.655  14.703  0.8529 -0.5036  1.3985
14874TIP3    H266038   0.704   1.637  14.702  0.7864 -0.1958 -1.8737
14875TIP3   OH266039   5.532   4.086   3.374 -0.1075 -0.4777  0.1749
14875TIP3    H166040   5.515   3.994   3.390  1.6200 -0.6591  1.2430
14875TIP3    H266041   5.611   4.087   3.319 -0.1308  0.3617  0.1336
14876TIP3   OH266042   1.354   5.390  14.632  0.4659 -0.5212  0.4636
14876TIP3    H166043   1.341   5.463  14.571  0.7463 -0.6318  0.2719
14876TIP3    H266044   1.383   5.317  14.577 -1.3340 -1.2654  0.4185
14877TIP3   OH266045   4.955   0.221  15.495 -0.5197 -1.2674  0.3382
14877TIP3    H166046   5.048   0.208  15.514 -0.8195 -1.5791  1.7212
14877TIP3    H266047   4.954   0.275  15.416  0.8695  0.3568  1.3435
14878TIP3   OH266048   2.453   6.597   6.793  0.3821  0.9898  0.3526
14878TIP3    H166049   2.447   6.654   6.871 -1.0015  0.9008  0.3330
14878TIP3    H266050   2.495   6.517   6.825 -0.0962  0.9886  0.9968
14879TIP3   OH266051   4.029   6.471   1.294 -0.2600  0.1181 -0.3013
14879TIP3    H166052   3.963   6.536   1.270  0.6913  1.7387  1.2968
14879TIP3    H266053   4.112   6.518   1.293  0.3643 -0.8017  1.6747
14880TIP3   OH266054   6.786   3.537  15.941 -0.3545  0.1257  0.1163
14880TIP3    H166055   6.799   3.582  15.857  3.6280  1.0551  1.0318
14880TIP3    H266056   6.799   3.444  15.920  2.6269  0.5051 -0.1378
14881TIP3   OH266057   4.582   0.889   2.172 -0.2122 -0.0487  0.2014
14881TIP3    H166058   4.662   0.937   2.193 -0.1852  0.2508 -0.5268
14881TIP3    H266059   4.610   0.797   2.164 -0.1785 -0.1301  1.1456
14882TIP3   OH266060   2.031   0.290   5.000 -0.3150 -0.1204  0.2264
14882TIP3    H166061   2.050   0.339   5.080 -1.8077 -0.2485  0.6989
14882TIP3    H266062   2.021   0.356   4.932 -1.6449  0.2267  0.7196
14883TIP3   OH266063   2.606   3.377  10.380  0.4009  0.0760  0.2394
14883TIP3    H166064   2.629   3.469  10.391 -1.0748  0.6902 -1.2792
14883TIP3    H266065   2.512   3.374  10.398 -0.1106 -0.5938 -2.1651
14884TIP3   OH266066   4.277   2.096  11.474  0.8243 -0.1545  0.0426
14884TIP3    H166067   4.266   2.039  11.398  1.4068 -0.5060  0.2189
14884TIP3    H266068   4.195   2.087  11.522  1.7298 -2.6616  1.2843
14885TIP3   OH266069   5.075   3.174  14.520 -1.0135 -0.2181 -0.5672
14885TIP3    H166070   5.133   3.131  14.582 -0.7356 -2.5783 -2.3082
14885TIP3    H266071   5.058   3.260  14.558  0.2372 -1.0215  2.0283
14886TIP3   OH266072   0.371   3.766   6.169  0.1472 -0.4491 -0.8958
14886TIP3    H166073   0.330   3.851   6.157  0.9842 -0.2182 -2.2745
14886TIP3    H266074   0.427   3.777   6.246  0.2213  0.2264 -1.0467
14887TIP3   OH266075   4.605   1.804  15.717 -0.2798 -0.2275 -0.3134
14887TIP3    H166076   4.605   1.773  15.808 -3.0002  0.6929  0.0867
14887TIP3    H266077   4.617   1.726  15.664 -1.9417 -1.2732  0.7789
14888TIP3   OH266078   4.112   6.272   2.779  0.5740  0.0351  0.1846
14888TIP3    H166079   4.159   6.245   2.699 -0.1213  0.9252 -0.5351
14888TIP3    H266080   4.037   6.322   2.748  0.9231  1.4011  1.4332
14889TIP3   OH266081   6.230   5.107   2.669 -0.2383  0.0564 -0.1033
14889TIP3    H166082   6.194   5.046   2.605  2.5375 -1.9697  0.0630
14889TIP3    H266083   6.227   5.193   2.626 -0.3656 -0.9024 -2.1022
14890TIP3   OH266084   6.242   1.355   4.609  0.1746 -0.3628 -0.2435
14890TIP3    H166085   6.297   1.320   4.539  0.1052 -0.3892 -0.2852
14890TIP3    H266086   6.280   1.319   4.689  0.2933 -0.2805 -0.2622
14891TIP3   OH266087   1.164   3.798  14.436  0.4627 -0.5418  0.1867
14891TIP3    H166088   1.090   3.821  14.493  0.2472 -1.6105  0.3688
14891TIP3    H266089   1.240   3.799  14.494  0.8192  1.7301 -0.2459
14892TIP3   OH266090   5.460   5.854   0.921 -0.0171 -0.6372 -0.0476
14892TIP3    H166091   5.410   5.781   0.956 -0.4490  0.1180  0.9544
14892TIP3    H266092   5.422   5.932   0.962 -1.0221  0.4001 -2.6941
14893TIP3   OH266093   6.674   5.660  10.846  0.2002 -0.6181 -0.1220
14893TIP3    H166094   6.707   5.701  10.926  0.2930 -2.2126  0.7172
14893TIP3    H266095   6.616   5.724  10.807  0.5537  0.3888  0.9664
14894TIP3   OH266096   3.326   1.280   6.114  0.2193 -0.0942 -0.0723
14894TIP3    H166097   3.391   1.349   6.125  1.3706 -1.2578  0.5491
14894TIP3    H266098   3.277   1.306   6.035 -0.4170  2.2260  1.0070
14895TIP3   OH266099   5.449   2.509  15.885  0.4782 -0.5327  0.2020
14895TIP3    H166100   5.540   2.537  15.888  0.2790  0.0976  0.7018
14895TIP3    H266101   5.430   2.479  15.974 -0.2033  0.7007  0.4971
14896TIP3   OH266102   2.466   2.198  13.170 -0.1563 -0.1303  0.4677
14896TIP3    H166103   2.374   2.184  13.196 -0.0509 -1.6552  0.1178
14896TIP3    H266104   2.466   2.186  13.075  0.2095  1.0661  0.3110
14897TIP3   OH266105   1.681   1.859   0.460 -0.2763 -0.4873  0.5760
14897TIP3    H166106   1.647   1.875   0.548 -0.0058  2.1913  0.2743
14897TIP3    H266107   1.603   1.848   0.406 -0.5003 -0.1698  0.8294
14898TIP3   OH266108   3.711   0.390  15.826 -0.4884  0.1326 -0.1186
14898TIP3    H166109   3.761   0.354  15.899  0.2602  1.2422 -0.0521
14898TIP3    H266110   3.732   0.334  15.752  0.7599  0.4829 -0.0542
14899TIP3   OH266111   5.612   5.734   2.550  0.0143 -0.4700  0.3568
14899TIP3    H166112   5.538   5.752   2.608  0.4385  0.1212  0.7274
14899TIP3    H266113   5.572   5.699   2.470 -0.7208  0.5786  0.2468
14900TIP3   OH266114   5.531   4.952  11.493 -0.0353  0.1154  0.5196
14900TIP3    H166115   5.557   5.028  11.442 -1.9984 -1.1576 -2.6656
14900TIP3    H266116   5.460   4.983  11.548 -0.9147  0.6069 -0.8543
14901TIP3   OH266117   2.191   6.355   4.899 -0.7790  0.4446  0.2279
14901TIP3    H166118   2.230   6.397   4.822  0.2314 -0.4730  0.2181
14901TIP3    H266119   2.098   6.376   4.893 -0.8341 -0.1023 -1.5982
14902TIP3   OH266120   3.300   6.408   1.826  0.3812 -0.5245  0.3735
14902TIP3    H166121   3.295   6.313   1.817  2.3023 -0.8199  1.7385
14902TIP3    H266122   3.258   6.426   1.911  0.7241 -0.2531  0.4872
14903TIP3   OH266123   2.140   5.117   1.441  0.0266  0.2351  0.3196
14903TIP3    H166124   2.193   5.161   1.508  0.5968  0.0318  0.0007
14903TIP3    H266125   2.157   5.166   1.361  1.6421 -1.2840 -0.3233
14904TIP3   OH266126   2.334   3.616   3.140 -0.1584 -0.2095 -0.0819
14904TIP3    H166127   2.312   3.688   3.200  0.3345  0.2530 -0.4451
14904TIP3    H266128   2.344   3.658   3.055 -1.4533 -0.9480 -0.6344
14905TIP3   OH266129   0.729   4.287  15.416 -0.0747  0.3190 -0.0071
14905TIP3    H166130   0.667   4.292  15.488  0.9533 -0.3740  0.9488
14905TIP3    H266131   0.815   4.303  15.456  0.8216 -2.4304 -0.5969
14906TIP3   OH266132   3.796   2.482  11.994  0.1395  0.3037 -0.0586
14906TIP3    H166133   3.800   2.511  12.085 -1.6286  1.8335 -0.4131
14906TIP3    H266134   3.880   2.510  11.956  0.2981  0.9458  0.7390
14907TIP3   OH266135   1.713   0.561   0.694 -0.3113 -0.4457  0.2427
14907TIP3    H166136   1.747   0.629   0.635 -0.8188 -0.1504  0.2820
14907TIP3    H266137   1.683   0.609   0.771 -0.0721 -0.7856  0.5499
14908TIP3   OH266138   4.249   5.110  16.116  0.1517  0.2835 -0.3627
14908TIP3    H166139   4.197   5.121  16.036 -0.1438  3.7068  0.1134
14908TIP3    H266140   4.225   5.185  16.170  1.0657 -1.3975  2.5835
14909TIP3   OH266141   5.530   1.394  14.942 -0.2916  0.1974  0.3966
14909TIP3    H166142   5.487   1.332  15.001 -0.7490  1.2707  1.2215
14909TIP3    H266143   5.529   1.478  14.989  0.4790  0.8016 -0.6088
14910TIP3   OH266144   2.784   6.214   0.015  0.0745 -0.1274 -0.2659
14910TIP3    H166145   2.855   6.233  -0.047  0.8730 -0.8105  0.3994
14910TIP3    H266146   2.792   6.282   0.082 -0.0277 -0.0838 -0.2984
14911TIP3   OH266147   1.384   6.781  12.126 -0.1612  0.4671 -0.3437
14911TIP3    H166148   1.418   6.863  12.161  1.2545 -0.2718  0.0901
14911TIP3    H266149   1.399   6.717  12.195 -3.2046  0.2015  0.1950
14912TIP3   OH266150   3.153   6.748   0.637  0.1977 -0.2657 -0.1209
14912TIP3    H166151   3.241   6.715   0.620 -0.3872 -2.8489  1.4730
14912TIP3    H266152   3.112   6.750   0.550  1.9122  1.5208 -0.9748
14913TIP3   OH266153   6.073   3.766  13.132  0.4035 -0.2575 -0.2010
14913TIP3    H166154   6.028   3.739  13.052 -0.7714  0.1588  0.3139
14913TIP3    H266155   6.071   3.688  13.188  1.8805 -0.7906 -0.8245
14914TIP3   OH266156   3.148   0.545  13.068  0.1046 -0.5131 -0.6672
14914TIP3    H166157   3.196   0.596  13.134 -0.3332 -1.3925  0.3612
14914TIP3    H266158   3.213   0.529  12.999 -0.0917  2.5255 -1.7115
14915TIP3   OH266159   4.186   3.353   3.738 -0.0671 -0.4824  0.3603
14915TIP3    H166160   4.217   3.263   3.750  0.6642 -0.2430  0.3252
14915TIP3    H266161   4.229   3.403   3.808  1.1231  0.1974 -0.7919
14916TIP3   OH266162   4.025   2.737  11.323  0.2415  0.0261 -0.2332
14916TIP3    H166163   4.046   2.830  11.325  0.7962 -0.1063  1.2889
14916TIP3    H266164   3.990   2.722  11.235  2.4582  1.1494 -1.3757
14917TIP3   OH266165   2.820   2.572   6.134 -0.6111  0.2461 -0.0057
14917TIP3    H166166   2.760   2.501   6.160  0.7966 -1.4846 -1.2599
14917TIP3    H266167   2.907   2.540   6.159  0.1202  1.2757 -1.1652
14918TIP3   OH266168   3.623   5.438  14.786 -0.4536 -0.3370  0.1297
14918TIP3    H166169   3.697   5.494  14.807 -0.6062  0.0637 -0.3804
14918TIP3    H266170   3.662   5.352  14.768 -0.0226  0.0512 -0.8753
14919TIP3   OH266171   4.020   2.762   2.041  0.7317 -0.0072 -0.1727
14919TIP3    H166172   4.021   2.728   1.951  2.1760  1.3183 -0.7032
14919TIP3    H266173   4.112   2.778   2.062  0.2385  2.2600  0.5003
14920TIP3   OH266174   0.221   2.081  15.856 -0.0425  0.0804 -0.2842
14920TIP3    H166175   0.131   2.115  15.849 -0.0449  0.3994  1.0520
14920TIP3    H266176   0.259   2.095  15.770 -1.1446  0.3321 -0.7449
14921TIP3   OH266177   0.914   5.540  16.303 -0.0669  0.1142  0.5932
14921TIP3    H166178   0.854   5.612  16.320 -0.0705  0.5350 -1.0086
14921TIP3    H266179   0.987   5.581  16.256  1.1348 -0.5119  1.8481
14922TIP3   OH266180   0.124   0.821  13.038  0.4316 -0.0562 -0.1275
14922TIP3    H166181   0.140   0.884  12.968  0.0030  1.7290  1.2740
14922TIP3    H266182   0.140   0.736  12.999  4.0163  1.0078 -1.3611
14923TIP3   OH266183   5.204   2.665   2.605  0.4071  0.1691 -0.2771
14923TIP3    H166184   5.284   2.649   2.655  1.2739  0.8805 -1.3813
14923TIP3    H266185   5.215   2.613   2.526  0.1541  0.9033 -0.8017
14924TIP3   OH266186   5.601   4.010   2.220 -0.1811  0.3988  0.1335
14924TIP3    H166187   5.697   4.010   2.214 -0.0078 -0.7203  2.1585
14924TIP3    H266188   5.572   3.967   2.140  0.9001  1.9030 -1.1522
14925TIP3   OH266189   5.112   6.709   5.126 -0.8909 -0.2686  0.2161
14925TIP3    H166190   5.135   6.684   5.216 -2.6607 -1.5648  0.3446
14925TIP3    H266191   5.029   6.756   5.135 -0.8011  0.0755 -0.6982
14926TIP3   OH266192   1.017   4.758  11.599  0.4821 -0.0232 -0.2541
14926TIP3    H166193   1.111   4.774  11.585  0.1985  0.1484 -2.3617
14926TIP3    H266194   0.975   4.798  11.523 -1.3146 -0.1507  0.6247
14927TIP3   OH266195   1.499   4.347   0.151  0.2113  0.2221 -0.1579
14927TIP3    H166196   1.408   4.362   0.177  0.1166  0.1602 -0.4472
14927TIP3    H266197   1.508   4.252   0.150  1.1898  0.1774  2.9859
14928TIP3   OH266198   5.518   0.475   0.714  0.0250 -0.1153 -0.1818
14928TIP3    H166199   5.586   0.489   0.780  0.2655  0.1050 -0.4722
14928TIP3    H266200   5.553   0.515   0.635 -0.1171 -0.6822 -0.5316
14929TIP3   OH266201   3.993   1.202  16.041 -0.0097 -0.1069 -0.1858
14929TIP3    H166202   4.058   1.138  16.013  1.5937 -1.2238  5.0185
14929TIP3    H266203   4.041   1.285  16.044 -0.1490 -0.0107 -0.5163
14930TIP3   OH266204   4.826   1.737   5.917  0.2812  0.2312 -0.4898
14930TIP3    H166205   4.877   1.796   5.862 -0.9315  0.7942 -1.0485
14930TIP3    H266206   4.872   1.654   5.914  1.4197  0.8568 -0.5768
14931TIP3   OH266207   2.236   5.253  11.991 -0.1623 -0.6299 -0.2340
14931TIP3    H166208   2.308   5.199  12.022 -0.0065 -1.6058 -2.1557
14931TIP3    H266209   2.255   5.341  12.024  0.1783 -1.4751  1.9878
14932TIP3   OH266210   2.427   2.652   2.758 -0.5904  0.0794  0.3845
14932TIP3    H166211   2.486   2.700   2.700 -0.0463  1.5024  2.0386
14932TIP3    H266212   2.341   2.691   2.740 -0.5887 -0.1461 -0.1301
14933TIP3   OH266213   2.998   4.430  10.133 -0.3868  0.2484 -0.4025
14933TIP3    H166214   2.965   4.362  10.191 -0.7643 -1.1640 -2.1889
14933TIP3    H266215   2.921   4.456  10.081  0.1994  0.5870 -1.1201
14934TIP3   OH266216   6.623   3.809   1.247 -1.1328  0.6890 -1.4818
14934TIP3    H166217   6.605   3.804   1.153  1.3107 -0.1495 -1.9697
14934TIP3    H266218   6.619   3.719   1.277 -0.6789  0.8112 -1.0475
14935TIP3   OH266219   1.085   0.189  11.457  0.4378 -1.0680 -0.2930
14935TIP3    H166220   1.049   0.225  11.538 -3.2115 -1.0042 -1.7431
14935TIP3    H266221   1.153   0.251  11.431 -1.4042  1.4449  0.4826
14936TIP3   OH266222   0.658   1.987  15.455  0.1910 -0.8348  0.2546
14936TIP3    H166223   0.654   2.079  15.482  0.1411 -0.5865 -0.5761
14936TIP3    H266224   0.679   1.990  15.362  0.3890 -1.6749  0.2620
14937TIP3   OH266225   2.116   1.053   5.796 -0.3175 -0.6676  0.1275
14937TIP3    H166226   2.168   0.993   5.743 -1.8893 -3.1606  1.2380
14937TIP3    H266227   2.163   1.060   5.879  0.3935  0.5294 -0.3499
14938TIP3   OH266228   3.428   0.854   1.490  0.4626  0.6077  0.8142
14938TIP3    H166229   3.348   0.887   1.450 -0.2832 -0.7812  1.0961
14938TIP3    H266230   3.498   0.888   1.434 -0.3634  1.2106  0.1158
14939TIP3   OH266231   2.411   4.883   5.830  0.3701 -0.3432 -0.0625
14939TIP3    H166232   2.327   4.843   5.851 -0.1540  0.9170  0.3845
14939TIP3    H266233   2.425   4.947   5.900  0.5989  1.0507 -1.3325
14940TIP3   OH266234   2.705   3.255   1.867 -0.0220 -0.6970 -0.0845
14940TIP3    H166235   2.622   3.276   1.824 -0.4376 -3.5939 -0.8902
14940TIP3    H266236   2.681   3.213   1.949  0.6976 -0.4376  0.2738
14941TIP3   OH266237   3.480   1.514  10.141  0.3797  0.1561 -0.4630
14941TIP3    H166238   3.484   1.609  10.154 -1.5319  0.0706  1.5507
14941TIP3    H266239   3.408   1.502  10.079  1.0732  0.0216 -1.2561
14942TIP3   OH266240   6.712   2.253  16.008  0.1146  0.7672 -0.4009
14942TIP3    H166241   6.744   2.238  15.919  1.5154  2.2017 -0.1690
14942TIP3    H266242   6.665   2.172  16.030  0.8110 -0.1064 -1.9636
14943TIP3   OH266243   3.008   3.204   1.490  0.2267 -0.6547  0.3192
14943TIP3    H166244   3.041   3.215   1.401 -0.5601 -1.9978 -0.1811
14943TIP3    H266245   3.018   3.111   1.508 -0.0448 -0.4787  1.4719
14944TIP3   OH266246   2.355   0.962   5.684  0.0389  0.0762 -0.2262
14944TIP3    H166247   2.397   0.879   5.659  0.5937 -0.3907  2.0253
14944TIP3    H266248   2.413   0.999   5.750 -1.0941  1.4197  0.0568
14945TIP3   OH266249   5.290   1.230   4.936 -0.3179  0.0561 -0.5359
14945TIP3    H166250   5.319   1.139   4.931 -0.0046  0.0424  1.0533
14945TIP3    H266251   5.364   1.277   4.973 -0.5445  0.9344 -1.1756
14946TIP3   OH266252   5.633   1.112  13.859 -0.1984 -0.0213  0.2732
14946TIP3    H166253   5.616   1.030  13.812 -1.2946  0.7307 -0.7099
14946TIP3    H266254   5.715   1.144  13.822 -0.4735 -0.0001 -0.3298
14947TIP3   OH266255   5.238   5.427  16.617 -0.1857  0.1223  0.3720
14947TIP3    H166256   5.302   5.498  16.626  0.6327  0.0197 -3.2924
14947TIP3    H266257   5.282   5.351  16.656  1.8979  0.1538 -1.6775
14948TIP3   OH266258   1.365   5.665   0.941  0.2990 -0.5517  0.0741
14948TIP3    H166259   1.337   5.585   0.985  1.3174 -1.3372 -0.6670
14948TIP3    H266260   1.460   5.662   0.943  0.3563  0.2229 -0.7020
14949TIP3   OH266261   6.567   3.251   5.191  0.5924 -0.0556 -0.0379
14949TIP3    H166262   6.615   3.268   5.110 -0.2119 -1.0059 -0.7310
14949TIP3    H266263   6.601   3.168   5.223 -0.1234 -0.4297 -0.2088
14950TIP3   OH266264   3.230   1.527  12.655  0.2820 -0.8108  0.5161
14950TIP3    H166265   3.277   1.460  12.704  1.6607 -1.2881 -1.3261
14950TIP3    H266266   3.236   1.498  12.564 -1.2423  0.5697 -0.0695
14951TIP3   OH266267   5.353   2.991  14.254 -0.4038  0.2215  0.3715
14951TIP3    H166268   5.286   3.035  14.202  2.3098  1.2995 -2.5137
14951TIP3    H266269   5.352   2.901  14.224 -1.5636 -0.1909  1.5386
14952TIP3   OH266270   0.311   5.490  12.767  0.0367 -0.2482 -0.2463
14952TIP3    H166271   0.320   5.563  12.706 -1.0460  0.8443  0.8305
14952TIP3    H266272   0.285   5.416  12.712  0.5458  0.3188 -1.2910
14953TIP3   OH266273   3.759   5.900  11.103  0.4634  0.4253  0.3697
14953TIP3    H166274   3.853   5.913  11.112  0.7239 -1.5227  0.9324
14953TIP3    H266275   3.724   5.988  11.085  2.2247  1.3872  1.3804
14954TIP3   OH266276   6.083   5.626   6.069  0.3212 -0.0045 -0.7571
14954TIP3    H166277   6.063   5.604   6.160  4.3705 -0.5037  0.2230
14954TIP3    H266278   6.081   5.722   6.066  1.2466  0.0686  0.2368
14955TIP3   OH266279   4.758   0.662  15.214 -0.1715 -0.5385  0.4845
14955TIP3    H166280   4.726   0.689  15.127  1.0001 -1.6140 -0.3159
14955TIP3    H266281   4.843   0.704  15.222 -0.4139 -0.1931  1.2572
14956TIP3   OH266282   1.208   0.834   2.157 -0.5793 -0.2888 -0.6365
14956TIP3    H166283   1.149   0.879   2.217  0.5730 -1.5417  1.5556
14956TIP3    H266284   1.221   0.748   2.196  1.3838 -0.6425 -1.9200
14957TIP3   OH266285   3.234   4.159   1.576 -0.4166  0.2134 -0.1313
14957TIP3    H166286   3.305   4.147   1.640 -1.0955  0.1392  0.6274
14957TIP3    H266287   3.277   4.150   1.491  0.8253  1.8799  0.2438
14958TIP3   OH266288   3.434   5.401   2.055  0.6980  0.4250  0.6409
14958TIP3    H166289   3.429   5.491   2.087 -0.5303  0.0057  1.7502
14958TIP3    H266290   3.345   5.382   2.024  1.1778 -0.1068 -0.4695
14959TIP3   OH266291   0.802   6.665  14.430 -0.3397  0.3759  0.1422
14959TIP3    H166292   0.776   6.748  14.390 -0.1655  0.4614  0.2036
14959TIP3    H266293   0.770   6.598  14.370 -0.7782  0.4753  0.2668
14960TIP3   OH266294   4.350   2.327  13.018 -0.4001  0.3081  0.0540
14960TIP3    H166295   4.371   2.284  13.101  0.4050  0.2357 -0.1829
14960TIP3    H266296   4.258   2.351  13.026  0.0358  1.6091  1.5338
14961TIP3   OH266297   4.069   5.101  13.294  0.2542 -0.2861  0.3443
14961TIP3    H166298   3.997   5.079  13.352  1.5335 -1.1065  1.6924
14961TIP3    H266299   4.056   5.193  13.272 -0.1118  0.1259  2.1744
14962TIP3   OH266300   3.510   3.000  12.130  0.3820 -0.3386 -0.4214
14962TIP3    H166301   3.598   2.994  12.092 -0.2917 -0.0877 -2.0977
14962TIP3    H266302   3.525   3.027  12.221  1.9819  1.3854 -1.1331
14963TIP3   OH266303   1.272   5.268   3.912  0.0693  0.4739 -0.2822
14963TIP3    H166304   1.216   5.276   3.834  0.1846  0.0236 -0.4128
14963TIP3    H266305   1.241   5.190   3.957  0.3958  0.3915 -0.1955
14964TIP3   OH266306   2.762   0.786  11.480 -0.1428  0.3432  0.3131
14964TIP3    H166307   2.711   0.728  11.424 -0.3185  1.1392 -0.3668
14964TIP3    H266308   2.703   0.857  11.502  0.5480  1.0975 -0.1945
14965TIP3   OH266309   4.762   1.740   4.675 -0.0808  0.2197 -0.0023
14965TIP3    H166310   4.762   1.806   4.606  0.5562  0.9445  0.6753
14965TIP3    H266311   4.808   1.665   4.636 -1.4708 -0.1600 -1.0421
14966TIP3   OH266312   5.030   4.774   4.583 -0.1149 -0.1236  0.7382
14966TIP3    H166313   5.118   4.805   4.561  0.0024 -0.0208  1.3569
14966TIP3    H266314   4.971   4.841   4.548 -0.0675 -1.1463 -1.4649
14967TIP3   OH266315   2.576   1.747  16.990  0.2733  0.4058 -0.0264
14967TIP3    H166316   2.595   1.779  16.902  1.2760  0.8242  0.3270
14967TIP3    H266317   2.492   1.702  16.982  0.8495 -0.5012 -1.4274
14968TIP3   OH266318   1.731   5.923  12.988  0.6319  0.2552  0.0118
14968TIP3    H166319   1.655   5.878  12.950 -0.0486 -0.1804  1.7670
14968TIP3    H266320   1.782   5.853  13.029  1.0605  0.7539  0.3444
14969TIP3   OH266321   2.298   0.693  14.818  0.1716 -0.1658  0.1447
14969TIP3    H166322   2.342   0.716  14.736  1.9802  0.0481  1.1285
14969TIP3    H266323   2.282   0.599  14.811  1.5383 -0.4162  0.0586
14970TIP3   OH266324   4.124   5.297   1.191 -0.0025  0.2695  0.3827
14970TIP3    H166325   4.169   5.380   1.210 -2.7155  1.9129  0.1469
14970TIP3    H266326   4.062   5.287   1.263 -3.1696  1.1518 -1.9783
14971TIP3   OH266327   1.874   3.848   2.018 -0.1899 -0.0866  0.0365
14971TIP3    H166328   1.802   3.908   1.998  1.7529  2.2841 -0.2834
14971TIP3    H266329   1.889   3.859   2.111  1.4961  1.5678 -0.3864
14972TIP3   OH266330   0.003   5.065   5.005  0.0126  0.1888  0.6852
14972TIP3    H166331   0.037   4.978   5.021  2.4155  0.8446 -0.3744
14972TIP3    H266332  -0.091   5.058   5.023  0.5105 -1.9532  2.9902
14973TIP3   OH266333   6.125   3.712   2.905 -0.2852 -0.0735 -0.1793
14973TIP3    H166334   6.100   3.640   2.848  1.0635 -0.8907  0.2175
14973TIP3    H266335   6.085   3.789   2.866 -0.6416 -0.8419 -1.3672
14974TIP3   OH266336   2.283   1.989  14.797 -0.0807 -0.1422 -0.3926
14974TIP3    H166337   2.222   2.024  14.731 -0.5646 -1.3984 -0.6382
14974TIP3    H266338   2.367   1.987  14.752 -0.1262  0.3229 -0.5054
14975TIP3   OH266339   1.546   3.448   1.485 -0.1487  0.3647  0.3739
14975TIP3    H166340   1.515   3.529   1.524  1.2276  1.4757 -0.7375
14975TIP3    H266341   1.467   3.404   1.455 -0.9260  1.2471  1.0686
14976TIP3   OH266342   2.319   5.850   4.026 -0.0488 -0.2622  0.1385
14976TIP3    H166343   2.303   5.925   3.969 -0.2330  0.4358  1.0916
14976TIP3    H266344   2.318   5.886   4.115  2.2210 -0.9482  0.5252
14977TIP3   OH266345   0.700   0.111   5.811 -0.2364  0.3951  0.0211
14977TIP3    H166346   0.628   0.127   5.872  0.3582 -0.1970  0.9006
14977TIP3    H266347   0.770   0.169   5.840  0.0930  0.0210 -0.0111
14978TIP3   OH266348   3.316   4.101  11.670 -0.6422 -0.0272  0.2985
14978TIP3    H166349   3.315   4.015  11.629  0.6810  0.0851 -0.0137
14978TIP3    H266350   3.283   4.086  11.759  2.0436 -1.3916  1.1733
14979TIP3   OH266351   4.723   0.538   2.005 -0.5133  0.1397 -0.0077
14979TIP3    H166352   4.803   0.589   2.016 -0.8110  0.7599 -0.5783
14979TIP3    H266353   4.748   0.463   1.951  0.2721 -1.2181  2.1430
14980TIP3   OH266354   4.968   4.186   0.205  0.6432 -0.0241  0.6986
14980TIP3    H166355   4.910   4.227   0.141  1.2719 -0.0277  0.1175
14980TIP3    H266356   4.992   4.256   0.264 -1.4026 -0.3865  2.0695
14981TIP3   OH266357   4.005   2.066  11.585  0.0901 -0.0309  0.0086
14981TIP3    H166358   4.030   2.116  11.663  2.1216 -1.0177  0.0479
14981TIP3    H266359   3.919   2.101  11.561  1.3068  3.4285  0.0560
14982TIP3   OH266360   4.246   3.092   0.158  0.6547  0.3864  0.2665
14982TIP3    H166361   4.202   3.052   0.233  0.1396  0.2733 -0.0954
14982TIP3    H266362   4.195   3.170   0.139 -1.1229 -1.1866 -1.9172
14983TIP3   OH266363   1.097   5.102   2.815  0.5401 -0.6850 -0.0565
14983TIP3    H166364   1.072   5.168   2.749 -0.2296 -1.7014 -0.8004
14983TIP3    H266365   1.193   5.109   2.819  0.5398 -0.0862 -0.7365
14984TIP3   OH266366   1.872   6.138   2.933  0.0345 -0.3244 -0.4385
14984TIP3    H166367   1.834   6.163   2.848 -1.0339  0.1216  0.1541
14984TIP3    H266368   1.957   6.183   2.935 -0.9194  1.5908 -0.3208
14985TIP3   OH266369   0.284   3.625  11.728  0.5072 -0.5056 -0.3107
14985TIP3    H166370   0.195   3.597  11.748 -0.7775  1.6416 -2.4672
14985TIP3    H266371   0.327   3.632  11.813 -1.9937  0.2696  0.9838
14986TIP3   OH266372   3.451   5.270   5.612  0.1746 -0.2855  0.5373
14986TIP3    H166373   3.529   5.327   5.615  0.2003 -0.2837  0.0286
14986TIP3    H266374   3.428   5.255   5.703  0.7995 -0.3159  0.6943
14987TIP3   OH266375   2.428   2.911  10.573  0.2476 -0.4653 -0.6488
14987TIP3    H166376   2.363   2.958  10.625  1.9579 -0.1528  1.3670
14987TIP3    H266377   2.433   2.959  10.491 -0.8574  0.4845 -0.1872
14988TIP3   OH266378   4.330   3.336   5.200 -0.1073 -0.3172 -0.3200
14988TIP3    H166379   4.318   3.281   5.278 -2.0766  0.7778  0.2088
14988TIP3    H266380   4.243   3.339   5.161  0.3581  1.0569 -1.2704
14989TIP3   OH266381   6.080   1.381  13.889 -0.1866  0.0281  0.2027
14989TIP3    H166382   6.050   1.420  13.807  3.9105  2.9698 -0.1822
14989TIP3    H266383   6.052   1.443  13.957 -0.0211 -0.2511  0.5293
14990TIP3   OH266384   6.046   4.391   1.023 -0.0428  0.1596 -0.3158
14990TIP3    H166385   6.054   4.386   0.928 -0.7968 -2.3512 -0.3165
14990TIP3    H266386   5.955   4.369   1.041 -0.2051  1.7228  0.9679
14991TIP3   OH266387   0.767   3.289  15.412 -0.3161  0.1540  0.2913
14991TIP3    H166388   0.852   3.331  15.401 -1.9341  3.7027 -0.1864
14991TIP3    H266389   0.734   3.278  15.323 -0.0902 -1.9443  0.4309
14992TIP3   OH266390   1.158   2.871   4.553  0.3329  0.5622 -0.0092
14992TIP3    H166391   1.180   2.844   4.642  0.1564  2.0171  0.5070
14992TIP3    H266392   1.218   2.944   4.535 -0.1841  0.8087 -0.7623
14993TIP3   OH266393   6.350   1.979  15.027  0.4018  0.2562 -0.5198
14993TIP3    H166394   6.381   1.915  15.091 -1.7804 -0.8899 -0.5211
14993TIP3    H266395   6.313   2.050  15.080  1.3153  0.7602 -0.5327
14994TIP3   OH266396   0.178   1.011  16.449 -0.3512  0.0193 -0.5915
14994TIP3    H166397   0.093   1.016  16.405 -0.7721  0.4736  0.2367
14994TIP3    H266398   0.178   1.085  16.510  0.3011 -0.4483 -0.0006
14995TIP3   OH266399   3.156   4.284   1.894  0.2097  0.4069  0.2391
14995TIP3    H166400   3.144   4.197   1.932 -0.7564 -0.2845 -1.5707
14995TIP3    H266401   3.139   4.344   1.967  0.0706 -0.8817  1.3133
14996TIP3   OH266402   1.562   3.135  12.636  0.0587 -0.6278 -0.0999
14996TIP3    H166403   1.613   3.054  12.638 -2.0990 -2.0681  0.3493
14996TIP3    H266404   1.511   3.134  12.717  0.5382  1.6038  0.2954
14997TIP3   OH266405   4.473   0.378  14.679 -0.4102  0.5016  0.6038
14997TIP3    H166406   4.544   0.344  14.625 -1.2275  0.9185 -0.7778
14997TIP3    H266407   4.475   0.473  14.666 -2.6189  0.3690 -1.3340
14998TIP3   OH266408   1.198   2.718  13.358 -0.6024 -0.7794 -0.3777
14998TIP3    H166409   1.126   2.699  13.418  0.7819 -0.8643  1.3273
14998TIP3    H266410   1.189   2.652  13.289 -2.5116 -0.3797 -0.5882
14999TIP3   OH266411   6.331   4.523  12.598 -0.3000  0.0109  0.1716
14999TIP3    H166412   6.351   4.437  12.563  1.2724  0.2970  0.2982
14999TIP3    H266413   6.391   4.582  12.552 -0.3917  0.8313  1.0781
15000TIP3   OH266414   6.064   4.508   6.318  0.0108  0.5716 -0.4183
15000TIP3    H166415   6.022   4.582   6.361 -1.4034 -1.3859  1.8175
15000TIP3    H266416   5.999   4.477   6.255 -1.7351 -1.7583  2.2508
15001TIP3   OH266417   1.192   1.191   6.789 -0.1956  0.4593  0.2254
15001TIP3    H166418   1.171   1.102   6.817  1.1696  0.0978  0.1813
15001TIP3    H266419   1.189   1.186   6.693 -1.5402  0.8487  0.2232
15002TIP3   OH266420   1.294   4.846  11.670  0.4041 -0.0298 -0.2312
15002TIP3    H166421   1.350   4.922  11.650  1.5967 -0.0233  2.6304
15002TIP3    H266422   1.324   4.778  11.609  1.3850  0.9114 -0.8498
15003TIP3   OH266423   4.098   0.086  11.122 -0.7725 -0.6099  0.0337
15003TIP3    H166424   4.049   0.069  11.042 -1.5829 -3.0792  0.9507
15003TIP3    H266425   4.188   0.062  11.101 -0.4572  1.1849 -0.8188
15004TIP3   OH266426   1.792   1.636  12.261  0.3472 -0.0639 -0.0323
15004TIP3    H166427   1.851   1.567  12.234 -0.5476 -0.7877 -0.2012
15004TIP3    H266428   1.846   1.695  12.314  0.9118 -1.4439  1.0078
15005TIP3   OH266429   2.280   2.431  13.442  0.4002 -0.1035 -0.7565
15005TIP3    H166430   2.294   2.383  13.523  0.9632  0.1859 -0.6791
15005TIP3    H266431   2.367   2.461  13.416 -0.1089  2.5368  0.2383
15006TIP3   OH266432   2.444   5.390  14.596 -0.0456  0.1182  0.4893
15006TIP3    H166433   2.504   5.461  14.574  0.1468  0.4013  1.8480
15006TIP3    H266434   2.492   5.337  14.659 -1.5818  1.0040  2.5183
15007TIP3   OH266435   0.578   3.118   6.013 -0.3290 -0.0722  0.3095
15007TIP3    H166436   0.658   3.088   5.972  0.3509  1.6941  0.2488
15007TIP3    H266437   0.578   3.213   6.000 -1.5594  0.1814  1.8121
15008TIP3   OH266438   1.668   1.728  11.771 -0.5817 -0.1237 -0.5198
15008TIP3    H166439   1.677   1.816  11.735 -1.1841 -0.0480 -0.4910
15008TIP3    H266440   1.685   1.670  11.697  1.3713 -0.0229 -0.2024
15009TIP3   OH266441   1.932   4.159  11.685 -0.4708 -0.2399  0.4533
15009TIP3    H166442   1.891   4.152  11.771 -0.7325 -2.2500  0.2113
15009TIP3    H266443   1.993   4.085  11.682  1.6135  1.3773 -0.0539
15010TIP3   OH266444   5.217   5.312   6.183  0.1351  0.0366 -0.1051
15010TIP3    H166445   5.168   5.338   6.262  0.4329  1.0544 -0.2445
15010TIP3    H266446   5.293   5.266   6.217  0.3677  0.6493  0.2213
15011TIP3   OH266447   0.952   4.343  14.164 -0.3137 -0.0063 -0.0539
15011TIP3    H166448   0.879   4.295  14.203  0.8959 -0.9099  1.2531
15011TIP3    H266449   0.997   4.382  14.239  1.2055 -0.4678 -0.6920
15012TIP3   OH266450   5.070   1.109  14.886  0.4809  0.5009 -0.5006
15012TIP3    H166451   5.158   1.096  14.849  1.5889  1.7673  1.5355
15012TIP3    H266452   5.013   1.057  14.830  2.2236  1.2082 -3.1250
15013TIP3   OH266453   5.807   5.928   3.127  0.0905  0.4796 -0.1485
15013TIP3    H166454   5.860   5.871   3.184 -0.0615  1.4160  0.9824
15013TIP3    H266455   5.800   5.881   3.045  2.1816  0.0452 -0.1255
15014TIP3   OH266456   2.154   6.691  13.294  0.0268  0.4252 -0.3941
15014TIP3    H166457   2.105   6.742  13.360  0.3333  2.0823 -1.3900
15014TIP3    H266458   2.086   6.645  13.245 -0.3998  1.0903 -0.4501
15015TIP3   OH266459   1.712   4.293   1.084 -0.1335  0.1872  0.2850
15015TIP3    H166460   1.800   4.266   1.110 -0.9257 -1.4693  1.3809
15015TIP3    H266461   1.719   4.388   1.073  1.8740  0.0549 -0.0659
15016TIP3   OH266462   5.280   2.591   4.445  0.2888 -0.2578 -0.0593
15016TIP3    H166463   5.372   2.608   4.426 -0.1591  0.9570 -1.3472
15016TIP3    H266464   5.271   2.496   4.438  1.0793 -0.2376 -1.8362
15017TIP3   OH266465   6.784   5.643   5.755  0.0888 -0.4782  0.1026
15017TIP3    H166466   6.825   5.605   5.677 -3.2669 -1.3586 -1.4051
15017TIP3    H266467   6.764   5.733   5.730  0.4880 -0.2421  0.6060
15018TIP3   OH266468   1.096   5.064   1.134 -0.6827  0.0005  0.1108
15018TIP3    H166469   1.170   5.068   1.073  0.5644  0.7012  1.5865
15018TIP3    H266470   1.034   5.129   1.102  0.5809  1.3653  0.3301
15019TIP3   OH266471   5.649   1.852   2.669 -0.0912 -0.1775  0.3465
15019TIP3    H166472   5.607   1.780   2.716 -0.0133 -1.0539 -0.8773
15019TIP3    H266473   5.665   1.919   2.736 -1.3629 -0.7506  1.2572
15020TIP3   OH266474   1.869   3.371  13.500 -0.0180 -0.1316 -0.3896
15020TIP3    H166475   1.821   3.432  13.556  1.0862  1.0825 -0.7168
15020TIP3    H266476   1.929   3.326  13.559  1.5806  1.5875 -0.6305
15021TIP3   OH266477   0.388   0.089   0.933  0.2938 -0.3700  0.1995
15021TIP3    H166478   0.399   0.091   1.028 -0.6149  1.0035  0.3109
15021TIP3    H266479   0.330   0.015   0.917 -0.5198  0.1202  0.8374
15022TIP3   OH266480   6.661   3.780   0.315 -0.8088 -0.0737  0.3411
15022TIP3    H166481   6.692   3.712   0.375  0.4350 -1.5783 -1.8678
15022TIP3    H266482   6.730   3.786   0.249 -2.6865  0.5457 -1.6595
15023TIP3   OH266483   1.171   0.137   5.758  0.1070  0.2169 -0.4779
15023TIP3    H166484   1.166   0.186   5.676  1.9053  0.2668 -0.6051
15023TIP3    H266485   1.241   0.073   5.743  0.1528 -0.0674  0.8653
15024TIP3   OH266486   3.720   6.325   4.086  0.1905  0.5258  0.4705
15024TIP3    H166487   3.713   6.293   3.996 -0.0123  0.9964  0.3163
15024TIP3    H266488   3.767   6.408   4.078 -0.1247  0.7354  0.7611
15025TIP3   OH266489   5.834   4.148   0.238 -0.1811  0.6491  0.1629
15025TIP3    H166490   5.857   4.238   0.216 -1.2037  1.0051  0.5195
15025TIP3    H266491   5.868   4.136   0.327  0.1372  0.6072  0.0388
15026TIP3   OH266492   4.794   5.239  13.633 -0.5186  0.2967  0.0448
15026TIP3    H166493   4.838   5.221  13.549  0.9615 -2.5118  1.2717
15026TIP3    H266494   4.776   5.333  13.631  2.7176  1.0479 -1.9366
15027TIP3   OH266495   6.117   1.554   1.459  0.7537 -0.4205 -0.1740
15027TIP3    H166496   6.072   1.495   1.398 -0.8221  0.7697 -0.2220
15027TIP3    H266497   6.131   1.634   1.409 -2.5305  1.3968  1.5278
15028TIP3   OH266498   4.496   0.618   5.935  0.0462  0.4378  0.3232
15028TIP3    H166499   4.512   0.706   5.968 -0.6738  0.6215  0.1982
15028TIP3    H266500   4.494   0.563   6.013 -1.3375  0.8232  0.5826
15029TIP3   OH266501   2.337   6.590  15.268 -0.5384 -0.4716 -0.4099
15029TIP3    H166502   2.268   6.556  15.326  0.0596 -1.4687 -0.2536
15029TIP3    H266503   2.402   6.627  15.328 -1.4082  1.4709 -0.5949
15030TIP3   OH266504   1.558   1.137   0.715  0.0095 -0.2382 -0.2717
15030TIP3    H166505   1.467   1.166   0.712 -0.1599 -0.6658  0.5985
15030TIP3    H266506   1.554   1.042   0.722  0.5372 -0.3182 -0.9255
15031TIP3   OH266507   0.307   2.585  15.197 -0.1240  0.0968  0.5135
15031TIP3    H166508   0.352   2.514  15.243  0.5031  0.6110  0.6957
15031TIP3    H266509   0.324   2.568  15.104 -3.3142 -2.2942  0.1758
15032TIP3   OH266510   2.837   5.963  13.186  0.0626  0.1871  0.4385
15032TIP3    H166511   2.759   6.018  13.177  1.3246  2.1661  0.8288
15032TIP3    H266512   2.910   6.020  13.162  1.4858 -1.3015  0.9812
15033TIP3   OH266513   0.784   1.502  11.729 -0.1544 -0.0095  0.3743
15033TIP3    H166514   0.839   1.474  11.656 -1.3952 -0.0154 -0.5999
15033TIP3    H266515   0.819   1.588  11.755  2.1625 -1.2759  1.7907
15034TIP3   OH266516   3.795   3.244  15.874  0.0697 -0.1934 -0.4902
15034TIP3    H166517   3.727   3.312  15.867 -0.2312 -0.3922  0.3850
15034TIP3    H266518   3.818   3.243  15.967 -0.2345 -1.5783 -0.4202
15035TIP3   OH266519   4.637   4.893  12.726  0.4475 -0.0006  0.1889
15035TIP3    H166520   4.677   4.884  12.813  1.0390 -3.4999 -0.2915
15035TIP3    H266521   4.556   4.841  12.732  0.3187  0.0079 -1.2389
15036TIP3   OH266522   3.082   1.020   0.466 -0.4205 -0.0920 -0.5482
15036TIP3    H166523   3.073   1.070   0.547 -0.4632 -1.0824  0.0732
15036TIP3    H266524   2.993   1.018   0.429 -0.4092  0.3259 -0.6032
15037TIP3   OH266525   6.214   2.590   2.794  0.1184  0.2675 -0.1370
15037TIP3    H166526   6.149   2.521   2.792  0.7438 -0.3280 -0.3711
15037TIP3    H266527   6.295   2.547   2.767  0.7171  0.8696  0.6470
15038TIP3   OH266528   0.579   2.143  15.805 -0.1262  0.1202 -0.0576
15038TIP3    H166529   0.501   2.117  15.757  0.6018 -1.4142 -0.4868
15038TIP3    H266530   0.651   2.102  15.757  1.0469  2.0399 -0.0864
15039TIP3   OH266531   3.013   4.840  14.041  0.1170 -0.1768 -0.2195
15039TIP3    H166532   2.986   4.813  13.953 -1.0407  0.5003 -0.0841
15039TIP3    H266533   3.107   4.859  14.032 -0.3061  1.4419 -1.7171
15040TIP3   OH266534   1.425   0.210  14.480  0.3470  0.9778 -0.0579
15040TIP3    H166535   1.403   0.148  14.411  1.9306  0.2974  0.0004
15040TIP3    H266536   1.472   0.280  14.435  0.2961  1.1434  0.1468
15041TIP3   OH266537   6.491   0.346  10.642 -0.0227 -0.1616  0.3808
15041TIP3    H166538   6.450   0.431  10.628  1.4753  0.5394  0.0759
15041TIP3    H266539   6.447   0.311  10.719  0.8277  1.9186  1.9243
15042TIP3   OH266540   6.142   5.760   3.493 -0.1874 -0.2320  0.6800
15042TIP3    H166541   6.103   5.844   3.469 -2.0543 -1.1615  0.2361
15042TIP3    H266542   6.149   5.763   3.589  0.7774  0.8207  0.5915
15043TIP3   OH266543   1.460   5.631  15.365 -0.0372 -0.0269 -0.4898
15043TIP3    H166544   1.535   5.643  15.307  0.3300  0.2261  0.0269
15043TIP3    H266545   1.488   5.565  15.427 -0.3741 -0.1917 -0.5109
15044TIP3   OH266546   5.141   1.279  10.734  0.0425 -0.1788 -0.1130
15044TIP3    H166547   5.055   1.259  10.695  0.0365  0.2480 -0.3177
15044TIP3    H266548   5.160   1.203  10.789 -1.9607  1.1044  2.5463
15045TIP3   OH266549   5.761   5.538   1.776 -0.0556 -0.2689  0.0286
15045TIP3    H166550   5.671   5.560   1.801 -0.6290  0.4352 -2.3772
15045TIP3    H266551   5.761   5.443   1.769 -0.2856 -0.3631  1.0814
15046TIP3   OH266552   6.683   2.889   2.212 -0.1419 -0.0390  0.4840
15046TIP3    H166553   6.706   2.840   2.133 -1.3432  1.2186 -0.7305
15046TIP3    H266554   6.766   2.903   2.257  0.7734  0.1748 -1.1647
15047TIP3   OH266555   1.861   1.547   4.218  0.4168 -0.5487  0.6621
15047TIP3    H166556   1.937   1.561   4.274 -0.3585 -2.1531  2.2268
15047TIP3    H266557   1.894   1.494   4.145  0.6258 -2.3268  1.9800
15048TIP3   OH266558   2.402   1.348   5.714 -0.2235 -0.0071  0.7854
15048TIP3    H166559   2.468   1.294   5.757  0.6053  1.7932  1.8862
15048TIP3    H266560   2.376   1.297   5.637  0.6523 -1.8443  1.6369
15049TIP3   OH266561   3.964   2.697   1.021  0.3576 -0.0082 -0.3779
15049TIP3    H166562   3.969   2.653   0.936  2.4736  0.2073 -0.4314
15049TIP3    H266563   4.019   2.774   1.011 -1.7963  1.7029  0.2951
15050TIP3   OH266564   2.948   4.500   1.293 -0.7367 -0.2691  0.4098
15050TIP3    H166565   2.932   4.415   1.253  0.5704  0.3582 -1.5660
15050TIP3    H266566   3.024   4.535   1.247 -1.5282  2.1930  0.8122
15051TIP3   OH266567   6.777   3.578  14.178 -0.3485  0.8719 -0.2908
15051TIP3    H166568   6.786   3.624  14.261  0.7842  2.2112 -1.1173
15051TIP3    H266569   6.704   3.621  14.134  1.2810  2.6191 -1.4538
15052TIP3   OH266570   0.575   5.405   1.337 -0.1700  0.1439  0.5488
15052TIP3    H166571   0.604   5.424   1.248 -0.8025 -0.2378  0.2511
15052TIP3    H266572   0.646   5.437   1.393 -0.0350  0.9527 -0.0556
15053TIP3   OH266573   6.495   4.451  15.008 -0.0521 -0.2662 -0.1281
15053TIP3    H166574   6.478   4.480  14.918  0.3494  1.2884  0.2671
15053TIP3    H266575   6.582   4.486  15.029 -0.1365 -0.6133  0.8622
15054TIP3   OH266576   5.016   4.739  14.756 -0.6285 -0.2240 -0.7356
15054TIP3    H166577   4.956   4.676  14.797  1.5338 -1.2416  1.0927
15054TIP3    H266578   5.040   4.798  14.827 -0.0904  0.6655 -1.6455
15055TIP3   OH266579   6.271   3.482   5.500  0.1472 -0.4629 -0.2921
15055TIP3    H166580   6.299   3.563   5.458 -2.9172 -0.3219 -2.3162
15055TIP3    H266581   6.261   3.505   5.593  1.0721  0.9151 -0.4985
15056TIP3   OH266582   1.101   1.304  12.584  0.8151  0.0450  0.0479
15056TIP3    H166583   1.051   1.369  12.535  0.6796  1.0399  1.4536
15056TIP3    H266584   1.036   1.262  12.640  1.2661  0.1418  0.6435
15057TIP3   OH266585   4.647   4.036  14.227  0.1185 -0.6471 -0.5511
15057TIP3    H166586   4.661   4.052  14.320 -1.4168  1.1135 -0.5679
15057TIP3    H266587   4.647   3.941  14.219 -1.1321 -0.8774  1.5102
15058TIP3   OH266588   5.010   0.443  14.658 -0.2705 -0.3134 -0.4738
15058TIP3    H166589   5.099   0.429  14.692 -0.8039 -0.3639  0.9998
15058TIP3    H266590   4.957   0.376  14.702 -0.9074 -0.8352 -1.9856
15059TIP3   OH266591   5.737   1.623  14.366 -0.7893  0.2894 -0.3057
15059TIP3    H166592   5.715   1.611  14.273 -1.3577  1.0609 -0.2720
15059TIP3    H266593   5.831   1.642  14.365 -0.6138 -0.5134 -0.6484
15060TIP3   OH266594   4.358   1.025   0.170  0.3537  0.2355 -0.2232
15060TIP3    H166595   4.358   1.115   0.137  1.3186  0.6634  0.8845
15060TIP3    H266596   4.450   0.999   0.171  0.2509 -0.1521  1.0445
15061TIP3   OH266597   5.254   3.495  15.976  0.5674 -0.1661  0.3233
15061TIP3    H166598   5.301   3.470  16.055 -0.2678 -0.7641  0.6495
15061TIP3    H266599   5.170   3.449  15.983  0.3593  0.0263 -0.7550
15062TIP3   OH266600   5.887   2.089   5.588  0.6657 -0.6025  0.4921
15062TIP3    H166601   5.895   1.998   5.558  1.3172 -0.8494  1.3990
15062TIP3    H266602   5.977   2.120   5.593  0.4294  0.2568 -0.2486
15063TIP3   OH266603   5.836   5.020   1.318 -0.2687  0.1669  0.1005
15063TIP3    H166604   5.880   4.935   1.310  2.9363  1.6593  0.2824
15063TIP3    H266605   5.781   5.026   1.241  4.0648  0.2644 -3.3680
15064TIP3   OH266606   0.709   3.725  12.418  0.2071 -0.3944  1.0727
15064TIP3    H166607   0.655   3.792  12.375  2.9231  0.8814 -0.6156
15064TIP3    H266608   0.646   3.664  12.456 -2.3827  0.9718 -0.7527
15065TIP3   OH266609   3.936   0.307  16.893 -0.0062 -0.0006  0.1070
15065TIP3    H166610   3.863   0.360  16.927  0.5225  0.8166 -0.0296
15065TIP3    H266611   3.977   0.361  16.826 -0.1160 -1.0186 -0.8054
15066TIP3   OH266612   2.583   2.113  14.325  0.6473 -0.4913  0.1399
15066TIP3    H166613   2.525   2.131  14.251  0.7744 -0.3371  0.0785
15066TIP3    H266614   2.532   2.054  14.381  0.4179 -0.3286  0.1032
15067TIP3   OH266615   6.787   2.745  16.324  0.6918 -0.1188 -0.3089
15067TIP3    H166616   6.765   2.653  16.340 -0.6762  0.1807 -0.2987
15067TIP3    H266617   6.817   2.777  16.409 -0.4732 -0.1397  0.1295
15068TIP3   OH266618   0.035   5.091  12.180  0.2260  0.0875  0.1869
15068TIP3    H166619   0.129   5.100  12.170  0.1669 -1.0069 -1.8160
15068TIP3    H266620  -0.002   5.155  12.119 -0.4681  2.5436  2.9193
15069TIP3   OH266621   5.538   6.774  10.484  0.1877  0.0571  0.5324
15069TIP3    H166622   5.560   6.783  10.577  1.6021 -0.1105  0.2393
15069TIP3    H266623   5.489   6.692  10.478 -1.5790  0.9936  1.3775
15070TIP3   OH266624   0.467   4.902  15.286  0.1873  0.2551 -0.0081
15070TIP3    H166625   0.447   4.984  15.240  0.7726  0.3613 -0.0916
15070TIP3    H266626   0.382   4.862  15.302 -0.1741  1.2780  0.7781
15071TIP3   OH266627   1.820   3.763  11.292  0.0307 -0.3395 -0.2851
15071TIP3    H166628   1.889   3.829  11.301  0.9767 -1.1561 -1.3078
15071TIP3    H266629   1.747   3.809  11.252  0.4962  0.2050 -0.5099
15072TIP3   OH266630   4.188   5.599   5.798  0.1145 -0.0494  0.2400
15072TIP3    H166631   4.145   5.608   5.713 -0.0753 -1.9834  0.0956
15072TIP3    H266632   4.117   5.613   5.861  0.6238  3.5346  0.2595
15073TIP3   OH266633   5.169   5.274   2.225 -0.2994  0.2696 -0.5086
15073TIP3    H166634   5.254   5.263   2.268 -0.5775 -0.8436 -0.1956
15073TIP3    H266635   5.179   5.230   2.141 -0.4417  0.4802 -0.6352
15074TIP3   OH266636   6.165   5.028  12.374  0.2192  0.3937  0.4732
15074TIP3    H166637   6.258   5.014  12.358 -0.2338 -0.5836 -1.6923
15074TIP3    H266638   6.154   5.123  12.368  0.8678  0.4206 -0.8411
15075TIP3   OH266639   5.599   2.196  10.352  0.1487  0.2783  0.1661
15075TIP3    H166640   5.522   2.150  10.319  0.4824 -0.2317  0.0876
15075TIP3    H266641   5.647   2.131  10.401  1.1664  0.2466 -0.8266
15076TIP3   OH266642   3.071   1.350  12.852  0.7147 -0.3713 -0.1686
15076TIP3    H166643   3.156   1.319  12.819  0.2078 -1.6931 -0.3055
15076TIP3    H266644   3.047   1.287  12.920 -0.9717 -1.1259 -1.3695
15077TIP3   OH266645   4.436   0.273  10.767  0.0424  0.6178  0.1590
15077TIP3    H166646   4.503   0.337  10.792 -1.0220  1.7477  0.2108
15077TIP3    H266647   4.394   0.311  10.690 -0.3963 -0.1705  0.0018
15078TIP3   OH266648   5.333   3.500   4.774  0.5904  0.2654 -0.0091
15078TIP3    H166649   5.256   3.555   4.789 -0.4254 -1.3127  0.7343
15078TIP3    H266650   5.389   3.553   4.717 -0.8221  1.6306 -0.1904
15079TIP3   OH266651   1.135   4.761  14.568  0.2589  0.4059 -0.2694
15079TIP3    H166652   1.087   4.833  14.609 -0.2725 -0.1296  0.0585
15079TIP3    H266653   1.109   4.684  14.618  0.6787 -0.0423 -0.7415
15080TIP3   OH266654   4.567   3.024  13.891  0.4076  0.1646  0.0206
15080TIP3    H166655   4.549   3.117  13.877  0.1540  0.0861 -0.2071
15080TIP3    H266656   4.484   2.989  13.925  0.0086 -0.2613 -1.3078
15081TIP3   OH266657   4.650   1.545  11.486 -0.3880 -0.1273 -0.0302
15081TIP3    H166658   4.704   1.600  11.543 -0.8354  0.0388  0.2316
15081TIP3    H266659   4.713   1.486  11.444 -0.0352 -0.1147  0.4778
15082TIP3   OH266660   2.618   3.724   1.772  0.6000 -0.4022 -0.0816
15082TIP3    H166661   2.700   3.732   1.724  0.3141  0.1798 -0.4856
15082TIP3    H266662   2.634   3.655   1.836  1.3888 -0.3143 -0.1773
15083TIP3   OH266663   2.839   5.779   1.446 -0.0668 -0.0507  0.3712
15083TIP3    H166664   2.889   5.700   1.426 -1.2408 -1.6945  3.3802
15083TIP3    H266665   2.877   5.811   1.528 -3.2006 -0.9072  2.3351
15084TIP3   OH266666   5.427   5.459   5.300 -0.3830  0.1469 -0.3031
15084TIP3    H166667   5.477   5.388   5.340 -0.3801 -0.0770 -0.7025
15084TIP3    H266668   5.404   5.517   5.373 -1.7513 -1.0828  0.2944
15085TIP3   OH266669   0.735   0.938   2.833 -0.9955  0.6798 -0.6662
15085TIP3    H166670   0.676   0.863   2.845  0.7373 -0.6756 -0.1607
15085TIP3    H266671   0.678   1.009   2.805 -2.9588 -0.3602  0.4816
15086TIP3   OH266672   3.279   6.471   2.634 -0.1164 -0.2914  0.4570
15086TIP3    H166673   3.194   6.436   2.659 -0.7500 -0.1206 -1.3173
15086TIP3    H266674   3.342   6.416   2.682 -1.1801 -1.0250  1.0748
15087TIP3   OH266675   4.152   6.744  12.570  0.4709  0.2518 -0.0426
15087TIP3    H166676   4.084   6.807  12.546  1.5559  1.7301  0.6127
15087TIP3    H266677   4.218   6.753  12.501  0.9705  0.3863  0.4459
15088TIP3   OH266678   1.935   0.229  10.383  0.4584  0.3750  0.5211
15088TIP3    H166679   1.990   0.307  10.389 -1.2977  1.5528  1.8795
15088TIP3    H266680   1.998   0.156  10.387  1.9543  1.6584  1.6256
15089TIP3   OH266681   3.337   4.612  16.679 -0.1232  0.0105  0.1528
15089TIP3    H166682   3.268   4.667  16.715 -0.7072 -0.3572 -0.3898
15089TIP3    H266683   3.330   4.624  16.584  0.7991  0.2560  0.1079
15090TIP3   OH266684   0.139   1.240  13.472 -0.2197 -0.3105 -0.3353
15090TIP3    H166685   0.091   1.235  13.555 -1.4031  0.4599 -0.9489
15090TIP3    H266686   0.228   1.263  13.498 -0.9596  1.7250  0.6499
15091TIP3   OH266687   5.628   2.271   1.677  0.0715  0.1952 -0.6927
15091TIP3    H166688   5.683   2.249   1.602  0.5598 -0.2420 -0.2201
15091TIP3    H266689   5.541   2.288   1.640  0.7124  1.7756 -1.5506
15092TIP3   OH266690   6.721   0.286  16.270  0.1601 -0.3908 -0.0028
15092TIP3    H166691   6.804   0.274  16.316  0.0005  1.4064  0.8109
15092TIP3    H266692   6.733   0.364  16.217 -0.4553 -1.0948 -1.2163
15093TIP3   OH266693   4.125   3.038  12.408  0.4105  0.2236  0.1084
15093TIP3    H166694   4.147   3.130  12.420 -0.4299  0.3179  1.0414
15093TIP3    H266695   4.091   3.010  12.493  0.3023 -0.8499 -0.2711
15094TIP3   OH266696   4.014   5.188  16.843  0.1932 -0.4131 -0.2065
15094TIP3    H166697   3.950   5.249  16.880  1.3607  0.7595 -0.0557
15094TIP3    H266698   3.979   5.167  16.756 -0.3225  0.3247 -0.1904
15095TIP3   OH266699   1.010   2.030   0.527  0.2617 -0.3743 -0.1947
15095TIP3    H166700   1.005   1.989   0.613  0.4286  0.8313  0.4101
15095TIP3    H266701   0.942   1.986   0.476  1.7380 -2.8042 -0.2227
15096TIP3   OH266702   6.186   2.305  11.332  0.1278  0.3933  0.1999
15096TIP3    H166703   6.140   2.367  11.275 -0.5981  0.2277  0.5972
15096TIP3    H266704   6.147   2.317  11.418 -1.1924 -1.7264 -0.0274
15097TIP3   OH266705   2.731   5.730  11.313  0.2697 -0.2852  0.3872
15097TIP3    H166706   2.753   5.823  11.320  0.4818 -0.1100 -1.8632
15097TIP3    H266707   2.644   5.723  11.350  0.4330  0.7259  0.9966
15098TIP3   OH266708   0.841   6.146  12.835  0.8134  0.4944  0.2176
15098TIP3    H166709   0.846   6.176  12.744  0.8877 -0.0584  0.0358
15098TIP3    H266710   0.860   6.224  12.887  0.5649  0.8612 -0.2362
15099TIP3   OH266711   6.008   0.472   0.702 -0.1368 -0.3950 -0.7296
15099TIP3    H166712   5.986   0.439   0.789 -0.4276  1.5378 -0.0226
15099TIP3    H266713   6.099   0.501   0.709 -0.4008  0.4738 -0.8402
15100TIP3   OH266714   6.746   5.050  10.861  0.2129 -0.1619  0.3984
15100TIP3    H166715   6.836   5.021  10.878  0.4808  0.6246  0.3371
15100TIP3    H266716   6.755   5.135  10.819 -0.5801  0.3490  1.2289
15101TIP3   OH266717   3.724   0.270  14.912  0.4830  0.3631 -0.1047
15101TIP3    H166718   3.664   0.293  14.983  0.3087 -0.5384  0.0544
15101TIP3    H266719   3.720   0.344  14.852 -1.0726  0.1734 -0.2783
15102TIP3   OH266720   4.275   4.024  15.516 -0.1068  0.5635  0.0324
15102TIP3    H166721   4.324   4.094  15.473 -0.1207  1.1244  0.8913
15102TIP3    H266722   4.185   4.056  15.518 -0.1769  0.3629  0.0938
15103TIP3   OH266723   6.736   3.466  17.019  0.5278  0.3868  1.0074
15103TIP3    H166724   6.726   3.503  16.932  1.9614 -3.2405 -0.9344
15103TIP3    H266725   6.830   3.453  17.029  0.2097 -1.6594  1.8920
15104TIP3   OH266726   3.816   3.175   0.795  0.2211 -0.0299 -0.2762
15104TIP3    H166727   3.760   3.104   0.764  0.6838 -1.0251  1.0459
15104TIP3    H266728   3.772   3.255   0.766  0.0352 -0.8387 -2.3895
15105TIP3   OH266729   2.057   4.280  14.386 -0.4175  0.1422 -0.0734
15105TIP3    H166730   1.964   4.303  14.390 -0.3094  0.5124  0.4429
15105TIP3    H266731   2.063   4.196  14.431 -0.4264  0.3779  0.3758
15106TIP3   OH266732   5.746   6.034   5.857 -0.1207  0.4866  0.2858
15106TIP3    H166733   5.742   6.025   5.952 -1.3403 -1.6359  0.0732
15106TIP3    H266734   5.656   6.048   5.830  0.1619  0.6245 -0.6164
15107TIP3   OH266735   0.296   5.350   3.571  0.1040  0.0845  0.4041
15107TIP3    H166736   0.258   5.337   3.485 -0.8540  0.5553  0.7347
15107TIP3    H266737   0.363   5.283   3.579  1.4442  1.1299 -1.4023
15108TIP3   OH266738   4.967   2.008  12.843 -0.0536 -0.1231  0.2984
15108TIP3    H166739   5.054   2.001  12.803 -1.1317 -3.1651 -1.9111
15108TIP3    H266740   4.973   1.957  12.923  0.1143 -0.7496 -0.1034
15109TIP3   OH266741   1.135   5.661   3.777  0.4448  0.2070  0.0567
15109TIP3    H166742   1.119   5.611   3.697 -0.9276  2.1577 -0.9725
15109TIP3    H266743   1.211   5.716   3.756 -0.0842  0.9185 -0.0210
15110TIP3   OH266744   3.652   0.892  14.672 -0.1434 -0.3585 -0.5927
15110TIP3    H166745   3.721   0.938  14.625 -0.7039 -0.1888 -1.2633
15110TIP3    H266746   3.638   0.812  14.622 -0.4008 -0.4128 -0.4373
15111TIP3   OH266747   4.084   0.419  12.806  0.1295  0.0411 -0.5701
15111TIP3    H166748   4.077   0.408  12.711  2.1655  1.2232 -0.9107
15111TIP3    H266749   4.040   0.502  12.823 -0.9035 -0.5311 -0.3270
15112TIP3   OH266750   3.028   4.429  15.531 -0.0208  0.4477 -0.6971
15112TIP3    H166751   3.062   4.507  15.575 -1.2388  0.2663  0.6071
15112TIP3    H266752   3.014   4.458  15.440 -1.1208  1.9731 -0.0890
15113TIP3   OH266753   6.397   5.042   5.463 -0.6135 -0.1527 -0.0238
15113TIP3    H166754   6.336   5.111   5.438 -1.2714  0.0581  1.9941
15113TIP3    H266755   6.475   5.088   5.493 -1.0979 -0.2068  1.4414
15114TIP3   OH266756   4.926   2.199  10.522  0.2456 -0.5519 -0.1460
15114TIP3    H166757   4.895   2.247  10.446  1.5783 -0.2364 -0.5119
15114TIP3    H266758   4.975   2.263  10.573 -0.9504 -0.6580  1.1916
15115TIP3   OH266759   2.374   5.149   3.367 -0.3568 -0.1878 -0.0159
15115TIP3    H166760   2.361   5.055   3.355  0.8802 -0.3352 -0.3861
15115TIP3    H266761   2.468   5.157   3.383 -0.6565  0.8508  1.3737
15116TIP3   OH266762   5.768   5.034  16.649 -0.2035 -0.0145  0.2582
15116TIP3    H166763   5.851   5.047  16.601  0.8737 -1.4639  1.6215
15116TIP3    H266764   5.706   5.008  16.581  0.9102 -0.6202 -0.5706
15117TIP3   OH266765   0.033   5.467   0.323 -0.3580  0.1217  0.4156
15117TIP3    H166766   0.037   5.559   0.297  0.8022  0.2087  0.8041
15117TIP3    H266767   0.045   5.418   0.241  1.6819  0.3744  0.5063
15118TIP3   OH266768   2.710   3.960   2.343  0.6539  0.0556 -0.9755
15118TIP3    H166769   2.641   3.975   2.278  1.2199  0.0449 -1.5874
15118TIP3    H266770   2.667   3.975   2.428 -0.3130 -0.8083 -1.3007
15119TIP3   OH266771   1.449   2.229   5.192 -0.3940  0.1480 -0.3802
15119TIP3    H166772   1.470   2.309   5.143  1.6983  0.3632  0.7622
15119TIP3    H266773   1.458   2.254   5.284 -0.8248 -1.1252  0.0304
15120TIP3   OH266774   6.123   0.173   4.004 -0.0875  0.9837  0.1786
15120TIP3    H166775   6.156   0.247   4.055 -2.7432  1.4819  1.3141
15120TIP3    H266776   6.193   0.154   3.941  1.4216  3.2566  1.0665
15121TIP3   OH266777   6.357   1.122  13.153  0.0322  0.3249 -0.0146
15121TIP3    H166778   6.325   1.087  13.236 -1.3696  0.6657 -0.3863
15121TIP3    H266779   6.391   1.046  13.106 -0.0016 -0.0144  0.5098
15122TIP3   OH266780   4.555   2.598  16.942  0.2922  0.2573  0.2178
15122TIP3    H166781   4.468   2.564  16.964  0.6654 -0.4999  0.5493
15122TIP3    H266782   4.579   2.553  16.861  1.1046 -0.8781  1.0567
15123TIP3   OH266783   2.042   3.208  15.327 -0.0484 -0.0113 -0.4539
15123TIP3    H166784   2.077   3.297  15.326 -0.3886  0.1176 -1.6203
15123TIP3    H266785   2.087   3.165  15.400  3.6537 -0.2921 -2.6649
15124TIP3   OH266786   2.771   5.629  14.468 -0.3629 -0.3482 -0.4683
15124TIP3    H166787   2.748   5.633  14.375 -0.6423 -2.8947 -0.5760
15124TIP3    H266788   2.785   5.535  14.485 -1.4358 -0.0820  2.3235
15125TIP3   OH266789   3.917   2.726  16.368  0.4079  0.1774  0.6510
15125TIP3    H166790   3.935   2.813  16.403 -0.3044  1.9774 -2.9627
15125TIP3    H266791   3.992   2.707  16.311 -0.0993 -0.9462  0.3151
15126TIP3   OH266792   3.208   2.223  10.918 -0.0616  0.0378 -0.3023
15126TIP3    H166793   3.143   2.187  10.858  1.2171 -0.5724 -1.3743
15126TIP3    H266794   3.194   2.177  11.000 -1.7190  0.7452 -0.1522
15127TIP3   OH266795   5.329   3.946   4.861  0.6838  0.0628  0.1776
15127TIP3    H166796   5.337   4.034   4.824  0.3623 -0.4054 -1.0659
15127TIP3    H266797   5.249   3.948   4.913  1.0379  0.6816  0.7110
15128TIP3   OH266798   2.264   2.438   2.081  0.5744 -0.6299  0.1084
15128TIP3    H166799   2.250   2.532   2.082 -2.2010 -0.9009 -1.4446
15128TIP3    H266800   2.231   2.407   2.165 -2.6481 -0.5272 -0.9765
15129TIP3   OH266801   4.949   1.204  16.374  0.4636  0.5462  0.2820
15129TIP3    H166802   4.896   1.276  16.338  0.8642  0.9676  0.5219
15129TIP3    H266803   5.004   1.246  16.440  2.0902  0.3615 -0.9219
15130TIP3   OH266804   2.829   4.296   1.102 -0.2812 -0.5558 -0.3002
15130TIP3    H166805   2.841   4.363   1.034  0.3351 -0.2581  0.0900
15130TIP3    H266806   2.815   4.215   1.053 -0.4529 -0.2433 -0.7807
15131TIP3   OH266807   3.203   2.974  16.817  0.2262 -0.4290 -0.4985
15131TIP3    H166808   3.151   3.048  16.848 -0.5710 -0.8397 -0.8064
15131TIP3    H266809   3.281   3.013  16.779  0.4655  0.1688  0.5698
15132TIP3   OH266810   2.966   3.080   4.226  0.4855 -0.1437  0.3226
15132TIP3    H166811   3.007   3.158   4.264 -2.5106  0.8332  1.8655
15132TIP3    H266812   2.936   3.108   4.140  1.4879 -0.3467 -0.1023
15133TIP3   OH266813   0.898   0.168  16.148  0.0013  0.1349  0.3137
15133TIP3    H166814   0.831   0.119  16.100 -0.8140  2.2179 -0.8456
15133TIP3    H266815   0.857   0.253  16.165  0.8203  0.0035  3.4921
15134TIP3   OH266816   1.956   5.421  13.343  0.0004  0.1607 -0.4826
15134TIP3    H166817   1.881   5.406  13.286  1.0693  2.0214 -2.5261
15134TIP3    H266818   2.021   5.464  13.287  2.4673 -0.9906  1.2808
15135TIP3   OH266819   6.530   4.239  16.900 -0.1755 -0.7612 -0.3544
15135TIP3    H166820   6.561   4.329  16.908  0.4748 -1.0676  0.7407
15135TIP3    H266821   6.540   4.219  16.806 -1.1614  0.5757 -0.7731
15136TIP3   OH266822   4.107   2.575   5.522 -0.0103  0.0473  0.1623
15136TIP3    H166823   4.017   2.553   5.545 -0.5235  1.7679 -0.1076
15136TIP3    H266824   4.155   2.567   5.604 -0.7265  0.6637  0.6524
15137TIP3   OH266825   5.507   1.939  11.334  0.6283 -0.9918  0.2237
15137TIP3    H166826   5.460   1.957  11.415  1.4956 -0.9538  0.7275
15137TIP3    H266827   5.575   1.876  11.359  3.1950  1.6474  0.3275
15138TIP3   OH266828   0.797   4.972  17.000  0.2366  0.4926  0.1075
15138TIP3    H166829   0.800   4.901  17.064  0.8203  2.6938  2.7246
15138TIP3    H266830   0.720   5.024  17.024 -0.3881  0.5990 -1.9527
15139TIP3   OH266831   1.525   0.109   2.554 -0.6175 -0.6618  0.5179
15139TIP3    H166832   1.447   0.163   2.562  1.1977  2.2669  0.1576
15139TIP3    H266833   1.515   0.063   2.470 -1.5027  0.4439  0.0052
15140TIP3   OH266834   4.044   3.313  17.069 -0.1381 -0.2353  0.6478
15140TIP3    H166835   3.991   3.332  16.992  2.5331  0.2681 -1.2246
15140TIP3    H266836   4.074   3.399  17.099  1.4001 -0.5883  0.2334
15141TIP3   OH266837   3.632   6.789  14.608  0.0933 -0.2209  0.1366
15141TIP3    H166838   3.699   6.850  14.578  1.6040 -0.9515  1.7830
15141TIP3    H266839   3.639   6.792  14.704 -0.9561 -1.6979  0.2917
15142TIP3   OH266840   2.941   5.968   4.790 -0.2168  0.2102 -0.5398
15142TIP3    H166841   2.852   5.975   4.754 -0.3016  2.8746 -0.0316
15142TIP3    H266842   2.928   5.954   4.883 -0.0402 -1.5582 -0.7528
15143TIP3   OH266843   1.491   1.431  15.351 -0.0921 -0.4365  0.3619
15143TIP3    H166844   1.556   1.493  15.316  0.4390 -0.2416  1.6468
15143TIP3    H266845   1.536   1.347  15.353 -0.5756 -0.7383 -0.6870
15144TIP3   OH266846   2.558   4.401   1.713 -0.1626  0.7285 -0.3934
15144TIP3    H166847   2.593   4.334   1.653 -1.2489  0.9448 -1.2978
15144TIP3    H266848   2.625   4.409   1.781  0.6313 -0.2723 -1.0216
15145TIP3   OH266849   3.457   0.505   1.825  0.3302 -0.4730 -0.0716
15145TIP3    H166850   3.418   0.574   1.770  1.7188 -0.0388 -0.5716
15145TIP3    H266851   3.462   0.429   1.767 -1.0972 -0.9807  0.4455
15146TIP3   OH266852   0.681   4.685   3.825 -0.0510 -0.4376 -0.4171
15146TIP3    H166853   0.767   4.698   3.783  0.4316  0.0691  0.6780
15146TIP3    H266854   0.677   4.591   3.843 -0.0343 -0.5749 -1.1061
15147TIP3   OH266855   1.269   0.849  16.507  0.1163  0.2107  0.4217
15147TIP3    H166856   1.283   0.790  16.433 -0.2520  1.6969 -0.8997
15147TIP3    H266857   1.285   0.936  16.471 -2.2436  1.1827  1.4843
15148TIP3   OH266858   5.947   1.071  13.151  0.1839 -0.2050 -0.0615
15148TIP3    H166859   5.999   0.991  13.144 -0.4715 -0.6514  0.0779
15148TIP3    H266860   5.957   1.099  13.242 -0.7660 -0.9575  0.2903
15149TIP3   OH266861   1.854   3.398   0.620  0.0256  0.0185  0.1297
15149TIP3    H166862   1.775   3.452   0.623 -0.8812 -1.1540 -1.2785
15149TIP3    H266863   1.847   3.350   0.538  3.4541  1.6797 -1.3287
15150TIP3   OH266864   6.190   5.622  15.187  0.3262 -0.5513  0.0116
15150TIP3    H166865   6.168   5.663  15.104  2.2740  0.8412  0.1030
15150TIP3    H266866   6.112   5.632  15.241 -0.9062 -1.3451 -1.5692
15151TIP3   OH266867   1.136   1.081   2.614 -0.2568  0.2964 -0.1874
15151TIP3    H166868   1.228   1.071   2.589  0.2539 -1.9283  2.2143
15151TIP3    H266869   1.135   1.160   2.668  1.0433 -1.4233  2.5876
15152TIP3   OH266870   6.164   3.489  13.674 -0.0747 -0.0701  0.1956
15152TIP3    H166871   6.148   3.456  13.763 -0.4626  0.9402  0.5149
15152TIP3    H266872   6.248   3.450  13.649 -0.8119 -1.8145  0.2810
15153TIP3   OH266873   2.997   5.978   5.452 -0.7578  0.1876 -0.4470
15153TIP3    H166874   3.025   5.994   5.543  4.0090 -0.3023 -1.5587
15153TIP3    H266875   2.976   6.066   5.419 -0.7313  0.6239  0.6309
15154TIP3   OH266876   4.351   2.700  10.825  0.6752  0.0745  0.0332
15154TIP3    H166877   4.277   2.760  10.820 -1.4803 -2.1611  2.5791
15154TIP3    H266878   4.419   2.743  10.772 -2.4856  2.0158 -2.9077
15155TIP3   OH266879   2.311   5.620   5.965 -0.0949  0.0296 -0.2169
15155TIP3    H166880   2.284   5.528   5.955  2.1537 -0.7146 -0.0682
15155TIP3    H266881   2.319   5.632   6.059  0.1433  0.1952 -0.2575
15156TIP3   OH266882   5.264   5.826   1.613 -0.9606 -0.6024 -0.4638
15156TIP3    H166883   5.223   5.913   1.615  0.0219 -0.1085 -1.0660
15156TIP3    H266884   5.205   5.771   1.665 -1.2356  0.5878  0.5492
15157TIP3   OH266885   0.827   1.669   4.668  0.2460  0.2046  0.7988
15157TIP3    H166886   0.917   1.637   4.680  0.0451 -1.0373 -0.7022
15157TIP3    H266887   0.828   1.757   4.705  2.7879  1.2176 -1.3861
15158TIP3   OH266888   2.432   1.026   0.827  0.2240  0.1357 -0.0739
15158TIP3    H166889   2.486   1.086   0.776  1.1837  0.6097  1.4328
15158TIP3    H266890   2.485   1.005   0.903 -0.9637 -0.9362  0.4967
15159TIP3   OH266891   0.944   0.801   3.513  0.1401 -0.0934  0.0249
15159TIP3    H166892   0.923   0.876   3.569  0.8096 -0.1580  0.3655
15159TIP3    H266893   0.865   0.789   3.459 -0.8171 -0.4881  1.4533
15160TIP3   OH266894   0.379   3.815  16.248  0.0800  0.2179  0.1332
15160TIP3    H166895   0.470   3.788  16.246  0.2219  0.7037 -0.1000
15160TIP3    H266896   0.329   3.733  16.250  0.4638 -0.0728 -1.4146
15161TIP3   OH266897   4.451   0.164  11.490  0.7259  0.7101 -0.6129
15161TIP3    H166898   4.378   0.153  11.429  1.2007 -0.8236 -0.9386
15161TIP3    H266899   4.445   0.255  11.518 -2.3427  0.1815  0.7317
15162TIP3   OH266900   3.543   5.378  12.809  0.1974 -0.1024  0.1417
15162TIP3    H166901   3.579   5.298  12.772  1.7112  0.0214  1.2618
15162TIP3    H266902   3.612   5.411  12.867 -1.7994 -0.0060  2.6383
15163TIP3   OH266903   2.035   3.617   5.628  0.0730  0.5808  1.1011
15163TIP3    H166904   1.987   3.684   5.677  1.3443  2.0643  0.4128
15163TIP3    H266905   2.120   3.611   5.672  0.0680 -0.4147  0.9945
15164TIP3   OH266906   0.888   6.479   4.192 -0.1778  0.3357  0.2323
15164TIP3    H166907   0.976   6.463   4.159 -0.3621  0.7773 -0.5038
15164TIP3    H266908   0.834   6.410   4.153  0.0933 -0.9078  1.9388
15165TIP3   OH266909   0.866   6.667   5.360  0.2932  0.3517  0.3191
15165TIP3    H166910   0.897   6.755   5.381 -0.9996  0.7019  0.8242
15165TIP3    H266911   0.827   6.634   5.441  1.2921 -0.9546  0.3226
15166TIP3   OH266912   0.904   1.631  15.938  0.0285  0.1389 -0.2543
15166TIP3    H166913   0.941   1.709  15.979  3.1282  0.1797 -2.7645
15166TIP3    H266914   0.850   1.665  15.866  0.3261 -0.0056 -0.5481
15167TIP3   OH266915   6.394   2.288  14.125 -0.6194  0.3851 -0.2873
15167TIP3    H166916   6.314   2.267  14.077  0.3186  0.1817 -1.8155
15167TIP3    H266917   6.410   2.380  14.108 -0.7900  0.5664  0.4624
15168TIP3   OH266918   4.113   5.952  16.343  0.2616  0.0768  0.6582
15168TIP3    H166919   4.103   6.036  16.298 -0.3722  0.0320  0.7121
15168TIP3    H266920   4.106   5.886  16.274 -1.2145 -0.0155  0.8686
15169TIP3   OH266921   5.797   6.210  12.658  0.5131 -0.2356 -0.0857
15169TIP3    H166922   5.880   6.229  12.701  1.1890 -0.5730 -1.1865
15169TIP3    H266923   5.822   6.170  12.575 -0.7739 -1.3745  0.0361
15170TIP3   OH266924   4.950   5.244   2.959 -0.7350  0.1769 -0.7248
15170TIP3    H166925   5.007   5.290   3.021  0.8554  0.6880 -2.4954
15170TIP3    H266926   4.951   5.153   2.989  1.9972 -0.0859 -1.2983
15171TIP3   OH266927   5.181   0.057   3.198  1.0938 -0.5224 -0.1859
15171TIP3    H166928   5.164   0.095   3.284 -0.0450 -0.7744 -0.2923
15171TIP3    H266929   5.137   0.116   3.136  1.1771 -0.8167 -0.5317
15172TIP3   OH266930   3.198   3.402   1.536 -0.4419  0.4946 -0.6429
15172TIP3    H166931   3.129   3.336   1.526  1.6182 -2.0683  0.7751
15172TIP3    H266932   3.262   3.381   1.469  0.5712  0.6088  0.2670
15173TIP3   OH266933   0.623   1.433  16.941  0.0653 -0.2076  0.1512
15173TIP3    H166934   0.535   1.432  16.903  0.0038  0.3536  0.2726
15173TIP3    H266935   0.681   1.420  16.866 -0.1405 -1.1076  0.1391
15174TIP3   OH266936   5.493   3.849   0.368 -0.0529  0.3422 -0.2900
15174TIP3    H166937   5.459   3.779   0.313 -1.8387  0.3870  0.6942
15174TIP3    H266938   5.588   3.834   0.370 -0.1793 -0.8510 -1.6924
15175TIP3   OH266939   5.798   2.655   2.883  0.3371 -0.1131  0.3868
15175TIP3    H166940   5.865   2.698   2.936 -1.1271  2.4909  0.2969
15175TIP3    H266941   5.829   2.665   2.793  0.0709  0.6713  0.3776
15176TIP3   OH266942   1.586   1.508  12.066  0.5912  0.2403  0.0254
15176TIP3    H166943   1.555   1.469  11.984  0.6863 -1.3549  0.7095
15176TIP3    H266944   1.674   1.540  12.045  0.8815 -0.7510 -0.3597
15177TIP3   OH266945   6.169   2.968  15.814  0.5035  0.5114  0.6363
15177TIP3    H166946   6.180   3.053  15.856 -0.2242  0.5965  0.6556
15177TIP3    H266947   6.083   2.972  15.773  1.1876  0.4241 -0.8546
15178TIP3   OH266948   3.483   6.781  15.337  0.8453 -0.0031 -0.1218
15178TIP3    H166949   3.432   6.855  15.371 -2.7994 -1.9123 -1.0069
15178TIP3    H266950   3.535   6.752  15.413  0.3273  1.7444  0.9838
15179TIP3   OH266951   2.424   0.426   4.901 -0.8868  0.1818  0.2523
15179TIP3    H166952   2.503   0.383   4.869 -0.3756  1.5496 -0.4262
15179TIP3    H266953   2.370   0.355   4.935  1.0639 -0.7063  1.7337
15180TIP3   OH266954   0.467   1.722  11.146  0.0659 -0.4737 -1.2505
15180TIP3    H166955   0.478   1.816  11.158 -0.8440 -0.4484 -0.4744
15180TIP3    H266956   0.496   1.684  11.229  0.2050 -0.8601 -1.4729
15181TIP3   OH266957   0.764   1.867  15.839  0.4320  0.1682  0.1573
15181TIP3    H166958   0.689   1.897  15.788  0.5546  0.9598  0.4251
15181TIP3    H266959   0.832   1.849  15.773  0.4265  0.7046  0.0013
15182TIP3   OH266960   2.070   4.602  16.568 -0.2389  0.0474 -0.5202
15182TIP3    H166961   2.109   4.643  16.645  0.3416 -0.7226 -0.4010
15182TIP3    H266962   2.141   4.553  16.528 -0.7220 -0.1605 -1.1400
15183TIP3   OH266963   4.933   4.048  11.217  0.6898 -0.2085  0.0101
15183TIP3    H166964   4.900   4.129  11.180 -1.1019 -0.2539  1.3518
15183TIP3    H266965   4.968   4.073  11.303 -1.3330 -1.0245  1.1319
15184TIP3   OH266966   5.677   6.290   4.446  0.2456  0.2069  0.6355
15184TIP3    H166967   5.598   6.291   4.500  1.0156  0.9178  1.7903
15184TIP3    H266968   5.734   6.355   4.486  1.9016 -1.1320  0.5497
15185TIP3   OH266969   1.503   4.807  14.031  0.0646  0.3678 -0.0434
15185TIP3    H166970   1.543   4.738  13.977  0.4543 -0.7012  1.5376
15185TIP3    H266971   1.547   4.887  14.003  2.1838 -0.5448  0.4912
15186TIP3   OH266972   3.431   6.352  16.492  0.2843  0.1834  0.5381
15186TIP3    H166973   3.435   6.429  16.436  0.0377 -0.9451 -1.1013
15186TIP3    H266974   3.417   6.387  16.580 -1.8506  1.9651 -0.3983
15187TIP3   OH266975   5.973   0.506   1.604 -0.1872  0.6872  0.1631
15187TIP3    H166976   5.939   0.590   1.634  0.8159  1.3842 -0.6073
15187TIP3    H266977   5.895   0.456   1.577 -0.8867  0.9392  1.6304
15188TIP3   OH266978   1.945   1.466   0.085 -0.2356 -0.5060  0.4650
15188TIP3    H166979   1.951   1.536   0.020 -0.0497 -1.1425 -0.2182
15188TIP3    H266980   2.028   1.470   0.132  0.6278 -1.5329 -0.9087
15189TIP3   OH266981   6.109   0.993   4.712  0.0118 -0.1810 -0.0347
15189TIP3    H166982   6.161   0.922   4.748 -0.6407 -1.6745 -1.8920
15189TIP3    H266983   6.135   0.998   4.620 -0.7035  1.3220 -0.1886
15190TIP3   OH266984   4.818   4.741  16.238 -0.0650 -0.1271  0.1594
15190TIP3    H166985   4.760   4.669  16.214 -1.4824  0.8218  0.5887
15190TIP3    H266986   4.777   4.780  16.316  0.0983  1.7331 -0.6315
15191TIP3   OH266987   5.854   1.633   0.039 -0.1729 -0.4609 -0.1013
15191TIP3    H166988   5.797   1.679   0.100 -1.3299 -1.8312 -0.0976
15191TIP3    H266989   5.848   1.683  -0.043  0.6817  0.8643  0.6147
15192TIP3   OH266990   2.594   0.623  13.919 -0.4541  0.0695  0.7202
15192TIP3    H166991   2.648   0.570  13.977 -0.9105 -0.5662  0.5803
15192TIP3    H266992   2.583   0.568  13.841 -1.6905 -0.0167  0.9395
15193TIP3   OH266993   5.648   0.232   5.038  0.4006  1.1216  0.3680
15193TIP3    H166994   5.569   0.194   5.000  0.7054  0.0441  0.7889
15193TIP3    H266995   5.704   0.253   4.963  0.5509  0.0047  0.1584
15194TIP3   OH266996   0.647   6.794   1.077  0.0151 -0.2586  0.0585
15194TIP3    H166997   0.630   6.887   1.091  0.9251  0.0400 -0.7247
15194TIP3    H266998   0.673   6.788   0.985  2.8442 -0.8410  0.8259
15195TIP3   OH266999   6.301   2.097  11.188 -0.2157  0.1664  0.6429
15195TIP3    H167000   6.285   2.033  11.257  3.4568  0.4476  1.9785
15195TIP3    H267001   6.283   2.181  11.229 -0.8270  0.2215  0.2768
15196TIP3   OH267002   4.284   6.276   4.637 -0.3117 -0.4891 -0.7755
15196TIP3    H167003   4.328   6.214   4.578  1.0225 -1.3714  1.0147
15196TIP3    H267004   4.200   6.234   4.657  0.1247 -1.2171 -0.4237
15197TIP3   OH267005   0.977   0.916  15.674 -0.6728  0.5202  0.3030
15197TIP3    H167006   1.062   0.872  15.663 -0.5868  0.7463  0.0597
15197TIP3    H267007   0.990   0.972  15.751 -0.3383  1.1714 -0.2140
15198TIP3   OH267008   2.428   2.310   0.573 -0.2376 -0.2156 -0.2988
15198TIP3    H167009   2.438   2.272   0.485  1.8219 -0.0348 -0.1999
15198TIP3    H267010   2.337   2.294   0.596 -1.0666  0.4494 -2.7911
15199TIP3   OH267011   4.228   6.097   3.234 -0.5105  0.9041  0.2099
15199TIP3    H167012   4.319   6.119   3.216 -0.3591  0.5320  0.5011
15199TIP3    H267013   4.178   6.141   3.165  0.0428 -0.4435 -1.1111
15200TIP3   OH267014   2.097   0.310   4.629 -0.1262 -0.5063  0.0674
15200TIP3    H167015   2.167   0.375   4.629 -1.0047  0.4928 -0.8900
15200TIP3    H267016   2.133   0.235   4.676  1.1288  0.4475  0.6853
15201TIP3   OH267017   5.867   1.147  13.686 -0.0738  0.2390 -0.2906
15201TIP3    H167018   5.845   1.225  13.635  0.1265  1.4644  1.4109
15201TIP3    H267019   5.963   1.144  13.685 -0.0779  0.0811 -0.2572
15202TIP3   OH267020   4.249   2.664  13.070  0.3755  0.5171  0.0131
15202TIP3    H167021   4.208   2.741  13.109  0.8374  0.5358  0.4765
15202TIP3    H267022   4.207   2.590  13.113  1.0780  0.5426  0.7550
15203TIP3   OH267023   6.052   6.799   1.296  0.2043  0.3093  0.4440
15203TIP3    H167024   6.016   6.881   1.262  0.4966 -0.0819 -0.8935
15203TIP3    H267025   6.109   6.767   1.226  1.9113  0.1090  1.8461
15204TIP3   OH267026   0.673   6.756   6.255 -0.1430  0.4832  0.5168
15204TIP3    H167027   0.676   6.738   6.349  1.7627 -1.6161  0.1516
15204TIP3    H267028   0.696   6.848   6.247  0.2144  0.5588  2.0845
15205TIP3   OH267029   0.402   2.492   2.224 -0.1513  0.2494 -0.2131
15205TIP3    H167030   0.482   2.538   2.249 -0.8996  1.6145 -0.2234
15205TIP3    H267031   0.347   2.559   2.184 -1.1476 -0.7470 -0.5746
15206TIP3   OH267032   0.309   3.720  12.203  0.3834  0.1069 -0.2577
15206TIP3    H167033   0.336   3.686  12.288  0.2744 -0.7638 -0.5707
15206TIP3    H267034   0.265   3.803  12.223  2.1845  0.9598  0.3655
15207TIP3   OH267035   3.516   0.440  13.194  0.1596  0.4627 -0.0912
15207TIP3    H167036   3.483   0.366  13.145 -1.3822  0.3947  0.9653
15207TIP3    H267037   3.556   0.402  13.272  2.3767  0.5791 -1.1141
15208TIP3   OH267038   4.617   2.093   4.744  0.2035  0.1549 -0.1404
15208TIP3    H167039   4.684   2.159   4.758  1.7070 -1.1867 -0.7823
15208TIP3    H267040   4.591   2.104   4.652 -1.6863  1.7052  0.4933
15209TIP3   OH267041   6.398   0.102   1.617  0.0400  0.1275 -0.4980
15209TIP3    H167042   6.305   0.109   1.638 -0.2568  0.6805 -1.8491
15209TIP3    H267043   6.400   0.091   1.522  1.3449 -0.3123 -0.4428
15210TIP3   OH267044   0.955   2.571   3.442 -0.1219  0.2016  0.6159
15210TIP3    H167045   0.895   2.646   3.436  1.5654  1.5337 -0.8309
15210TIP3    H267046   0.898   2.495   3.454 -2.1251  1.3678 -0.8714
15211TIP3   OH267047   1.895   0.143  13.694  0.3394 -0.2603  0.6844
15211TIP3    H167048   1.910   0.108  13.606  0.5403  1.3668  0.0336
15211TIP3    H267049   1.803   0.121  13.712  0.0140  0.1749 -0.3333
15212TIP3   OH267050   6.162   1.642  12.167  0.5663 -0.1231 -0.0739
15212TIP3    H167051   6.226   1.709  12.191  0.8610 -1.4404  3.3434
15212TIP3    H267052   6.214   1.563  12.155 -0.2433 -1.2324  2.8523
15213TIP3   OH267053   6.608   2.302  15.172 -0.3351 -0.2009  0.1501
15213TIP3    H167054   6.545   2.344  15.230 -0.4863 -0.2267  0.0034
15213TIP3    H267055   6.676   2.368  15.158  0.0548 -0.4335  0.9125
15214TIP3   OH267056   1.409   5.231  12.309 -0.1350  0.6264  0.2871
15214TIP3    H167057   1.366   5.173  12.247 -0.6531  0.6703  0.6040
15214TIP3    H267058   1.433   5.308  12.257 -0.6231  0.6902  0.1530
15215TIP3   OH267059   4.240   3.110   1.775  0.5659  0.0286 -0.3787
15215TIP3    H167060   4.300   3.170   1.732  1.7332 -0.1457  0.9537
15215TIP3    H267061   4.257   3.025   1.734  1.1258  0.0090 -0.1099
15216TIP3   OH267062   1.571   5.887   0.090  0.0295  0.5384  0.2729
15216TIP3    H167063   1.482   5.877   0.123 -0.8256 -0.7516 -2.2482
15216TIP3    H267064   1.561   5.935   0.008  1.9652  2.5240  1.0797
15217TIP3   OH267065   5.462   6.714  16.327 -0.0908 -0.7062  0.6050
15217TIP3    H167066   5.373   6.714  16.364 -1.1099 -1.4367 -1.6560
15217TIP3    H267067   5.518   6.740  16.399 -1.9359 -1.9790  2.6146
15218TIP3   OH267068   2.141   1.246   1.034 -0.0643 -0.4914  0.0973
15218TIP3    H167069   2.236   1.252   1.031  0.0896 -2.3952 -0.1286
15218TIP3    H267070   2.118   1.276   1.122  0.6103  1.1148 -0.2460
15219TIP3   OH267071   2.380   2.489  17.149 -0.0629  0.4336  0.6986
15219TIP3    H167072   2.291   2.454  17.149  0.1559 -0.1677 -0.0810
15219TIP3    H267073   2.422   2.452  17.226 -0.0454 -0.4973  0.2539
15220TIP3   OH267074   5.231   2.939   2.425  0.5976 -0.2682  0.1840
15220TIP3    H167075   5.253   2.922   2.516  0.1794  0.8273  0.5041
15220TIP3    H267076   5.313   2.926   2.378  1.4566  1.5183  1.0600
15221TIP3   OH267077   3.348   3.506   1.090  0.3664 -0.3774 -0.2857
15221TIP3    H167078   3.270   3.510   1.035 -0.3521  0.8071  0.7707
15221TIP3    H267079   3.362   3.597   1.118  1.6004 -0.7187  0.2748
15222TIP3   OH267080   4.782   4.714   2.237  0.2352 -0.2342 -0.2639
15222TIP3    H167081   4.759   4.622   2.233  0.2141 -0.2272 -0.3061
15222TIP3    H267082   4.834   4.723   2.316 -1.0620  0.0154  0.5916
15223TIP3   OH267083   2.567   5.300  14.085 -0.4451 -0.2562 -0.2357
15223TIP3    H167084   2.592   5.333  13.999 -0.5485  1.1027  0.2375
15223TIP3    H267085   2.515   5.222  14.066 -1.9307  0.9693 -1.5011
15224TIP3   OH267086   6.600   4.125  12.881 -0.0538  0.2345  0.1170
15224TIP3    H167087   6.537   4.119  12.953 -0.0180 -1.5694  0.0439
15224TIP3    H267088   6.685   4.136  12.925  0.1773 -2.4259  0.5138
15225TIP3   OH267089   1.298   1.806  14.215 -0.2619  0.0222 -0.0579
15225TIP3    H167090   1.341   1.724  14.191 -0.1334  0.2215 -0.5269
15225TIP3    H267091   1.266   1.841  14.132  0.0971  0.6842  0.0756
15226TIP3   OH267092   1.072   2.860   1.905 -0.3674  0.1826  0.0086
15226TIP3    H167093   1.136   2.796   1.934 -1.6484 -1.8403 -1.2973
15226TIP3    H267094   1.104   2.944   1.937  1.5070 -1.0749  1.6255
15227TIP3   OH267095   3.022   3.051   5.282  0.0349  0.8144 -0.2141
15227TIP3    H167096   2.965   3.125   5.261 -0.0604  1.4813  2.1808
15227TIP3    H267097   3.109   3.081   5.255  0.1550  2.2429  1.5821
15228TIP3   OH267098   5.916   6.413  13.967  0.0408  0.2331  0.5179
15228TIP3    H167099   5.904   6.500  14.005 -0.2657 -0.0603  1.1158
15228TIP3    H267100   5.962   6.364  14.035 -0.8612 -0.4144  0.6891
15229TIP3   OH267101   4.262   6.476  13.317 -0.0661  0.5889  0.2952
15229TIP3    H167102   4.327   6.428  13.369  0.2073  0.8207  0.1654
15229TIP3    H267103   4.313   6.535  13.262 -0.2089 -0.9537 -1.6252
15230TIP3   OH267104   6.506   2.230  12.143 -0.8102 -0.0474  0.3114
15230TIP3    H167105   6.440   2.171  12.180  0.4736 -1.1035  0.9874
15230TIP3    H267106   6.559   2.256  12.218 -0.0322  0.2406 -0.3303
15231TIP3   OH267107   1.562   4.228   3.839  0.0128  0.3435  0.5223
15231TIP3    H167108   1.603   4.180   3.767 -1.0955  0.8713 -0.5264
15231TIP3    H267109   1.628   4.232   3.907  1.2597  0.1501 -0.6318
15232TIP3   OH267110   4.592   2.260  13.731 -0.5845 -0.0157  0.6956
15232TIP3    H167111   4.667   2.219  13.775  0.5116 -0.5976 -1.5422
15232TIP3    H267112   4.539   2.186  13.701 -0.2270  0.2453 -0.6715
15233TIP3   OH267113   5.929   1.101  16.285 -0.1034 -0.2306 -0.2622
15233TIP3    H167114   5.933   1.089  16.190  0.2794 -4.1586  0.0688
15233TIP3    H267115   5.932   1.012  16.320  0.7997  1.1034  3.4963
15234TIP3   OH267116   3.535   5.472  15.575 -0.3923 -0.5180 -0.0166
15234TIP3    H167117   3.468   5.483  15.642 -1.9285  2.1002 -1.7897
15234TIP3    H267118   3.595   5.545  15.588 -1.3293  0.7021 -2.0306
15235TIP3   OH267119   2.005   2.535  12.384  0.0430  0.0644 -0.2092
15235TIP3    H167120   2.085   2.571  12.422 -0.4086 -0.3128  1.1431
15235TIP3    H267121   2.036   2.477  12.314  1.0035 -0.7112  0.8351
15236TIP3   OH267122   0.111   2.792  15.863  0.3338 -0.1468  0.5911
15236TIP3    H167123   0.105   2.707  15.821 -1.1703 -0.3910  1.2659
15236TIP3    H267124   0.064   2.782  15.946  0.1733  1.3180  0.7019
15237TIP3   OH267125   1.370   6.683  14.396  0.2120 -0.6104 -0.3028
15237TIP3    H167126   1.439   6.714  14.338 -0.8087  2.1787 -0.1849
15237TIP3    H267127   1.289   6.694  14.346 -0.4116 -1.0731  0.5677
15238TIP3   OH267128   4.695   6.703   5.468 -0.3416 -0.3752  0.3043
15238TIP3    H167129   4.722   6.712   5.559  1.5729 -0.5646 -0.2032
15238TIP3    H267130   4.640   6.781   5.451 -1.1058 -0.5782  1.7113
15239TIP3   OH267131   1.585   4.230  12.496  0.0645  0.0476  0.0902
15239TIP3    H167132   1.633   4.223  12.578 -0.6088  0.4557  0.5241
15239TIP3    H267133   1.648   4.267  12.434  0.0279  1.5049  0.9027
15240TIP3   OH267134   5.285   3.026  12.677  0.5089 -0.4912 -0.2698
15240TIP3    H167135   5.350   3.076  12.627 -0.2791 -0.5625 -1.4053
15240TIP3    H267136   5.302   2.935  12.654 -0.5389 -0.4500 -1.2737
15241TIP3   OH267137   3.916   4.188  16.632 -0.3874  0.0190 -0.2052
15241TIP3    H167138   3.955   4.117  16.683  0.6850 -0.5377 -1.7440
15241TIP3    H267139   3.822   4.169  16.631 -0.0641 -1.7192 -1.0644
15242TIP3   OH267140   5.842   3.752   2.370 -0.0303  0.5643 -0.1813
15242TIP3    H167141   5.913   3.809   2.342 -0.0753  0.3101 -0.8322
15242TIP3    H267142   5.822   3.698   2.293 -0.2978 -0.0090  0.2779
15243TIP3   OH267143   0.186   0.753  13.518 -0.2811 -0.0885  0.4322
15243TIP3    H167144   0.112   0.692  13.524 -1.8023  1.7071  0.5196
15243TIP3    H267145   0.150   0.830  13.475  1.5984  0.7862  0.3582
15244TIP3   OH267146   0.852   3.725  17.105  0.0431  0.4031 -0.1902
15244TIP3    H167147   0.786   3.725  17.175 -0.7876 -0.0952 -0.9604
15244TIP3    H267148   0.824   3.794  17.045  1.5423  1.8271  0.6596
15245TIP3   OH267149   0.704   5.828   3.836  0.9724 -0.2327  0.3626
15245TIP3    H167150   0.628   5.879   3.805  2.4533  0.7012 -1.9412
15245TIP3    H267151   0.744   5.885   3.902  1.6341  0.8752 -0.9557
15246TIP3   OH267152   1.487   6.363   1.172  0.0272  0.1173 -0.2911
15246TIP3    H167153   1.539   6.444   1.176 -1.0770  0.8753 -0.8609
15246TIP3    H267154   1.468   6.344   1.264  1.7225 -0.4801 -0.0206
15247TIP3   OH267155   6.326   5.075   0.183 -0.9321  0.1669 -0.4874
15247TIP3    H167156   6.397   5.011   0.184  0.0039  1.0999 -2.4593
15247TIP3    H267157   6.256   5.032   0.135 -0.8580  0.0700 -0.5105
15248TIP3   OH267158   6.610   4.753   3.426  0.2742  0.0480  0.0698
15248TIP3    H167159   6.531   4.716   3.465  0.5006  1.9899  2.6827
15248TIP3    H267160   6.646   4.809   3.495  3.2940  0.1694 -1.4514
15249TIP3   OH267161   3.088   5.921   5.949 -0.0652 -0.0971  0.4795
15249TIP3    H167162   3.157   5.953   6.008 -0.9545  0.1962  1.4017
15249TIP3    H267163   3.007   5.937   5.997 -0.9240  1.1144 -1.2576
15250TIP3   OH267164   4.137   2.200  13.591 -0.1910  0.5674  0.2816
15250TIP3    H167165   4.223   2.161  13.606  0.6165  2.2996  0.5191
15250TIP3    H267166   4.094   2.195  13.676  0.8799  2.3330  0.9872
15251TIP3   OH267167   1.705   4.587  11.000 -0.3498 -0.1877  0.2512
15251TIP3    H167168   1.764   4.523  11.038 -0.8795 -0.1450  1.1693
15251TIP3    H267169   1.759   4.665  10.986 -0.3730  0.1561  1.9169
15252TIP3   OH267170   3.997   6.339   1.738  0.1732 -0.3411  0.6703
15252TIP3    H167171   3.910   6.306   1.714  0.3685  0.4264 -1.3016
15252TIP3    H267172   3.981   6.424   1.776  0.0418 -0.1969  0.3007
15253TIP3   OH267173   1.941   6.213  12.352  0.1701  0.5086 -0.1344
15253TIP3    H167174   1.870   6.276  12.361 -0.6470 -0.1786 -1.3345
15253TIP3    H267175   2.014   6.251  12.400 -1.1552  1.0031  1.5684
15254TIP3   OH267176   5.815   2.602   0.227  0.3646 -0.2160  0.0013
15254TIP3    H167177   5.790   2.585   0.136  3.6706 -1.9389 -0.7353
15254TIP3    H267178   5.821   2.516   0.267 -2.1090  0.5576  2.3132
15255TIP3   OH267179   5.161   0.029  10.535  0.3297  0.2708  0.4793
15255TIP3    H167180   5.232  -0.014  10.581 -0.8372 -1.6462  0.6073
15255TIP3    H267181   5.118   0.083  10.601  1.1867  0.8538  0.5749
15256TIP3   OH267182   4.685   4.499  11.920  0.1506  0.4762 -0.1451
15256TIP3    H167183   4.599   4.495  11.962 -0.5213  1.4233 -1.3711
15256TIP3    H267184   4.743   4.453  11.980 -1.0058  0.7360  1.2189
15257TIP3   OH267185   4.311   6.356  14.508  0.6226  0.2191  0.3104
15257TIP3    H167186   4.309   6.360  14.412 -0.6665  0.8381  0.3472
15257TIP3    H267187   4.245   6.291  14.531 -0.3301  1.3490  0.8270
15258TIP3   OH267188   2.112   3.583   4.978 -0.7426  0.1073 -0.5774
15258TIP3    H167189   2.135   3.623   4.894 -0.6330 -1.0779 -1.1425
15258TIP3    H267190   2.086   3.494   4.955 -1.1804 -0.0855  0.6047
15259TIP3   OH267191   0.371   6.080  12.032  0.4316 -0.0080  0.2246
15259TIP3    H167192   0.285   6.047  12.059 -0.9523 -0.0752 -3.6410
15259TIP3    H267193   0.421   6.001  12.012  0.8240  0.0756  0.8528
15260TIP3   OH267194   5.065   0.316  16.505 -0.3726  0.4330 -0.0884
15260TIP3    H167195   5.080   0.236  16.454 -0.1087  0.9595 -0.8443
15260TIP3    H267196   5.146   0.329  16.555 -1.0319 -0.7015  1.3728
15261TIP3   OH267197   3.629   2.437   6.097  0.3185  0.4779  0.0542
15261TIP3    H167198   3.632   2.517   6.149 -0.5156  1.4985 -1.3966
15261TIP3    H267199   3.720   2.423   6.070  0.5135  0.7731  0.5331
15262TIP3   OH267200   3.887   0.348  16.391  0.4753 -0.6361 -0.2937
15262TIP3    H167201   3.960   0.410  16.397  1.6287 -1.7536 -1.8371
15262TIP3    H267202   3.821   0.392  16.337 -0.7190  0.9679  2.3013
15263TIP3   OH267203   3.048   3.853  15.634 -0.9499 -0.4849 -0.1909
15263TIP3    H167204   3.011   3.939  15.613 -2.5905 -0.9613  0.5942
15263TIP3    H267205   3.009   3.831  15.719  0.2942 -1.5364  0.1288
15264TIP3   OH267206   2.443   2.973  15.327  0.3357  0.0280  0.5970
15264TIP3    H167207   2.368   2.920  15.355  1.4341 -1.7842  0.2885
15264TIP3    H267208   2.462   3.030  15.401  0.6298 -1.7747  1.9887
15265TIP3   OH267209   1.793   4.391   0.536 -0.7141 -0.2390 -0.1695
15265TIP3    H167210   1.825   4.338   0.463 -1.6102  0.6742 -1.2820
15265TIP3    H267211   1.698   4.384   0.530 -0.8526  1.3567 -0.2923
15266TIP3   OH267212   3.030   5.714  10.507  0.1040 -0.0955 -0.9176
15266TIP3    H167213   2.957   5.767  10.476 -1.2233 -1.0952  0.3567
15266TIP3    H267214   2.992   5.629  10.527  1.5757 -0.5896 -0.0062
15267TIP3   OH267215   1.626   4.364   1.458 -0.2976  0.1378  1.1584
15267TIP3    H167216   1.535   4.394   1.462 -0.2093  1.1035 -1.6484
15267TIP3    H267217   1.628   4.304   1.384  1.3453  0.1271  1.1788
15268TIP3   OH267218   0.696   5.306   5.786  0.1748 -0.3119  0.4504
15268TIP3    H167219   0.790   5.302   5.803  0.2214  0.8209  0.4997
15268TIP3    H267220   0.667   5.387   5.827 -0.2300  1.0808 -2.3546
15269TIP3   OH267221   0.059   2.466   3.016  0.2980  0.4451 -0.2657
15269TIP3    H167222   0.031   2.487   3.105 -0.2102 -1.0014 -0.0479
15269TIP3    H267223   0.124   2.533   2.995  0.5563  0.7208  1.2595
15270TIP3   OH267224   5.132   5.727   2.558 -0.2541 -0.1457  0.2725
15270TIP3    H167225   5.146   5.813   2.519 -0.0781 -0.7127 -0.9714
15270TIP3    H267226   5.073   5.683   2.497 -0.5246 -0.8245  1.0128
15271TIP3   OH267227   3.704   4.028  16.190 -0.0249  0.1165  0.3404
15271TIP3    H167228   3.731   3.954  16.244 -1.1784 -0.2453  0.4550
15271TIP3    H267229   3.710   3.995  16.100 -1.7960 -0.6184  0.4330
15272TIP3   OH267230   5.020   1.781  16.162 -0.2600  0.3038 -0.4387
15272TIP3    H167231   5.095   1.786  16.103 -0.4717 -0.3158 -0.7683
15272TIP3    H267232   4.971   1.862  16.146 -0.2578  0.1926 -1.0389
15273TIP3   OH267233   0.350   5.912  16.346 -0.4202  0.5771 -0.0986
15273TIP3    H167234   0.268   5.925  16.299  0.5798  2.3245 -1.4941
15273TIP3    H267235   0.386   5.831  16.310 -1.1177  0.2462 -0.0706
15274TIP3   OH267236   6.202   3.601   5.208 -0.4707  0.4920  0.0442
15274TIP3    H167237   6.111   3.593   5.182 -0.6848  0.1618  0.8458
15274TIP3    H267238   6.240   3.664   5.147 -0.9865 -0.0869 -0.8953
15275TIP3   OH267239   0.511   2.180   2.399  0.2534  0.8215 -0.1989
15275TIP3    H167240   0.522   2.085   2.391  0.4295  0.4958  2.6679
15275TIP3    H267241   0.591   2.217   2.360  2.1942 -0.5042  2.2095
15276TIP3   OH267242   4.381   2.400   6.450  0.1224  0.1407 -0.0233
15276TIP3    H167243   4.321   2.350   6.506  2.5783 -0.6669  2.0933
15276TIP3    H267244   4.393   2.483   6.496 -0.1344  0.6999 -0.9562
15277TIP3   OH267245   5.266   1.070   2.101  0.2572  0.2094 -0.8170
15277TIP3    H167246   5.223   1.090   2.018  1.7165  0.0598 -1.6598
15277TIP3    H267247   5.288   1.155   2.139 -2.0048  0.3487  0.3695
15278TIP3   OH267248   5.466   1.056  11.367  0.2537  0.0381 -0.9970
15278TIP3    H167249   5.486   1.013  11.284  1.4092  0.2877 -0.8648
15278TIP3    H267250   5.549   1.095  11.395 -0.2595  0.4831 -0.0282
15279TIP3   OH267251   6.450   0.547   0.872 -0.3323 -0.3250  0.1295
15279TIP3    H167252   6.502   0.625   0.851  2.1607 -1.7534  0.5719
15279TIP3    H267253   6.406   0.568   0.954  0.8278  0.4155  0.5848
15280TIP3   OH267254   0.738   3.372   3.286 -0.1067 -0.4050 -0.3690
15280TIP3    H167255   0.759   3.335   3.201  4.6541 -0.8988  0.7516
15280TIP3    H267256   0.781   3.457   3.287 -1.0935  0.1361  1.1710
15281TIP3   OH267257   4.421   3.742   3.782 -1.2930 -0.3907  0.3795
15281TIP3    H167258   4.365   3.734   3.705  1.2492 -0.6742 -1.5677
15281TIP3    H267259   4.477   3.665   3.778  1.8265  1.7311 -0.0766
15282TIP3   OH267260   3.160   4.637   5.020 -0.6209  0.8904 -0.4669
15282TIP3    H167261   3.187   4.698   4.952  2.0890 -0.0701 -0.3758
15282TIP3    H267262   3.084   4.592   4.984  0.9793  0.0943 -3.0991
15283TIP3   OH267263   2.794   0.133  16.046  0.2400  0.2595  0.2358
15283TIP3    H167264   2.854   0.059  16.051 -0.9679 -0.9184 -1.5231
15283TIP3    H267265   2.851   0.209  16.033  1.4460 -0.4776  1.0149
15284TIP3   OH267266   0.452   3.868  13.057  0.0921 -0.3952 -0.3044
15284TIP3    H167267   0.475   3.844  13.147  1.5872 -0.4907 -0.6965
15284TIP3    H267268   0.472   3.790  13.005  0.7620  0.1880 -0.9406
15285TIP3   OH267269   6.123   1.617  16.673 -0.2956  0.2943  0.0544
15285TIP3    H167270   6.132   1.666  16.591 -1.4539 -0.6818 -0.7017
15285TIP3    H267271   6.153   1.529  16.651  0.2675  0.2553  0.9511
15286TIP3   OH267272   0.349   4.468   6.125 -0.3842  0.3431 -0.2290
15286TIP3    H167273   0.311   4.457   6.037  0.0447 -2.3171 -0.1545
15286TIP3    H267274   0.281   4.514   6.174 -1.7300 -0.4427 -1.2698
15287TIP3   OH267275   1.570   2.887   3.502 -0.2842 -0.3828 -0.1936
15287TIP3    H167276   1.535   2.889   3.591  0.7917 -0.6706  0.2556
15287TIP3    H267277   1.528   2.811   3.461  0.4442 -1.2476  0.6133
15288TIP3   OH267278   4.138   5.147   3.677  0.0194  0.0431 -0.1921
15288TIP3    H167279   4.152   5.120   3.768 -1.4440 -1.8049 -0.4655
15288TIP3    H267280   4.078   5.221   3.684 -0.3315 -0.2838  0.3253
15289TIP3   OH267281   4.780   2.028  10.706  0.9648  0.0172  0.2773
15289TIP3    H167282   4.828   2.087  10.647 -0.1834 -0.3643 -1.0815
15289TIP3    H267283   4.824   1.943  10.695  1.8402  0.3239  1.3029
15290TIP3   OH267284   3.435   3.743   1.211 -0.2775 -0.0830  0.2287
15290TIP3    H167285   3.455   3.809   1.145  2.3126 -0.7621  0.2019
15290TIP3    H267286   3.502   3.755   1.278  0.1973 -2.5328  0.2984
15291TIP3   OH267287   5.199   4.817  12.298 -0.0701  0.9572 -0.1287
15291TIP3    H167288   5.204   4.897  12.245  1.3453  1.4198  0.6314
15291TIP3    H267289   5.169   4.847  12.384 -0.2369  0.5621 -0.0462
15292TIP3   OH267290   0.861   6.542   2.337  0.2098 -0.3204 -0.4054
15292TIP3    H167291   0.832   6.600   2.408  0.7839 -0.1651 -0.2937
15292TIP3    H267292   0.790   6.478   2.328  0.2888 -0.5603  0.5585
15293TIP3   OH267293   0.888   5.073  16.068 -0.2071 -0.1109 -0.2200
15293TIP3    H167294   0.880   4.981  16.093  3.8648 -1.2129 -2.0905
15293TIP3    H267295   0.894   5.120  16.152  0.5970 -1.9526  0.8211
15294TIP3   OH267296   5.425   3.001  15.970  0.3271 -0.6387 -0.1729
15294TIP3    H167297   5.348   3.052  15.996  1.4981  0.4922  1.3782
15294TIP3    H267298   5.392   2.913  15.954 -1.1946 -0.3648  1.1389
15295TIP3   OH267299   2.575   0.744   1.735  0.1535  0.1896 -0.0443
15295TIP3    H167300   2.639   0.744   1.806  0.4745 -1.6515 -0.2995
15295TIP3    H267301   2.505   0.686   1.765  0.7452 -1.4040 -1.5628
15296TIP3   OH267302   0.366   2.859   0.588 -0.3484  0.6354  0.5681
15296TIP3    H167303   0.432   2.811   0.639  0.6047  0.2574 -0.9525
15296TIP3    H267304   0.345   2.800   0.516 -0.2178  1.9188 -0.5535
15297TIP3   OH267305   0.928   2.771  15.323 -0.0393  0.2865 -0.3187
15297TIP3    H167306   1.017   2.799  15.303 -0.4498  0.7182 -1.6462
15297TIP3    H267307   0.921   2.684  15.284 -0.0164 -0.0021  0.3097
15298TIP3   OH267308   1.440   2.670  12.035 -0.2709 -0.1553  0.3914
15298TIP3    H167309   1.443   2.581  12.071  0.3051  0.1981  1.2366
15298TIP3    H267310   1.507   2.718  12.083 -0.0731  0.5574 -0.5740
15299TIP3   OH267311   3.074   2.367   4.328 -0.5692  0.0773  0.0573
15299TIP3    H167312   3.009   2.384   4.259 -0.9562 -2.1470 -0.2211
15299TIP3    H267313   3.156   2.353   4.281 -0.0001  2.1850  0.3592
15300TIP3   OH267314   3.625   5.917  15.095 -0.6319  0.3125  0.0877
15300TIP3    H167315   3.561   5.864  15.047 -2.0132  2.0927 -0.1513
15300TIP3    H267316   3.695   5.932  15.032 -0.3299 -0.9710  0.0825
15301TIP3   OH267317   3.844   1.373  15.534  0.7816 -0.3324 -0.2621
15301TIP3    H167318   3.920   1.381  15.592 -0.5873  0.4446  1.4939
15301TIP3    H267319   3.768   1.389  15.590 -0.7364 -1.4351 -1.8889
15302TIP3   OH267320   3.435   5.751  16.758  0.1204  0.1940 -0.0007
15302TIP3    H167321   3.385   5.705  16.690 -0.8363 -0.2369  0.9637
15302TIP3    H267322   3.482   5.682  16.804  1.2110  0.5430 -0.5461
15303TIP3   OH267323   1.486   4.440   5.270 -0.1136 -0.5031  0.4075
15303TIP3    H167324   1.566   4.391   5.250 -0.2614  0.6777 -4.0493
15303TIP3    H267325   1.415   4.381   5.245 -0.5272 -0.2347  0.9380
15304TIP3   OH267326   6.591   4.855  12.920 -0.0727  0.0550 -0.0402
15304TIP3    H167327   6.531   4.923  12.889  0.4043  0.2097 -0.6508
15304TIP3    H267328   6.556   4.773  12.885  0.4706  0.2297 -1.0344
15305TIP3   OH267329   0.668   3.698   6.572  0.0201 -0.8493 -0.3306
15305TIP3    H167330   0.680   3.616   6.524 -2.3853 -0.8549 -1.0202
15305TIP3    H267331   0.585   3.733   6.539  1.2838  2.2328 -0.5764
15306TIP3   OH267332   1.703   3.042  12.101  0.4574  0.0929  0.1243
15306TIP3    H167333   1.663   3.037  12.015  1.3463  0.1776 -0.3112
15306TIP3    H267334   1.674   2.962  12.146 -2.2239  1.3297  0.7824
15307TIP3   OH267335   1.807   6.495   3.470 -0.3403  0.1979 -0.3207
15307TIP3    H167336   1.718   6.463   3.456 -0.3733  0.1281  0.0429
15307TIP3    H267337   1.842   6.439   3.540  0.4374 -0.6183 -1.3293
15308TIP3   OH267338   0.357   3.193   5.429 -0.4260  0.0517 -0.1686
15308TIP3    H167339   0.313   3.269   5.393 -3.0971 -1.6944 -0.8617
15308TIP3    H267340   0.399   3.152   5.353 -1.1906 -0.5223 -0.2954
15309TIP3   OH267341   1.570   3.828   5.306 -0.3344 -0.8601 -0.4202
15309TIP3    H167342   1.492   3.789   5.266 -0.7435 -0.4562 -0.0274
15309TIP3    H267343   1.621   3.754   5.338 -1.3366 -1.0693  0.7630
15310TIP3   OH267344   1.844   3.781   2.953  0.3732 -0.2308  0.6488
15310TIP3    H167345   1.929   3.743   2.931 -0.1896 -1.2256  0.1430
15310TIP3    H267346   1.842   3.863   2.903  0.5753 -0.7465 -0.2377
15311TIP3   OH267347   3.556   6.234   5.447 -0.3085 -0.0518 -0.0419
15311TIP3    H167348   3.612   6.267   5.517  1.8130  0.5059 -1.8627
15311TIP3    H267349   3.608   6.248   5.367 -3.0923  0.5271 -1.8812
15312TIP3   OH267350   3.427   1.962  17.164 -0.6895 -0.6652  0.3335
15312TIP3    H167351   3.426   1.887  17.224 -0.0542  0.0548  1.2703
15312TIP3    H267352   3.478   1.932  17.088  1.8000 -0.4085  1.7953
15313TIP3   OH267353   6.713   2.289  13.127 -0.1226 -0.2615  0.2449
15313TIP3    H167354   6.660   2.213  13.152  0.1776  0.0011  1.7579
15313TIP3    H267355   6.659   2.336  13.064 -0.4351 -1.5591 -0.4986
15314TIP3   OH267356   3.118   2.280   3.730  0.4767  0.1971 -0.0399
15314TIP3    H167357   3.142   2.308   3.642  0.9385  0.7925  0.2625
15314TIP3    H267358   3.116   2.362   3.781 -0.1383 -0.0948  0.4181
15315TIP3   OH267359   2.901   0.261   1.693  0.1679 -0.1532 -0.0196
15315TIP3    H167360   2.928   0.170   1.701  0.3643 -0.0404  0.6664
15315TIP3    H267361   2.976   0.304   1.652  0.7198 -0.0104  1.0881
15316TIP3   OH267362   0.915   2.466  12.819  0.8152  0.2380 -0.3340
15316TIP3    H167363   0.854   2.424  12.880  0.3931 -0.7040 -1.3676
15316TIP3    H267364   1.002   2.443  12.852  0.6911  2.0712  1.4885
15317TIP3   OH267365   4.250   2.868  14.711  0.8457 -0.1955 -0.0537
15317TIP3    H167366   4.266   2.836  14.622  0.7518  0.2129 -0.2194
15317TIP3    H267367   4.254   2.963  14.703 -1.4617 -0.0599 -0.0595
15318TIP3   OH267368   4.326   2.914  13.360 -0.1207 -0.0193  0.0482
15318TIP3    H167369   4.362   2.994  13.399 -0.5453 -0.3101  1.0787
15318TIP3    H267370   4.351   2.844  13.421 -0.1823 -0.6070 -0.5805
15319TIP3   OH267371   1.844   2.626   4.091  0.7371  0.3928 -0.8011
15319TIP3    H167372   1.813   2.712   4.118  0.6951  0.6613 -1.6682
15319TIP3    H267373   1.939   2.631   4.098  0.6881 -0.5301  2.1592
15320TIP3   OH267374   3.539   2.241   2.815 -0.6291  0.3209  0.0037
15320TIP3    H167375   3.447   2.217   2.808 -0.1396 -1.4906 -0.8681
15320TIP3    H267376   3.587   2.158   2.807  1.0624  1.1058  1.2867
15321TIP3   OH267377   1.245   1.140   0.226  0.3326  0.1734  0.4315
15321TIP3    H167378   1.259   1.163   0.134  1.8398  0.2252  0.6598
15321TIP3    H267379   1.324   1.093   0.252  0.5361  1.3481  2.0804
15322TIP3   OH267380   3.666   1.110  12.527 -0.4206  0.2969  0.3175
15322TIP3    H167381   3.708   1.076  12.606 -0.5238 -0.7086 -0.0333
15322TIP3    H267382   3.739   1.127  12.467 -0.4596 -1.8886 -0.4601
15323TIP3   OH267383   6.307   3.391  14.685 -0.3117 -0.0327 -0.9527
15323TIP3    H167384   6.361   3.437  14.621  1.0860 -1.0391 -0.5361
15323TIP3    H267385   6.312   3.299  14.659  0.3072 -0.4605  0.5701
15324TIP3   OH267386   1.465   1.257   6.885 -0.0739 -0.1711 -0.4506
15324TIP3    H167387   1.403   1.327   6.904  0.8741  0.6058 -0.1118
15324TIP3    H267388   1.429   1.211   6.809  0.2415  1.9038 -1.9276
15325TIP3   OH267389   4.556   3.548  12.180  0.3325 -0.3184 -0.4984
15325TIP3    H167390   4.565   3.508  12.267  0.6355  1.3245  0.2626
15325TIP3    H267391   4.462   3.551  12.164  0.3101 -1.8272 -0.8494
15326TIP3   OH267392   6.583   4.201   3.061 -0.1727 -0.4158 -0.0757
15326TIP3    H167393   6.568   4.295   3.065 -1.1839 -0.5778  0.0667
15326TIP3    H267394   6.629   4.189   2.978 -0.1871  0.1856 -0.1785
15327TIP3   OH267395   1.940   5.321  12.622  0.3568  0.5486 -0.1899
15327TIP3    H167396   1.955   5.353  12.533  0.3882 -0.6110 -0.6170
15327TIP3    H267397   1.918   5.400  12.672  0.7690  1.2776 -1.1228
15328TIP3   OH267398   3.978   1.863  12.495  0.6569 -0.7696  0.1975
15328TIP3    H167399   3.911   1.795  12.505 -0.3843  0.1720 -0.1668
15328TIP3    H267400   3.960   1.900  12.408 -0.2571  1.4940  1.2935
15329TIP3   OH267401   1.106   6.087  12.111 -0.5006  0.2964  0.5753
15329TIP3    H167402   1.163   6.158  12.140  0.9332 -0.7186  0.3833
15329TIP3    H267403   1.028   6.130  12.077  0.8157  1.8336 -0.6357
15330TIP3   OH267404   3.123   1.940   0.651 -0.1388 -0.0396  0.2310
15330TIP3    H167405   3.054   1.996   0.686 -0.2103  0.4043 -0.5803
15330TIP3    H267406   3.204   1.983   0.677 -0.1706 -0.2890  0.7542
15331TIP3   OH267407   3.846   2.926   4.650 -0.5298 -0.6001 -0.3819
15331TIP3    H167408   3.923   2.925   4.594 -0.1927  0.9477  0.0097
15331TIP3    H267409   3.858   2.851   4.709  1.4129  0.3841  0.5826
15332TIP3   OH267410   5.519   5.551  10.838 -0.0612  0.0521 -0.0791
15332TIP3    H167411   5.463   5.629  10.842  3.1939  2.6602 -0.5562
15332TIP3    H267412   5.516   5.514  10.926 -2.8740 -0.2665 -0.2464
15333TIP3   OH267413   4.493   6.119   3.459  0.0805  0.4875 -0.1408
15333TIP3    H167414   4.523   6.197   3.507  2.0315 -0.4750  0.3025
15333TIP3    H267415   4.490   6.050   3.525  0.0085 -0.2122 -0.8607
15334TIP3   OH267416   3.542   1.898  13.982  0.4873 -0.2244 -0.0402
15334TIP3    H167417   3.463   1.879  14.033  0.7153  0.3796  0.5542
15334TIP3    H267418   3.565   1.988  14.006  0.6247  0.0703 -1.1894
15335TIP3   OH267419   2.279   6.087  14.553  0.1263 -0.3020 -0.3737
15335TIP3    H167420   2.214   6.028  14.515 -1.3140  1.8859 -1.5774
15335TIP3    H267421   2.238   6.121  14.632 -0.4132  1.3416 -1.3130
15336TIP3   OH267422   3.315   6.368   6.606 -0.0095  0.1268 -0.1332
15336TIP3    H167423   3.256   6.432   6.647 -0.2625 -0.4257  0.3737
15336TIP3    H267424   3.400   6.385   6.646  0.4348  1.5571 -1.5421
15337TIP3   OH267425   1.302   3.162  13.367 -0.0146 -0.2213  0.1148
15337TIP3    H167426   1.359   3.151  13.443  0.1627 -1.5391 -0.1815
15337TIP3    H267427   1.298   3.257  13.353  0.3334  0.0113  1.4626
15338TIP3   OH267428   6.352   6.128  12.888 -0.1477  0.1899 -0.2466
15338TIP3    H167429   6.371   6.044  12.930 -3.0174 -1.4455 -1.9199
15338TIP3    H267430   6.413   6.132  12.814 -0.4178 -0.7763 -0.5379
15339TIP3   OH267431   4.623   5.148  12.063  0.1777 -0.1696  0.1360
15339TIP3    H167432   4.567   5.115  12.133  1.0956 -1.5475  0.2636
15339TIP3    H267433   4.712   5.130  12.094  0.5930 -1.7049 -1.7754
15340TIP3   OH267434   5.254   4.721  13.473  0.4244  0.3343  0.3717
15340TIP3    H167435   5.226   4.734  13.564  0.7552 -0.9944  0.6875
15340TIP3    H267436   5.299   4.637  13.474  1.5289  0.8854 -0.7882
15341TIP3   OH267437   2.493   0.653  11.851  0.0099  0.3881  0.2018
15341TIP3    H167438   2.420   0.701  11.890 -0.9723 -1.1934  0.3993
15341TIP3    H267439   2.454   0.603  11.780  1.2961  1.0678 -1.0252
15342TIP3   OH267440   1.380   5.618  11.533 -0.1312 -0.5218 -0.4714
15342TIP3    H167441   1.457   5.655  11.491  0.4708 -0.2275  0.8346
15342TIP3    H267442   1.405   5.529  11.556 -1.0800 -1.3158 -2.2974
15343TIP3   OH267443   4.703   2.943  11.501 -0.0716 -0.2937  0.3787
15343TIP3    H167444   4.623   2.993  11.518 -1.1331 -0.1427 -3.8680
15343TIP3    H267445   4.672   2.857  11.473  1.4734 -1.3499  1.7095
15344TIP3   OH267446   2.047   5.927  16.974  0.3251 -0.9599 -0.1531
15344TIP3    H167447   2.083   5.896  16.891 -0.0643 -0.2975 -0.5759
15344TIP3    H267448   2.122   5.967  17.019  0.4160 -0.8144 -0.4315
15345TIP3   OH267449   4.229   6.639  14.551 -0.1065  0.6057 -0.0595
15345TIP3    H167450   4.147   6.656  14.597 -1.0489 -0.8245 -1.1141
15345TIP3    H267451   4.220   6.549  14.519  1.6374  0.6284 -0.7085
15346TIP3   OH267452   5.255   2.287   1.327 -0.0576  0.0057  0.1533
15346TIP3    H167453   5.160   2.280   1.341 -0.5579  2.5061 -1.3365
15346TIP3    H267454   5.265   2.364   1.271  2.9356  0.1495  0.7388
15347TIP3   OH267455   6.013   5.386  15.006  0.0285  0.7863 -0.2016
15347TIP3    H167456   6.067   5.307  14.999  0.1062  0.9495 -1.7221
15347TIP3    H267457   6.028   5.432  14.924 -0.6005  2.0205  0.3602
15348TIP3   OH267458   5.437   3.371  13.909  0.5869  0.6113 -0.0336
15348TIP3    H167459   5.368   3.376  13.843 -0.6368  1.2840  1.2482
15348TIP3    H267460   5.509   3.424  13.872 -0.4785  1.8778 -0.3657
15349TIP3   OH267461   0.025   6.210  15.685  0.0390  0.0340 -0.0422
15349TIP3    H167462   0.097   6.258  15.726 -0.2021  1.4575 -1.2210
15349TIP3    H267463  -0.033   6.278  15.651  0.1920 -1.0428 -2.7036
15350TIP3   OH267464   4.249   1.615   1.635  0.2246  0.1402  0.0436
15350TIP3    H167465   4.242   1.626   1.730 -0.3735  0.2189 -0.0057
15350TIP3    H267466   4.158   1.613   1.604  0.4048  2.3015 -0.7834
15351TIP3   OH267467   6.714   2.202  13.802  0.1285 -0.4388 -0.5704
15351TIP3    H167468   6.746   2.277  13.852 -0.0982 -0.7705  0.0945
15351TIP3    H267469   6.791   2.170  13.755  0.6581 -0.8828  0.5700
15352TIP3   OH267470   0.387   0.037   4.384  0.5250  0.8917  0.2820
15352TIP3    H167471   0.377   0.050   4.290 -0.5847 -0.7848  0.1329
15352TIP3    H267472   0.384  -0.058   4.396 -0.4859  1.1068  2.1168
15353TIP3   OH267473   0.441   4.268  13.800 -0.0875  0.0450 -0.0276
15353TIP3    H167474   0.493   4.346  13.821  1.9264 -1.1616 -0.2586
15353TIP3    H267475   0.352   4.301  13.789  0.2085  1.9283  2.3441
15354TIP3   OH267476   2.315   2.056  16.077 -0.2092  0.2686 -0.6294
15354TIP3    H167477   2.405   2.043  16.107 -0.1771  0.8544 -0.4588
15354TIP3    H267478   2.321   2.059  15.982  0.2802  2.3828 -0.6005
15355TIP3   OH267479   0.595   1.191   1.816  0.9260  0.2631 -0.2076
15355TIP3    H167480   0.509   1.149   1.820  1.0929 -0.0354  0.2566
15355TIP3    H267481   0.648   1.134   1.761  0.8442  0.4189 -0.4492
15356TIP3   OH267482   1.678   0.912   0.997  0.6958  0.0786  0.5200
15356TIP3    H167483   1.761   0.914   1.045  0.1500  0.9596  1.4359
15356TIP3    H267484   1.626   0.982   1.035 -0.4527 -0.4146 -0.1038
15357TIP3   OH267485   4.545   1.009   3.448 -0.4450 -0.0682 -0.5302
15357TIP3    H167486   4.542   0.936   3.387 -1.6282 -0.1990 -0.3373
15357TIP3    H267487   4.454   1.038   3.455 -0.4128 -0.3133  1.4783
15358TIP3   OH267488   2.319   5.074   2.798  0.1074  0.1569 -0.4220
15358TIP3    H167489   2.377   5.150   2.803  0.5963 -0.1709 -0.9782
15358TIP3    H267490   2.376   4.999   2.811 -0.0581 -0.2099 -1.6381
15359TIP3   OH267491   5.042   2.091  14.374  0.2252  0.3370  0.0207
15359TIP3    H167492   4.976   2.160  14.385  0.3210  0.3995  0.2046
15359TIP3    H267493   5.025   2.030  14.445 -1.0227 -0.7823 -1.1832
15360TIP3   OH267494   2.871   1.546   5.340  0.2746  0.5906 -0.5078
15360TIP3    H167495   2.853   1.610   5.272  2.8562  0.2425 -1.6436
15360TIP3    H267496   2.929   1.592   5.401  2.2938 -0.5852 -1.4223
15361TIP3   OH267497   5.410   6.313  14.594  0.1393  0.8249  0.3755
15361TIP3    H167498   5.416   6.404  14.564  0.8853  0.3785 -0.8679
15361TIP3    H267499   5.354   6.270  14.530  0.4028  0.2302  0.5400
15362TIP3   OH267500   3.822   4.025   5.921  0.0021 -0.1897  0.2284
15362TIP3    H167501   3.916   4.009   5.917  0.0592 -0.1533  1.1947
15362TIP3    H267502   3.782   3.943   5.892  0.2847  1.0306 -4.3391
15363TIP3   OH267503   6.477   1.387   1.872 -0.2479  0.1758  0.0250
15363TIP3    H167504   6.407   1.439   1.910  1.3029  1.8900  0.6867
15363TIP3    H267505   6.556   1.416   1.918  0.6411 -3.3243  1.0008
15364TIP3   OH267506   6.313   6.601  16.597 -0.0631 -0.4609  0.2538
15364TIP3    H167507   6.374   6.564  16.534 -0.2414  1.5481 -1.1814
15364TIP3    H267508   6.243   6.639  16.544 -1.5109 -0.8653  1.7799
15365TIP3   OH267509   6.607   3.889   2.988  0.9036 -0.1271 -0.5670
15365TIP3    H167510   6.557   3.894   3.069  1.1719  0.2695 -0.4217
15365TIP3    H267511   6.594   3.800   2.957  1.0717 -0.3867  0.0881
15366TIP3   OH267512   5.425   3.644   4.057  0.1989  0.0994  0.0678
15366TIP3    H167513   5.393   3.556   4.075  0.5635  0.0590  0.5370
15366TIP3    H267514   5.520   3.639   4.069  0.2723  0.4546 -0.3186
15367TIP3   OH267515   6.799   0.428  12.428  0.5163 -0.2661  0.2696
15367TIP3    H167516   6.865   0.385  12.483  1.9248 -0.1876 -1.2546
15367TIP3    H267517   6.787   0.514  12.467 -0.1652 -0.9730  1.6841
15368TIP3   OH267518   1.775   6.233  12.689 -0.4442 -0.1174  0.4314
15368TIP3    H167519   1.713   6.205  12.756 -0.7643  0.6533  0.4699
15368TIP3    H267520   1.746   6.189  12.609 -0.6391 -0.2903  0.5971
15369TIP3   OH267521   3.135   6.462  16.662  0.0754 -0.3051 -0.0722
15369TIP3    H167522   3.143   6.370  16.637 -1.1950 -0.2049 -0.9684
15369TIP3    H267523   3.082   6.460  16.742 -4.4043 -0.2314 -2.7025
15370TIP3   OH267524   4.308   2.949   5.256  0.3496 -0.0932 -0.2360
15370TIP3    H167525   4.258   2.912   5.329 -0.9182  0.6219 -0.7220
15370TIP3    H267526   4.247   2.953   5.183  1.0176  1.0762 -0.7699
15371TIP3   OH267527   3.573   3.289  13.260  0.6175 -0.4614  0.4238
15371TIP3    H167528   3.606   3.303  13.349  0.0034  0.0897  0.5720
15371TIP3    H267529   3.645   3.245  13.215  1.0824 -0.4013  1.0833
15372TIP3   OH267530   5.974   3.625  13.427 -0.3571 -0.6641 -0.7386
15372TIP3    H167531   5.994   3.569  13.502  0.7282  0.4286 -0.1748
15372TIP3    H267532   6.039   3.601  13.361 -0.7341 -0.9806 -1.0033
15373TIP3   OH267533   3.049   6.073   5.705 -0.1208 -0.4387 -0.7520
15373TIP3    H167534   3.057   6.051   5.798  0.1997 -0.2925 -0.7446
15373TIP3    H267535   3.039   6.168   5.703 -0.8871 -0.5098 -0.8233
15374TIP3   OH267536   0.511   5.931   4.282 -0.3747  0.7133 -0.2027
15374TIP3    H167537   0.607   5.935   4.280 -0.2351 -1.1097  0.6585
15374TIP3    H267538   0.489   5.937   4.375 -1.0149  0.1711 -0.3141
15375TIP3   OH267539   6.280   4.264   3.377  0.3388 -0.0156  0.4783
15375TIP3    H167540   6.241   4.352   3.371  0.4052  0.0102  0.4210
15375TIP3    H267541   6.241   4.215   3.305 -1.0014 -0.5470  1.5293
15376TIP3   OH267542   4.227   4.377   0.389  0.3403 -0.2890 -0.3708
15376TIP3    H167543   4.243   4.284   0.407 -1.3767 -0.6609 -0.6156
15376TIP3    H267544   4.132   4.385   0.383  0.3911  1.6648  0.5185
15377TIP3   OH267545   0.139   3.558  11.156  0.2178 -0.3666  0.1907
15377TIP3    H167546   0.122   3.508  11.076  1.5244 -0.3919 -0.0806
15377TIP3    H267547   0.070   3.530  11.217 -1.0066 -0.0790 -1.0308
15378TIP3   OH267548   3.466   1.505   1.508 -0.8724 -0.6413 -0.2571
15378TIP3    H167549   3.414   1.514   1.588  1.4812  0.3401  1.2735
15378TIP3    H267550   3.518   1.426   1.522 -1.7754 -1.5143 -1.6765
15379TIP3   OH267551   2.172   1.959   3.414  0.6171  0.1030  0.4492
15379TIP3    H167552   2.158   1.932   3.505  1.4922 -0.3358  0.4645
15379TIP3    H267553   2.253   1.916   3.388  0.3455  0.1697 -0.5698
15380TIP3   OH267554   6.124   2.815  15.151 -0.0568 -0.4538  0.5800
15380TIP3    H167555   6.044   2.869  15.149 -1.2341 -2.1109  0.6312
15380TIP3    H267556   6.097   2.731  15.114  2.0019 -0.6898 -0.5162
15381TIP3   OH267557   2.146   3.860  13.184  0.2592 -0.4386  0.1115
15381TIP3    H167558   2.097   3.875  13.103  1.8842 -0.0690 -0.8494
15381TIP3    H267559   2.090   3.802  13.236 -0.4319 -1.4722 -1.6985
15382TIP3   OH267560   5.373   4.552  14.088  0.6914 -0.7407  0.3491
15382TIP3    H167561   5.336   4.620  14.145 -0.1134  0.1439 -1.1673
15382TIP3    H267562   5.322   4.473  14.108 -0.2059 -0.2053  0.2064
15383TIP3   OH267563   5.340   6.070   4.923 -0.0068 -0.4872  0.4855
15383TIP3    H167564   5.332   5.977   4.943  2.9215 -0.6295  1.4832
15383TIP3    H267565   5.381   6.108   5.001  1.2638  1.1231 -0.8954
15384TIP3   OH267566   3.876   0.124  12.484 -0.2235  0.3694  0.1939
15384TIP3    H167567   3.795   0.156  12.524 -0.0550 -0.5849  1.3397
15384TIP3    H267568   3.849   0.046  12.435  0.0898 -0.2624  1.0256
15385TIP3   OH267569   1.665   0.613   5.427  0.8947  0.1140 -0.2886
15385TIP3    H167570   1.644   0.651   5.342 -0.2421 -2.1009 -1.0749
15385TIP3    H267571   1.702   0.686   5.477  1.4547  1.5195 -2.5950
15386TIP3   OH267572   6.209   5.077   2.105 -0.2395  0.1375 -0.2577
15386TIP3    H167573   6.170   5.062   2.019  0.7117 -3.0149 -0.2678
15386TIP3    H267574   6.180   5.004   2.158 -1.7152  2.5627  2.5764
15387TIP3   OH267575   6.256   3.345   5.073 -0.0723 -0.7105 -0.4918
15387TIP3    H167576   6.238   3.422   5.127 -1.9361 -1.0221 -0.6026
15387TIP3    H267577   6.331   3.370   5.019 -0.4301  0.8988 -0.2854
15388TIP3   OH267578   1.908   0.416  15.114  0.4367 -0.5374  0.4681
15388TIP3    H167579   1.871   0.333  15.084  0.8090 -0.4218 -0.3588
15388TIP3    H267580   1.996   0.418  15.076 -0.1176  0.9339 -0.8411
15389TIP3   OH267581   4.555   2.032  11.514 -0.0797  0.2096 -0.0577
15389TIP3    H167582   4.546   1.949  11.467  1.1588 -1.0022  1.7202
15389TIP3    H267583   4.466   2.069  11.515 -0.4048 -0.4134 -1.9998
15390TIP3   OH267584   5.251   0.389   3.441  0.4215 -0.4443 -0.2659
15390TIP3    H167585   5.189   0.462   3.443  1.1771  0.2516  2.8861
15390TIP3    H267586   5.197   0.312   3.423 -0.8309  0.5195 -0.7870
15391TIP3   OH267587   2.600   2.058  16.119  0.0273 -0.4392 -0.1065
15391TIP3    H167588   2.604   2.082  16.211  0.5305 -0.4617 -0.1224
15391TIP3    H267589   2.667   2.111  16.077  0.6942 -1.3786 -0.2493
15392TIP3   OH267590   6.388   0.346   1.111 -0.2582  0.8288  0.0244
15392TIP3    H167591   6.413   0.345   1.018 -1.2979 -0.3131 -0.2565
15392TIP3    H267592   6.470   0.330   1.157  0.0164 -0.1427 -0.7659
15393TIP3   OH267593   2.316   1.129  11.881 -0.0376  0.5171 -0.2223
15393TIP3    H167594   2.410   1.140  11.898 -0.0032  1.4040 -0.8966
15393TIP3    H267595   2.287   1.066  11.947  0.9975  0.3563  0.1040
15394TIP3   OH267596   3.911   4.067  12.930 -0.9803  0.1164  0.3958
15394TIP3    H167597   3.859   4.122  12.989 -1.5761  1.1483 -1.0485
15394TIP3    H267598   3.944   4.128  12.864 -1.8546 -1.2783 -1.3939
15395TIP3   OH267599   3.398   4.712   3.302 -0.0377  0.4546  0.1787
15395TIP3    H167600   3.476   4.664   3.329 -0.7680 -0.7601  0.2167
15395TIP3    H267601   3.369   4.668   3.222 -1.6295 -0.2365  1.0821
15396TIP3   OH267602   6.427   2.542   3.816 -0.8933  0.0401 -0.1333
15396TIP3    H167603   6.509   2.550   3.768 -0.4320 -2.2168  0.1930
15396TIP3    H267604   6.433   2.608   3.886  0.7847 -0.3203  0.0992
15397TIP3   OH267605   1.884   1.760   5.611 -0.3174 -0.4743 -0.0328
15397TIP3    H167606   1.942   1.825   5.571 -1.7600 -0.1362 -1.6530
15397TIP3    H267607   1.814   1.812   5.650  0.0836 -0.9251  1.3586
15398TIP3   OH267608   2.514   0.142  15.561  0.0217 -0.2843 -0.0571
15398TIP3    H167609   2.518   0.090  15.641  0.9685  0.4871  0.4153
15398TIP3    H267610   2.604   0.171  15.547 -0.3987  0.8336 -0.5613
15399TIP3   OH267611   5.179   0.727  14.560 -0.4180  0.2862  0.2598
15399TIP3    H167612   5.102   0.783  14.566 -0.8859 -0.1319 -1.3114
15399TIP3    H267613   5.193   0.715  14.466  0.0893 -1.6339  0.5331
15400TIP3   OH267614   3.963   0.143   0.444  0.8957  0.0231  0.0331
15400TIP3    H167615   3.995   0.219   0.396  0.9557 -0.7920 -1.2902
15400TIP3    H267616   4.042   0.097   0.471  0.8659 -0.3913 -0.5659
15401TIP3   OH267617   3.222   6.489   3.630  0.6267  0.1254  0.1023
15401TIP3    H167618   3.162   6.435   3.578 -0.1181  1.9741 -1.0422
15401TIP3    H267619   3.309   6.468   3.594  0.5247 -1.3215  0.6385
15402TIP3   OH267620   1.886   0.763  13.590 -0.6363  0.4717 -0.1203
15402TIP3    H167621   1.929   0.815  13.522 -0.8439 -0.7771 -1.2398
15402TIP3    H267622   1.958   0.723  13.638 -0.4988 -0.3790 -1.0056
15403TIP3   OH267623   0.082   6.576   4.075  1.2195  0.0568  0.1484
15403TIP3    H167624   0.011   6.614   4.127  1.0571  0.5098 -0.3964
15403TIP3    H267625   0.133   6.651   4.045  0.8679 -0.1333 -0.9771
15404TIP3   OH267626   2.294   2.109  11.972  0.1225  0.0224  0.0051
15404TIP3    H167627   2.226   2.174  11.952 -1.3116 -1.5234 -0.3209
15404TIP3    H267628   2.349   2.109  11.894  0.8817  1.6870  0.4907
15405TIP3   OH267629   2.840   0.679   1.625 -0.0754  0.3709 -0.4599
15405TIP3    H167630   2.859   0.769   1.650 -0.5363  0.3690 -0.0935
15405TIP3    H267631   2.746   0.669   1.640  0.1363 -0.4451  0.3645
15406TIP3   OH267632   1.124   4.337   3.233  0.3023 -0.5456 -0.4686
15406TIP3    H167633   1.165   4.260   3.194  2.6250 -0.4354  1.4713
15406TIP3    H267634   1.127   4.321   3.327 -3.0677  0.1282 -0.1443
15407TIP3   OH267635   6.180   2.105   5.296 -0.0208  0.3716  0.2572
15407TIP3    H167636   6.089   2.128   5.315  0.0472 -1.1649  3.0770
15407TIP3    H267637   6.180   2.081   5.203 -2.5019  0.4315  0.1776
15408TIP3   OH267638   3.997   0.897  14.079  0.1395 -0.3185  0.6638
15408TIP3    H167639   3.923   0.956  14.090  0.0150 -0.5369  0.9914
15408TIP3    H267640   3.963   0.826  14.024  1.0903  1.4041 -2.4134
15409TIP3   OH267641   5.226   2.446   2.216  0.6332  0.6090 -0.3023
15409TIP3    H167642   5.224   2.423   2.309 -2.5915  0.7921 -0.1939
15409TIP3    H267643   5.251   2.538   2.213 -0.2585  0.8858  0.4976
15410TIP3   OH267644   3.989   0.722   1.538  0.9692  0.1047  0.1050
15410TIP3    H167645   3.973   0.644   1.591  1.8808 -0.4267 -0.3963
15410TIP3    H267646   3.925   0.786   1.571 -1.1947 -1.4637 -0.8484
15411TIP3   OH267647   2.044   4.402  10.892  0.3827 -0.1593  0.4855
15411TIP3    H167648   1.964   4.363  10.926  0.2433 -0.3163 -0.0191
15411TIP3    H267649   2.085   4.443  10.968  0.0922 -0.5354  0.8470
15412TIP3   OH267650   4.582   4.987  16.010  0.3756  0.4238 -0.4310
15412TIP3    H167651   4.520   4.915  15.998  0.5344  0.2016  0.0346
15412TIP3    H267652   4.642   4.979  15.937  1.3659 -0.9351  0.4744
15413TIP3   OH267653   4.659   3.343  16.050 -0.1985 -0.0857  0.4427
15413TIP3    H167654   4.565   3.332  16.035 -0.2032  0.2318  0.2331
15413TIP3    H267655   4.701   3.302  15.974 -0.1879  0.4183  0.1751
15414TIP3   OH267656   2.134   2.638  11.286 -0.1544  0.2004 -0.2428
15414TIP3    H167657   2.135   2.550  11.325 -0.3932 -0.6338 -2.0131
15414TIP3    H267658   2.055   2.679  11.321 -0.7753 -0.8003 -0.4408
15415TIP3   OH267659   4.127   2.551   1.709 -0.0337 -0.0880 -0.0016
15415TIP3    H167660   4.056   2.555   1.772  0.4241 -1.4427  0.6300
15415TIP3    H267661   4.206   2.547   1.762  0.4632  0.4949 -0.6864
15416TIP3   OH267662   1.004   1.172   0.761  0.1237 -0.1503 -0.3630
15416TIP3    H167663   0.955   1.091   0.772  0.8185 -0.5407 -0.1155
15416TIP3    H267664   0.953   1.223   0.698 -0.6440 -0.5126 -0.0451
15417TIP3   OH267665   0.604   2.308   1.058 -0.8845  0.6431 -0.4042
15417TIP3    H167666   0.569   2.388   1.019  1.5585  1.7313 -0.5773
15417TIP3    H267667   0.602   2.245   0.986 -2.6901  0.5382 -0.3115
15418TIP3   OH267668   5.030   1.672  11.211 -0.0124  0.1380 -0.4155
15418TIP3    H167669   5.074   1.753  11.184  3.6853 -2.3050 -2.6825
15418TIP3    H267670   4.995   1.636  11.129  0.4326 -1.5803  0.1163
15419TIP3   OH267671   2.586   0.489   2.524  0.0380 -0.1181  0.3650
15419TIP3    H167672   2.563   0.472   2.432 -0.8804 -0.9853  0.7234
15419TIP3    H267673   2.501   0.497   2.568  0.4318 -1.1367  1.3692
15420TIP3   OH267674   2.730   3.381  15.285 -0.1328 -0.4633 -0.5507
15420TIP3    H167675   2.789   3.431  15.228 -0.9938  0.5782 -0.5666
15420TIP3    H267676   2.760   3.402  15.374 -0.3060 -0.1513 -0.5646
15421TIP3   OH267677   5.323   1.431  10.916  0.1585 -0.2098 -1.3781
15421TIP3    H167678   5.393   1.496  10.917  0.9890 -1.0583 -2.2371
15421TIP3    H267679   5.323   1.397  10.827 -2.5743  1.0154 -1.9289
15422TIP3   OH267680   3.771   5.341  11.983  0.0135  0.4366  0.3799
15422TIP3    H167681   3.862   5.358  12.009  0.4471 -1.0945 -0.0120
15422TIP3    H267682   3.741   5.274  12.044 -0.1701 -0.5276 -0.7293
15423TIP3   OH267683   3.697   1.815  11.245  0.7208 -0.0909 -0.0706
15423TIP3    H167684   3.698   1.894  11.299  1.8871 -0.1409  0.0027
15423TIP3    H267685   3.638   1.755  11.291  1.1194  0.1406  0.7571
15424TIP3   OH267686   1.208   1.691  11.315  0.2498  0.1381 -0.1176
15424TIP3    H167687   1.239   1.738  11.237 -0.5539 -0.8382 -1.0477
15424TIP3    H267688   1.274   1.624  11.331  0.4010  0.3213  0.0337
15425TIP3   OH267689   1.926   6.750   5.199  0.5631 -0.1077 -0.3317
15425TIP3    H167690   1.969   6.815   5.144  0.6347  0.3461  0.2501
15425TIP3    H267691   1.984   6.741   5.275  1.5185 -2.2070 -1.2220
15426TIP3   OH267692   5.045   1.011  15.405 -0.5633 -0.1489 -0.2701
15426TIP3    H167693   4.968   1.068  15.415 -0.4817 -0.3508  2.0220
15426TIP3    H267694   5.116   1.058  15.449  0.1830 -0.8111 -0.7269
15427TIP3   OH267695   4.389   0.034  14.358  0.8212  0.0754 -0.2028
15427TIP3    H167696   4.371   0.025  14.452  0.4045 -0.1940 -0.3090
15427TIP3    H267697   4.350   0.119  14.335  1.8252  0.6353  0.0802
15428TIP3   OH267698   6.437   2.393   1.179 -0.2947  0.2096  0.2546
15428TIP3    H167699   6.421   2.370   1.087  0.4789 -2.3688  0.6641
15428TIP3    H267700   6.360   2.361   1.225  0.3460 -0.6923  0.7395
15429TIP3   OH267701   1.054   0.489   0.079 -0.0994 -0.2918 -0.0109
15429TIP3    H167702   1.134   0.445   0.051 -0.4997 -0.4981 -0.8695
15429TIP3    H267703   1.000   0.419   0.114 -1.1923 -0.7652 -2.3960
15430TIP3   OH267704   3.056   3.445   2.687 -0.1416  0.2421 -0.3596
15430TIP3    H167705   3.080   3.519   2.743 -3.1797  0.1184  1.3227
15430TIP3    H267706   3.055   3.482   2.599  0.4294  1.6464  0.1795
15431TIP3   OH267707   4.855   6.346  10.455  0.7373  0.6191  0.0895
15431TIP3    H167708   4.860   6.441  10.460  2.0317  0.7039 -1.8084
15431TIP3    H267709   4.893   6.316  10.538 -0.4634  1.7126  1.0845
15432TIP3   OH267710   3.459   3.651   5.010 -0.0340  0.4047  0.6792
15432TIP3    H167711   3.528   3.588   4.989 -0.4703  0.6480 -1.7807
15432TIP3    H267712   3.504   3.735   5.015  0.0410  0.3782  0.4563
15433TIP3   OH267713   6.493   5.635  11.160 -0.0190 -0.4731  0.3435
15433TIP3    H167714   6.479   5.670  11.072 -1.2816  0.1845  0.7899
15433TIP3    H267715   6.438   5.557  11.164 -0.6594 -0.0026  0.8417
15434TIP3   OH267716   5.633   4.447   3.087 -0.9439 -0.3725 -0.3068
15434TIP3    H167717   5.684   4.390   3.029  0.2065 -0.9534  1.2054
15434TIP3    H267718   5.582   4.502   3.028 -0.6442 -1.6785 -1.8389
15435TIP3   OH267719   4.000   1.377  14.632  0.1670  0.4549  0.1958
15435TIP3    H167720   4.060   1.333  14.571 -0.3713  0.3620 -0.2722
15435TIP3    H267721   4.057   1.432  14.686  0.6849  0.3260 -0.2098
15436TIP3   OH267722   4.779   2.024   5.034 -0.0672  0.2958  0.5772
15436TIP3    H167723   4.843   2.048   4.967  0.9441 -1.2645  0.9241
15436TIP3    H267724   4.722   1.961   4.991 -1.5657  1.8272  0.2093
15437TIP3   OH267725   0.042   3.227  15.075  0.4324  0.3789  0.1005
15437TIP3    H167726  -0.001   3.150  15.038 -0.3236  0.9934 -0.3284
15437TIP3    H267727   0.116   3.243  15.016  1.0878 -0.5034  0.6677
15438TIP3   OH267728   0.329   4.070  13.955 -0.0307 -0.1520  0.5804
15438TIP3    H167729   0.397   4.137  13.944 -0.1309 -0.3518 -1.7694
15438TIP3    H267730   0.247   4.117  13.940 -0.1905 -0.5342  0.2437
15439TIP3   OH267731   3.853   2.779   2.457 -0.5229  0.0695 -0.0277
15439TIP3    H167732   3.911   2.789   2.381 -0.2803  0.3851  0.1943
15439TIP3    H267733   3.912   2.786   2.533 -0.9832  1.3664  0.2233
15440TIP3   OH267734   1.054   5.764  13.511  0.0500 -0.2498 -0.1560
15440TIP3    H167735   1.060   5.669  13.524  0.9038  0.0934  2.5029
15440TIP3    H267736   0.969   5.788  13.548  0.6663  0.2500  0.9582
15441TIP3   OH267737   4.573   2.642   3.176 -0.1377 -0.2519 -0.2617
15441TIP3    H167738   4.573   2.574   3.108 -1.3847 -0.8192  0.2736
15441TIP3    H267739   4.576   2.593   3.258  0.8301  0.4151  0.1113
15442TIP3   OH267740   5.412   4.435   2.901  0.0700 -0.2696  0.3807
15442TIP3    H167741   5.355   4.409   2.829 -2.8258  2.7365  1.3700
15442TIP3    H267742   5.422   4.355   2.954 -3.4043 -0.9499  0.1968
15443TIP3   OH267743   2.931   0.907  11.937 -0.3182 -0.2598 -0.5238
15443TIP3    H167744   2.841   0.906  11.902  0.2775  1.3637 -2.3242
15443TIP3    H267745   2.980   0.854  11.874 -0.0221 -1.3131  0.5732
15444TIP3   OH267746   5.189   1.194  11.930  0.2962 -0.2584 -0.2293
15444TIP3    H167747   5.182   1.201  12.025 -0.1397 -1.6638 -0.1382
15444TIP3    H267748   5.153   1.108  11.909  2.3442 -0.9150 -1.4284
15445TIP3   OH267749   6.151   1.797   0.622 -0.4255 -0.0948  0.2495
15445TIP3    H167750   6.085   1.857   0.655  0.3607 -0.7643  3.3620
15445TIP3    H267751   6.213   1.786   0.695  1.3361 -2.0018 -1.3832
15446TIP3   OH267752   6.652   4.066  13.312 -0.0894 -0.4502 -0.3165
15446TIP3    H167753   6.615   4.119  13.382  0.8972 -1.1439  0.7686
15446TIP3    H267754   6.747   4.071  13.325  0.0410 -2.2458 -0.3442
15447TIP3   OH267755   4.348   6.326  16.314  0.0177 -0.4673 -0.8338
15447TIP3    H167756   4.281   6.313  16.247 -0.7583  1.6115 -0.5351
15447TIP3    H267757   4.352   6.242  16.360 -3.0843 -0.4239 -0.2629
15448TIP3   OH267758   3.406   0.048  13.981 -0.6188  0.1862  0.0892
15448TIP3    H167759   3.470   0.077  13.916  0.0093 -1.2855  0.0058
15448TIP3    H267760   3.450   0.062  14.066 -0.4629 -0.1870  0.0690
15449TIP3   OH267761   1.199   2.834   0.936 -0.1772  0.1182 -0.7356
15449TIP3    H167762   1.231   2.745   0.945  0.2204  0.1817 -1.4328
15449TIP3    H267763   1.156   2.836   0.850 -1.4607  0.2189 -0.1128
15450TIP3   OH267764   0.958   4.335  16.392 -0.2418  0.1438 -0.2821
15450TIP3    H167765   1.020   4.372  16.329  0.7914 -0.5844  0.2714
15450TIP3    H267766   0.903   4.275  16.341  0.8159 -0.7100 -0.4551
15451TIP3   OH267767   3.413   3.495   0.274 -0.2763  0.4334 -0.0410
15451TIP3    H167768   3.406   3.400   0.273 -0.0158  0.4070 -1.6456
15451TIP3    H267769   3.324   3.526   0.291 -0.5896 -0.0883 -0.7072
15452TIP3   OH267770   2.635   1.829  11.125 -0.3160 -0.2441 -0.1012
15452TIP3    H167771   2.577   1.787  11.060 -2.6986  1.0303  1.0631
15452TIP3    H267772   2.721   1.830  11.083 -1.6662  0.1881 -3.1135
15453TIP3   OH267773   2.112   3.127   0.805 -0.3876  0.4233 -0.1292
15453TIP3    H167774   2.162   3.121   0.887 -0.0192  1.2467 -0.2814
15453TIP3    H267775   2.022   3.144   0.833 -0.2750  0.6359  0.1102
15454TIP3   OH267776   3.559   6.208  13.575 -0.3257  0.7104 -0.5530
15454TIP3    H167777   3.647   6.244  13.590 -0.0553 -0.2229  0.1722
15454TIP3    H267778   3.501   6.267  13.622  0.0495  0.6215  0.0452
15455TIP3   OH267779   0.317   2.676  14.933 -0.0566 -0.1376 -0.4908
15455TIP3    H167780   0.378   2.750  14.926 -0.3728  0.1984  0.1147
15455TIP3    H267781   0.232   2.717  14.950 -0.1214 -0.6557  0.5261
15456TIP3   OH267782   5.097   4.860   2.220  0.2955  0.3165 -0.5554
15456TIP3    H167783   5.018   4.903   2.253  0.0466 -0.4913 -0.0624
15456TIP3    H267784   5.142   4.830   2.299  0.4151 -0.4022 -0.8920
15457TIP3   OH267785   5.865   0.790  11.090  0.3928 -0.2029  0.8052
15457TIP3    H167786   5.938   0.786  11.151 -0.0565  0.7994  1.4518
15457TIP3    H267787   5.806   0.855  11.129  1.1770  2.3211 -1.8537
15458TIP3   OH267788   0.770   0.967   3.152 -0.2482  0.2552  0.6535
15458TIP3    H167789   0.768   0.954   3.057 -1.0781  2.1478  0.3825
15458TIP3    H267790   0.851   0.923   3.180 -0.2595 -0.7935 -0.8277
15459TIP3   OH267791   0.266   2.653   3.764  0.0750 -0.0263  0.6120
15459TIP3    H167792   0.195   2.711   3.736 -1.6670 -2.8328 -1.3128
15459TIP3    H267793   0.254   2.644   3.858 -1.9083 -0.0795  0.3947
15460TIP3   OH267794   3.538   1.160   0.841  0.0424  0.4026 -0.1114
15460TIP3    H167795   3.534   1.204   0.756  0.2226 -1.4336 -1.1182
15460TIP3    H267796   3.631   1.141   0.853  0.1011  1.1953  0.8185
15461TIP3   OH267797   5.834   2.002   4.003 -0.2314  0.0382 -0.1553
15461TIP3    H167798   5.904   2.046   3.955 -1.7614 -0.4361 -2.9920
15461TIP3    H267799   5.872   1.919   4.031  1.0612  0.8459  0.6124
15462TIP3   OH267800   0.708   2.371  16.855 -0.2571 -0.2978 -0.1572
15462TIP3    H167801   0.686   2.352  16.764  0.2778 -1.6513 -0.0324
15462TIP3    H267802   0.801   2.397  16.852 -1.1925  3.7958 -0.4772
15463TIP3   OH267803   0.747   3.565   5.241  0.1152  0.1699  0.3313
15463TIP3    H167804   0.830   3.518   5.242 -1.0024 -1.9633 -0.6023
15463TIP3    H267805   0.748   3.614   5.158 -0.4996 -1.8079 -0.9186
15464TIP3   OH267806   5.419   3.586  11.577 -0.1836 -0.6179 -0.2737
15464TIP3    H167807   5.403   3.561  11.486 -2.2010  0.1364 -0.1792
15464TIP3    H267808   5.504   3.547  11.598  0.4996 -0.5035 -2.5739
15465TIP3   OH267809   3.620   1.366  15.706  0.7462 -0.6315  0.3779
15465TIP3    H167810   3.528   1.393  15.707  0.5237 -1.3330  0.1219
15465TIP3    H267811   3.637   1.337  15.796  0.3335 -1.6831  0.1315
15466TIP3   OH267812   6.508   6.032  12.698  0.4515 -0.0167  0.2044
15466TIP3    H167813   6.587   6.047  12.646  1.7971 -1.8436  1.5628
15466TIP3    H267814   6.457   5.969  12.646  1.8512 -1.9389  1.0454
15467TIP3   OH267815   5.913   2.838  14.332  0.3541 -0.1963 -0.3093
15467TIP3    H167816   5.828   2.841  14.290  1.5105 -1.7194 -2.9827
15467TIP3    H267817   5.913   2.913  14.392 -2.2420  0.7506 -1.3757
15468TIP3   OH267818   4.431   6.154  12.402 -0.2505 -0.1364  0.6322
15468TIP3    H167819   4.423   6.175  12.309 -0.8380 -0.0748  0.6931
15468TIP3    H267820   4.451   6.061  12.405  0.4561  0.0024  0.4244
15469TIP3   OH267821   5.253   6.438  14.050 -0.0110  0.3016 -0.1820
15469TIP3    H167822   5.262   6.413  13.958  1.0560 -0.2792  0.0574
15469TIP3    H267823   5.325   6.392  14.094 -1.4489 -0.7472  1.2079
15470TIP3   OH267824   0.451   0.779   4.055 -0.6118 -0.2120 -0.5225
15470TIP3    H167825   0.478   0.748   3.969  0.1731 -1.2924  0.0824
15470TIP3    H267826   0.524   0.832   4.085  0.4680 -2.2266  0.6526
15471TIP3   OH267827   0.654   3.937   4.189 -0.3005 -0.4937  0.4753
15471TIP3    H167828   0.646   3.953   4.284  0.2907  0.5832  0.3688
15471TIP3    H267829   0.736   3.981   4.165 -0.8043 -0.1535 -0.6595
15472TIP3   OH267830   6.716   6.602   0.551 -0.1341 -0.3677  0.2524
15472TIP3    H167831   6.737   6.631   0.640 -0.0553 -0.2403  0.1926
15472TIP3    H267832   6.800   6.575   0.514  0.2910  1.8883 -0.6296
15473TIP3   OH267833   1.035   4.684   1.862 -0.2076 -0.0855  0.3690
15473TIP3    H167834   0.949   4.663   1.825 -0.9319 -0.1274  1.9844
15473TIP3    H267835   1.052   4.612   1.923  0.9734 -0.0528  0.0873
15474TIP3   OH267836   6.054   6.294  12.190  0.5224  0.0045  0.0924
15474TIP3    H167837   5.976   6.328  12.233 -0.0773 -0.0081 -0.9658
15474TIP3    H267838   6.021   6.241  12.117  1.5033 -0.4058 -0.0705
15475TIP3   OH267839   1.078   2.997  10.963 -0.2133  0.0626  0.6825
15475TIP3    H167840   1.053   2.923  11.019  1.2377 -2.1088 -1.3768
15475TIP3    H267841   1.005   3.007  10.902  0.1572 -0.5613  0.1302
15476TIP3   OH267842   6.303   4.404  12.075  0.2496 -0.0397 -0.7047
15476TIP3    H167843   6.296   4.453  11.993  0.0544  0.9133 -0.1385
15476TIP3    H267844   6.332   4.469  12.139 -0.0696 -0.6563  0.0846
15477TIP3   OH267845   0.407   3.707  14.647 -0.2797  0.4093  0.1483
15477TIP3    H167846   0.403   3.775  14.714 -0.9812  0.2688  0.2561
15477TIP3    H267847   0.350   3.638  14.680 -0.3451  0.1825 -0.4302
15478TIP3   OH267848   5.950   4.076  13.992 -0.0625 -0.1193 -0.1202
15478TIP3    H167849   5.868   4.050  14.033 -0.4319  0.5177 -0.4382
15478TIP3    H267850   6.017   4.027  14.039 -0.3365  1.4926  2.0730
15479TIP3   OH267851   3.032   1.332  15.490 -0.0569  0.0542 -0.4666
15479TIP3    H167852   3.089   1.279  15.433 -0.0735 -0.0419 -0.3943
15479TIP3    H267853   2.964   1.271  15.518  0.9159 -0.3960  1.0726
15480TIP3   OH267854   3.606   6.284   2.558 -0.4672  0.1023  0.4743
15480TIP3    H167855   3.631   6.207   2.608  2.7723  0.8686  0.2648
15480TIP3    H267856   3.568   6.344   2.622 -0.7909 -0.7302  1.0728
15481TIP3   OH267857   1.449   0.304  11.403  0.1333  0.1907 -0.0332
15481TIP3    H167858   1.372   0.357  11.420  0.1466  0.7091 -1.4657
15481TIP3    H267859   1.516   0.367  11.374  0.9343 -0.3121  0.6617
15482TIP3   OH267860   6.615   0.942   6.051  0.1939 -0.8374  0.0204
15482TIP3    H167861   6.710   0.942   6.035  0.1268  2.2548 -1.1029
15482TIP3    H267862   6.605   0.986   6.135 -0.2818 -0.3598 -0.2874
15483TIP3   OH267863   0.670   1.161   4.864  0.2172  0.4656 -0.2596
15483TIP3    H167864   0.598   1.182   4.924 -0.7740 -1.2013 -0.8104
15483TIP3    H267865   0.748   1.194   4.909 -0.6023  0.2014  1.4718
15484TIP3   OH267866   2.216   0.277   1.252 -0.2312  0.3360  0.2910
15484TIP3    H167867   2.201   0.191   1.290 -0.7817 -0.5097 -1.6857
15484TIP3    H267868   2.309   0.295   1.269  0.4286 -1.5850 -0.9475
15485TIP3   OH267869   1.768   6.313  10.703 -0.3358  0.1398 -0.3750
15485TIP3    H167870   1.827   6.249  10.662 -0.1583 -0.6034  0.9941
15485TIP3    H267871   1.691   6.314  10.647  0.1452 -0.3911 -1.0681
15486TIP3   OH267872   6.750   4.413  12.909  0.1792  0.1511  0.1732
15486TIP3    H167873   6.838   4.449  12.923 -0.4023  1.6186  0.3049
15486TIP3    H267874   6.746   4.336  12.965  1.3687  0.0601  0.1703
15487TIP3   OH267875   3.551   6.642   6.023 -0.3042  0.2068 -0.4469
15487TIP3    H167876   3.564   6.661   6.116  0.5677  0.6282 -0.6460
15487TIP3    H267877   3.531   6.727   5.984 -2.2968 -0.1956 -0.4020
15488TIP3   OH267878   2.503   4.591  14.231 -0.8393  0.2449  0.1293
15488TIP3    H167879   2.554   4.640  14.295 -0.1444 -2.3683  1.6844
15488TIP3    H267880   2.432   4.651  14.207  0.6886  2.4772  0.8934
15489TIP3   OH267881   6.021   1.169   5.778  0.4565  0.3007  0.2227
15489TIP3    H167882   6.073   1.113   5.720 -1.8630  0.2294 -1.9550
15489TIP3    H267883   5.934   1.130   5.778 -0.4815  2.2411  1.0451
15490TIP3   OH267884   1.756   0.393   1.154  0.0653 -0.1328  0.4900
15490TIP3    H167885   1.837   0.350   1.126  1.0540  2.4079 -0.8685
15490TIP3    H267886   1.691   0.367   1.089  0.3906 -0.3186  0.2362
15491TIP3   OH267887   6.067   0.309   5.084 -0.0597 -0.2505 -0.0955
15491TIP3    H167888   6.015   0.245   5.035 -2.4913  0.1221  1.8163
15491TIP3    H267889   6.040   0.394   5.050  0.3532 -0.0959 -0.0423
15492TIP3   OH267890   5.080   0.063   2.511  0.6793 -0.2428 -0.1822
15492TIP3    H167891   5.100   0.101   2.596 -0.1888  1.8507 -0.8536
15492TIP3    H267892   4.989   0.088   2.494  0.7920 -0.7056 -1.6765
15493TIP3   OH267893   5.466   1.689  12.121 -0.5424 -0.7629  0.4765
15493TIP3    H167894   5.541   1.639  12.089 -0.6233 -1.1573  0.8844
15493TIP3    H267895   5.402   1.683  12.050 -0.1220 -0.2608  0.0468
15494TIP3   OH267896   3.894   1.242   4.294 -0.4370 -0.3731  0.0743
15494TIP3    H167897   3.859   1.156   4.316  0.1690 -0.9350 -1.0816
15494TIP3    H267898   3.983   1.242   4.329 -0.2889 -0.3785 -0.2985
15495TIP3   OH267899   6.134   3.382  13.939  0.6441  0.1667 -0.2602
15495TIP3    H167900   6.132   3.422  14.026 -0.6063 -3.1450  1.4164
15495TIP3    H267901   6.223   3.345  13.931  0.0580 -1.5735  0.7406
15496TIP3   OH267902   0.919   1.128   4.687  0.0858  0.2362  0.1554
15496TIP3    H167903   0.940   1.040   4.718 -2.1380 -1.2630 -2.1710
15496TIP3    H267904   0.886   1.173   4.765  0.6672 -1.2028  1.2814
15497TIP3   OH267905   3.991   4.900   5.823  0.6217  0.3785 -0.0386
15497TIP3    H167906   3.896   4.889   5.828  0.6619 -0.0966 -0.2547
15497TIP3    H267907   4.016   4.851   5.745  0.8554  1.8002 -0.8800
15498TIP3   OH267908   4.903   0.684  15.540  0.2799 -0.6273 -0.0384
15498TIP3    H167909   4.869   0.671  15.451 -1.6394  0.3151  0.5003
15498TIP3    H267910   4.913   0.778  15.548 -1.6417 -0.4735  1.3942
15499TIP3   OH267911   5.753   5.586   3.365 -0.1469  0.4307  0.1976
15499TIP3    H167912   5.807   5.580   3.443  0.3791 -1.0933 -0.2530
15499TIP3    H267913   5.801   5.645   3.307  0.6041 -0.2185  0.1448
15500TIP3   OH267914   4.376   2.480  14.488  0.5479 -0.4849  0.5833
15500TIP3    H167915   4.392   2.388  14.512  0.6526 -0.6844 -0.2174
15500TIP3    H267916   4.403   2.485  14.396  1.1864  0.5132  0.8114
15501TIP3   OH267917   1.416   5.520   2.836  0.3743 -0.5113 -1.5018
15501TIP3    H167918   1.510   5.505   2.844  0.2234 -2.2236 -2.4580
15501TIP3    H267919   1.407   5.614   2.825  1.6174  0.3237  2.7724
15502TIP3   OH267920   0.666   5.508  12.719  0.2601  0.2369 -0.1627
15502TIP3    H167921   0.704   5.437  12.770 -0.4549  2.0771  3.2091
15502TIP3    H267922   0.638   5.466  12.638  6.0506 -1.9821 -1.5751
15503TIP3   OH267923   3.506   5.992   5.941  0.5112  0.2250 -0.6199
15503TIP3    H167924   3.457   6.049   6.001  3.6949  0.9985  1.4938
15503TIP3    H267925   3.489   5.903   5.973  0.2226  0.4604 -0.1109
15504TIP3   OH267926   0.360   6.058  14.136  0.2875 -0.1250  0.1825
15504TIP3    H167927   0.360   6.154  14.145 -0.6909  0.0467 -1.2642
15504TIP3    H267928   0.291   6.040  14.072 -0.3977 -1.9038  1.3556
15505TIP3   OH267929   5.328   4.178  11.712  0.2141 -0.0923 -0.3803
15505TIP3    H167930   5.342   4.122  11.636  1.5880  0.7576 -0.7866
15505TIP3    H267931   5.386   4.253  11.698 -0.4083  0.6670  0.9167
15506TIP3   OH267932   2.423   6.777   5.913 -0.3927 -0.7927 -0.0641
15506TIP3    H167933   2.463   6.695   5.883 -0.2600 -0.7111 -0.1083
15506TIP3    H267934   2.482   6.810   5.980 -1.3836 -1.6836  1.3034
15507TIP3   OH267935   0.553   2.960   2.612 -0.1424  0.2566 -0.2531
15507TIP3    H167936   0.479   3.019   2.599 -2.4602 -2.2121  0.9286
15507TIP3    H267937   0.548   2.934   2.703  0.8785 -1.6449 -0.6969
15508TIP3   OH267938   1.557   5.793   4.237  0.0342 -0.1854  0.7350
15508TIP3    H167939   1.577   5.706   4.273 -0.0119  0.0247  1.2641
15508TIP3    H267940   1.567   5.853   4.310 -2.9056 -0.0947  1.1611
15509TIP3   OH267941   2.283   0.373  11.322 -0.6478  0.1297  0.2880
15509TIP3    H167942   2.359   0.364  11.380  0.8065 -0.5553 -1.5912
15509TIP3    H267943   2.272   0.467  11.311  2.7326  0.3979 -2.6686
15510TIP3   OH267944   2.091   2.879  11.847  0.2111 -0.1371  0.1914
15510TIP3    H167945   2.094   2.845  11.757 -1.2566  1.0273 -0.3382
15510TIP3    H267946   2.143   2.960  11.844  0.1217 -0.0722  0.3828
15511TIP3   OH267947   4.596   2.194  10.839  0.1264  0.1048  0.5392
15511TIP3    H167948   4.662   2.125  10.837  0.0534 -0.0016  1.4701
15511TIP3    H267949   4.535   2.170  10.769  1.4390  0.6032 -0.8212
15512TIP3   OH267950   5.450   3.538   1.972 -0.4344 -0.1399 -0.2547
15512TIP3    H167951   5.426   3.561   1.882  1.6117 -2.9469 -1.6790
15512TIP3    H267952   5.438   3.443   1.977  0.6088 -0.2235  2.0934
15513TIP3   OH267953   5.307   4.570  10.452  0.1914  0.0616 -0.0512
15513TIP3    H167954   5.389   4.619  10.457  0.2529  0.2033 -1.7381
15513TIP3    H267955   5.238   4.636  10.456  0.2018  0.0636  0.0828
15514TIP3   OH267956   4.844   1.373  11.358  0.4229  0.1535 -0.3378
15514TIP3    H167957   4.886   1.345  11.276  3.3106  2.3093  0.2533
15514TIP3    H267958   4.889   1.323  11.426  0.3784  0.7907  0.1634
15515TIP3   OH267959   5.596   5.204   1.270  0.1892 -0.2717  0.9608
15515TIP3    H167960   5.679   5.197   1.222 -0.7694 -2.2528 -0.5627
15515TIP3    H267961   5.532   5.162   1.213 -2.1785  2.3226  1.4940
15516TIP3   OH267962   6.271   6.749   1.121  0.3862 -0.2168 -0.1609
15516TIP3    H167963   6.242   6.799   1.044 -2.0571 -0.4837  0.5034
15516TIP3    H267964   6.346   6.699   1.089  1.3177  1.8917 -1.5378
15517TIP3   OH267965   4.373   3.164  16.069 -0.2224 -0.2724 -0.3966
15517TIP3    H167966   4.309   3.138  16.002  1.2192  0.3287 -2.1004
15517TIP3    H267967   4.403   3.081  16.106 -0.5822 -0.6633 -0.9543
15518TIP3   OH267968   6.420   2.975  11.418  0.4561 -0.0681  1.1709
15518TIP3    H167969   6.441   2.888  11.385 -0.2691 -0.5340  1.9133
15518TIP3    H267970   6.326   2.973  11.433  0.1842  1.2757 -0.0486
15519TIP3   OH267971   0.826   3.702   0.436  0.0285  0.4570 -0.2956
15519TIP3    H167972   0.795   3.668   0.520 -0.1470 -3.1767 -1.6382
15519TIP3    H267973   0.760   3.674   0.372  1.4023  0.8361 -1.9674
15520TIP3   OH267974   4.675   4.473  13.116 -0.5516  0.1206  0.2839
15520TIP3    H167975   4.592   4.467  13.163 -0.2052  1.7662  1.1793
15520TIP3    H267976   4.739   4.435  13.176 -0.5254 -0.4266 -0.0809
15521TIP3   OH267977   1.320   6.032  15.920  0.0816  0.2864  1.0299
15521TIP3    H167978   1.358   6.093  15.857 -0.6565 -0.3640 -0.0854
15521TIP3    H267979   1.296   5.955  15.868 -2.0135  0.3536  1.7807
15522TIP3   OH267980   1.140   1.823  11.740 -0.1712 -0.0693 -0.0390
15522TIP3    H167981   1.178   1.778  11.816  1.6514 -0.4642 -1.1245
15522TIP3    H267982   1.209   1.882  11.710 -1.3636  1.0913 -0.5996
15523TIP3   OH267983   1.913   6.201   4.866  0.6603 -0.7364  0.0528
15523TIP3    H167984   1.972   6.181   4.938 -1.8479 -2.2218  1.8227
15523TIP3    H267985   1.884   6.116   4.834 -1.3610 -0.0847  0.0075
15524TIP3   OH267986   0.767   0.985   1.739 -0.4343 -0.1216  0.2343
15524TIP3    H167987   0.845   0.977   1.684 -0.8101  0.1265 -0.3430
15524TIP3    H267988   0.799   0.970   1.828 -0.2727 -3.4733 -0.2475
15525TIP3   OH267989   4.247   3.782   2.827  0.1599  1.0816 -0.3161
15525TIP3    H167990   4.335   3.818   2.815  0.7399 -0.4035 -0.8359
15525TIP3    H267991   4.233   3.727   2.749 -1.1554  1.1464 -0.1468
15526TIP3   OH267992   4.343   5.482  15.384 -0.0526  0.4820 -0.2842
15526TIP3    H167993   4.380   5.478  15.473 -0.1664 -2.8927 -0.2393
15526TIP3    H267994   4.359   5.571  15.355 -0.3794  1.8533  3.2655
15527TIP3   OH267995   2.502   2.902  13.824  0.2692  0.0573 -0.6201
15527TIP3    H167996   2.494   2.814  13.787 -1.4605 -1.8142  3.5895
15527TIP3    H267997   2.596   2.917  13.830  0.6307 -2.0643 -0.3254
15528TIP3   OH267998   2.107   4.401  12.754 -0.0324 -0.5222  0.2652
15528TIP3    H167999   2.097   4.421  12.847 -0.6474 -0.7917  0.2604
15528TIP3    H268000   2.194   4.363  12.747  0.5513  0.7114  0.5180
15529TIP3   OH268001   2.767   4.965  15.894 -0.1829 -0.7656 -0.5225
15529TIP3    H168002   2.827   4.917  15.836  1.3692 -1.8424  1.8221
15529TIP3    H268003   2.800   4.948  15.982 -2.6190  0.5405  0.7469
15530TIP3   OH268004   3.352   0.990   4.728  0.2812  0.3200 -0.2119
15530TIP3    H168005   3.412   1.054   4.763 -0.3447  1.2453 -0.7872
15530TIP3    H268006   3.363   0.995   4.633 -0.1467 -0.0474 -0.2903
15531TIP3   OH268007   1.511   1.603  16.680 -0.2638 -0.1316  0.3813
15531TIP3    H168008   1.463   1.520  16.680 -0.6107  0.0683  0.2393
15531TIP3    H268009   1.596   1.581  16.718 -0.7172 -0.3358  1.2930
15532TIP3   OH268010   0.024   0.484   2.173 -0.2116  0.0979  0.0309
15532TIP3    H168011   0.001   0.506   2.082  2.2076 -0.6824 -0.8459
15532TIP3    H268012   0.021   0.567   2.219  2.1555  1.2510 -1.6717
15533TIP3   OH268013   4.110   3.118   0.703 -0.5455  0.1245 -0.0970
15533TIP3    H168014   4.121   3.127   0.608  0.8127 -0.9262 -0.0683
15533TIP3    H268015   4.016   3.129   0.717 -0.8370 -0.1591 -1.6209
15534TIP3   OH268016   5.478   3.038  11.994 -0.2143 -0.0993 -0.1001
15534TIP3    H168017   5.567   3.034  11.959 -0.4120  1.4309 -0.8429
15534TIP3    H268018   5.483   3.099  12.067 -0.5385 -0.5234  0.2873
15535TIP3   OH268019   6.216   3.192   0.794 -0.3994 -0.3072 -0.0079
15535TIP3    H168020   6.192   3.276   0.834  0.8163  0.1595 -0.2366
15535TIP3    H268021   6.223   3.131   0.868  0.5006  0.2267  0.3548
15536TIP3   OH268022   2.528   0.296   6.154 -0.0400  0.1984 -0.0689
15536TIP3    H168023   2.456   0.323   6.211 -0.5609 -0.8701 -0.1955
15536TIP3    H268024   2.522   0.200   6.151  0.5620  0.1796 -1.1549
15537TIP3   OH268025   3.593   6.361   0.993 -0.4595 -0.7557  0.3476
15537TIP3    H168026   3.579   6.300   1.065 -0.3266 -0.8611  0.2859
15537TIP3    H268027   3.526   6.429   1.005 -0.9272 -1.1724  0.1355
15538TIP3   OH268028   6.326   3.894   6.231  0.5528 -0.0342  0.6353
15538TIP3    H168029   6.415   3.920   6.254  0.5761  0.4671 -0.0015
15538TIP3    H268030   6.274   3.974   6.240  0.6078  0.2442 -1.2223
15539TIP3   OH268031   6.049   5.891   6.113  0.2362  0.5020 -0.3514
15539TIP3    H168032   6.028   5.950   6.041  1.0531 -1.1719 -2.0305
15539TIP3    H268033   6.092   5.947   6.178 -0.6122  2.0681 -1.0865
15540TIP3   OH268034   1.642   6.082  11.181 -0.0963 -0.7141  0.1051
15540TIP3    H168035   1.729   6.041  11.183  0.2769 -0.1310  3.6798
15540TIP3    H268036   1.654   6.161  11.129  2.0823  0.2483  1.8913
15541TIP3   OH268037   3.810   3.596  16.497 -0.0141 -0.0298  0.4373
15541TIP3    H168038   3.786   3.679  16.538  0.1965 -0.2762  1.0823
15541TIP3    H268039   3.905   3.591  16.506 -0.2233 -1.4598  2.6854
15542TIP3   OH268040   4.054   2.629  14.020 -0.2365 -0.2929 -0.0297
15542TIP3    H168041   4.073   2.539  13.993 -1.5584 -0.4648 -0.4584
15542TIP3    H268042   4.124   2.681  13.981  2.1172 -1.3632  2.3571
15543TIP3   OH268043   1.682   5.343  13.338 -0.1616  0.3432 -0.2595
15543TIP3    H168044   1.705   5.319  13.428  1.6106  2.3885 -0.0750
15543TIP3    H268045   1.622   5.274  13.309  1.7917 -2.1937  1.3193
15544TIP3   OH268046   0.443   1.011   2.306  0.1484 -0.1840 -0.0036
15544TIP3    H168047   0.507   1.079   2.324  1.4139 -1.0447 -1.0904
15544TIP3    H268048   0.414   0.981   2.392  0.5890  0.7764  0.4886
15545TIP3   OH268049   0.199   3.600  14.881 -0.0430  0.2786 -0.5336
15545TIP3    H168050   0.194   3.634  14.970  1.0486 -0.8499 -0.0239
15545TIP3    H268051   0.227   3.509  14.891  1.5654  0.5598 -2.0971
15546TIP3   OH268052   2.359   4.982   3.959  0.3459  0.0989 -0.3685
15546TIP3    H168053   2.332   5.015   3.873  1.2874  0.7010 -0.4498
15546TIP3    H268054   2.327   5.047   4.021 -2.9982 -1.7796  0.1175
15547TIP3   OH268055   1.151   0.441   1.669 -0.7526 -0.4104  0.4156
15547TIP3    H168056   1.097   0.517   1.690 -1.1388 -0.8313  0.9832
15547TIP3    H268057   1.210   0.432   1.744 -1.3590 -1.2313  0.8224
15548TIP3   OH268058   4.566   2.698  12.009  0.1323 -1.0266 -0.1223
15548TIP3    H168059   4.601   2.709  12.098  0.4474 -0.2258 -0.3398
15548TIP3    H268060   4.642   2.672  11.957 -0.2745 -2.7127  0.0506
15549TIP3   OH268061   1.490   6.618  16.720 -0.8742 -0.1635  0.1150
15549TIP3    H168062   1.567   6.621  16.777  0.3347 -0.8469 -1.4188
15549TIP3    H268063   1.463   6.710  16.712  0.1432  0.1620  0.2119
15550TIP3   OH268064   5.603   5.624  12.158  0.5977  0.2134 -0.0441
15550TIP3    H168065   5.682   5.610  12.106  1.2895  2.9993  0.0838
15550TIP3    H268066   5.531   5.607  12.098  1.3036 -0.5716 -0.6925
15551TIP3   OH268067   4.627   3.236  12.503  0.6221  0.2881  0.5365
15551TIP3    H168068   4.614   3.183  12.425  0.1137  0.2391  0.6513
15551TIP3    H268069   4.712   3.209  12.537  1.2063  0.8779 -0.4387
15552TIP3   OH268070   1.114   6.777   0.184  0.1431  0.1605  0.4882
15552TIP3    H168071   1.145   6.865   0.204  0.6598 -0.2805  1.8187
15552TIP3    H268072   1.131   6.728   0.265 -0.3622 -1.0889 -0.1420
15553TIP3   OH268073   2.363   6.017   4.968  1.0775 -0.0387  0.2236
15553TIP3    H168074   2.378   5.927   4.997 -4.1084 -1.1058  0.5257
15553TIP3    H268075   2.348   6.066   5.049  1.0346  0.4009 -0.0480
15554TIP3   OH268076   4.275   5.326   0.463  0.0193 -0.1627 -0.7800
15554TIP3    H168077   4.220   5.316   0.541  1.8066 -1.6566  0.3828
15554TIP3    H268078   4.217   5.306   0.390 -1.1841 -0.8559  0.3193
15555TIP3   OH268079   0.275   5.297  14.952 -0.4662 -0.0416  0.4093
15555TIP3    H168080   0.186   5.302  14.987 -0.3339 -1.3964  0.9969
15555TIP3    H268081   0.324   5.362  15.001 -0.6133 -0.9194  1.7938
15556TIP3   OH268082   6.408   2.345  15.418  0.2492 -0.6602 -0.7146
15556TIP3    H168083   6.447   2.418  15.468 -0.0545 -0.6569 -0.4796
15556TIP3    H268084   6.348   2.387  15.357  0.7762 -0.6487 -1.2383
15557TIP3   OH268085   0.156   1.840   4.261  0.2997  0.3409 -0.3346
15557TIP3    H168086   0.168   1.927   4.224 -0.3734  0.6975  0.2605
15557TIP3    H268087   0.231   1.828   4.319  0.1303  0.7279 -0.0344
15558TIP3   OH268088   5.933   1.660  13.407  0.2710 -0.5786 -0.0706
15558TIP3    H168089   5.963   1.732  13.351 -0.8372  1.2277  1.5144
15558TIP3    H268090   5.841   1.682  13.426  0.1295 -2.0284  1.0692
15559TIP3   OH268091   3.272   1.592  10.387  0.3750 -0.3349 -0.0527
15559TIP3    H168092   3.283   1.578  10.481  2.6644 -0.4762 -0.2745
15559TIP3    H268093   3.223   1.516  10.357 -1.3631  0.2541  1.1502
15560TIP3   OH268094   6.037   5.734  11.882 -0.0491  0.5336 -0.0077
15560TIP3    H168095   6.123   5.703  11.913 -0.0112  1.8233  1.3004
15560TIP3    H268096   6.004   5.662  11.828  1.0761 -0.7546  0.9250
15561TIP3   OH268097   6.147   4.400   0.757 -0.7500 -0.4759 -0.3045
15561TIP3    H168098   6.100   4.444   0.687 -0.3762 -0.7030 -0.7062
15561TIP3    H268099   6.158   4.310   0.726 -2.6113 -1.2169  1.0411
15562TIP3   OH268100   6.446   6.565  13.159 -0.0729  0.5839  0.7598
15562TIP3    H168101   6.402   6.646  13.132  0.3520  0.8666  0.8978
15562TIP3    H268102   6.539   6.588  13.160  0.1685 -0.2818 -0.4956
15563TIP3   OH268103   6.630   1.830   0.778 -0.0847  0.2522  0.6362
15563TIP3    H168104   6.541   1.849   0.748 -0.1019 -1.5884 -0.5990
15563TIP3    H268105   6.619   1.757   0.839  0.8345 -2.4527 -2.2280
15564TIP3   OH268106   6.794   4.423   3.827  0.3957 -0.1530  0.4497
15564TIP3    H168107   6.770   4.386   3.742  0.2522 -1.6550  1.1159
15564TIP3    H268108   6.735   4.497   3.838 -0.3848 -0.6445 -0.2513
15565TIP3   OH268109   4.198   0.946  13.623  0.2107  0.0319 -0.2214
15565TIP3    H168110   4.245   0.941  13.706  0.3500 -1.5114 -0.3677
15565TIP3    H268111   4.105   0.950  13.649  0.2799  0.2461  0.0039
15566TIP3   OH268112   4.729   1.496   4.495  0.7749 -0.5951  0.1715
15566TIP3    H168113   4.639   1.524   4.479  1.6531  1.5568 -1.3188
15566TIP3    H268114   4.720   1.413   4.543 -1.9772 -0.7954 -0.5508
15567TIP3   OH268115   5.691   1.540  12.448  0.3195 -0.2331  0.1452
15567TIP3    H168116   5.746   1.560  12.524 -0.1598 -1.0419  0.7282
15567TIP3    H268117   5.725   1.596  12.378  0.4392  0.9216  1.0887
15568TIP3   OH268118   0.316   5.281  15.518  0.2169 -0.2860  0.6137
15568TIP3    H168119   0.391   5.226  15.495  1.1903  1.7671 -1.5830
15568TIP3    H268120   0.287   5.248  15.603  0.8690 -3.9420 -0.3963
15569TIP3   OH268121   6.562   4.879   0.292  0.4371 -0.1028  0.5188
15569TIP3    H168122   6.567   4.974   0.300  1.0639 -0.1506  0.7573
15569TIP3    H268123   6.652   4.852   0.273  0.0833 -0.5521 -0.6311
15570TIP3   OH268124   2.472   0.985   0.277 -0.0612  0.1170  0.5261
15570TIP3    H168125   2.554   1.034   0.274  0.4210 -0.6734 -1.0065
15570TIP3    H268126   2.404   1.051   0.282  0.6153  0.8932 -0.1590
15571TIP3   OH268127   6.483   4.630   6.522  0.0014  0.3994 -0.0702
15571TIP3    H168128   6.462   4.543   6.489  0.7085 -0.2962  1.2333
15571TIP3    H268129   6.401   4.663   6.559 -0.4408  0.6018 -1.1895
15572TIP3   OH268130   1.731   4.173   0.848  0.0240 -0.6908  0.3443
15572TIP3    H168131   1.719   4.221   0.930  1.7853  0.8255 -0.2165
15572TIP3    H268132   1.642   4.162   0.813 -0.4991  1.5262  0.8652
15573TIP3   OH268133   1.155   0.238   5.497 -0.1560  0.0831 -0.0539
15573TIP3    H168134   1.093   0.264   5.428 -0.7327  0.6495  0.6646
15573TIP3    H268135   1.185   0.152   5.469 -1.1000 -0.1104 -0.5471
15574TIP3   OH268136   0.823   5.286  16.250 -0.0389  0.0844 -0.1284
15574TIP3    H168137   0.871   5.361  16.286  0.8447 -1.5265  2.3222
15574TIP3    H268138   0.772   5.323  16.178  1.3020  2.7781  0.1601
15575TIP3   OH268139   0.411   3.249   2.772 -0.3589  1.0629 -0.4018
15575TIP3    H168140   0.410   3.209   2.859 -1.0599 -0.1945 -0.9593
15575TIP3    H268141   0.504   3.256   2.750 -0.1867  1.1289  0.3305
15576TIP3   OH268142   0.545   4.102  16.869  0.3343 -0.0087  0.0466
15576TIP3    H168143   0.520   4.193  16.886 -0.4772 -0.0404 -0.9236
15576TIP3    H268144   0.593   4.104  16.786  0.2845 -0.4674  0.0005
15577TIP3   OH268145   1.985   2.113  13.513  0.4416  0.3357  0.0292
15577TIP3    H168146   2.009   2.180  13.449 -1.1593  0.1742 -0.7857
15577TIP3    H268147   1.958   2.162  13.591  0.5491  0.6037 -0.1033
15578TIP3   OH268148   3.722   4.428  15.862  0.0589  0.5208  0.3053
15578TIP3    H168149   3.668   4.352  15.842 -0.6104  1.4476 -1.7513
15578TIP3    H268150   3.738   4.422  15.956 -1.5465 -1.1286  0.5408
15579TIP3   OH268151   5.249   3.626   3.811  0.1171 -0.1727 -0.6891
15579TIP3    H168152   5.290   3.685   3.873 -0.0063 -0.5093 -0.2825
15579TIP3    H268153   5.155   3.645   3.818  0.0272 -0.7924 -0.1575
15580TIP3   OH268154   1.104   2.103   2.231  0.3824 -0.4058 -0.4120
15580TIP3    H168155   1.096   2.037   2.163 -1.7088  1.0915 -1.7592
15580TIP3    H268156   1.149   2.176   2.189 -1.4105  0.7503 -0.4590
15581TIP3   OH268157   6.469   5.449   2.812  0.6388  0.0582 -0.1122
15581TIP3    H168158   6.434   5.415   2.895  0.2207  0.5288 -0.0876
15581TIP3    H268159   6.421   5.402   2.745  0.4468  0.2030 -0.0794
15582TIP3   OH268160   0.052   4.991  15.716 -0.2327  0.3241  0.6171
15582TIP3    H168161   0.115   5.059  15.737  0.0761  0.6253 -1.1164
15582TIP3    H268162   0.048   4.990  15.620 -1.1862 -1.2203  0.6274
15583TIP3   OH268163   5.466   0.743   2.047 -0.3844 -0.2861  0.5933
15583TIP3    H168164   5.498   0.824   2.008 -2.4084 -0.5040 -1.7359
15583TIP3    H268165   5.498   0.674   1.988  0.6896 -1.1735  2.1379
15584TIP3   OH268166   5.183   2.650   4.739  0.0107  0.2302  0.1439
15584TIP3    H168167   5.239   2.577   4.712  1.1543  1.3060 -0.5176
15584TIP3    H268168   5.233   2.728   4.714 -1.4965  1.2345  0.1757
15585TIP3   OH268169   4.593   2.192  11.866  0.4812  0.5596  0.6007
15585TIP3    H168170   4.530   2.165  11.934 -1.3489 -0.0949 -1.2573
15585TIP3    H268171   4.642   2.112  11.846  1.3183  0.8548  1.4167
15586TIP3   OH268172   6.214   0.255  12.528 -0.0381 -0.7369  0.6729
15586TIP3    H168173   6.237   0.216  12.444  0.0792 -1.2266  0.9329
15586TIP3    H268174   6.121   0.233  12.540  0.0497 -1.0016  0.8579
15587TIP3   OH268175   2.495   2.634   1.305 -0.4373 -0.3770 -0.2122
15587TIP3    H168176   2.481   2.540   1.295  0.5329 -0.4949 -0.5534
15587TIP3    H268177   2.586   2.642   1.334 -0.8789  0.3920  1.0605
15588TIP3   OH268178   5.427   6.093  11.852 -0.0391  0.0544  0.2591
15588TIP3    H168179   5.357   6.115  11.913 -0.2428  1.1954 -0.3643
15588TIP3    H268180   5.470   6.017  11.891 -0.4432  0.4887  1.5946
15589TIP3   OH268181   5.292   1.128  14.738  0.0438  0.4838 -0.3400
15589TIP3    H168182   5.346   1.143  14.816  0.4806 -3.2623  0.2838
15589TIP3    H268183   5.337   1.057  14.691 -1.9041  0.4520 -2.3101
15590TIP3   OH268184   1.165   2.461  12.966 -0.0476  0.0135 -0.6398
15590TIP3    H168185   1.149   2.415  13.049 -2.0420  1.9030  0.1135
15590TIP3    H268186   1.232   2.409  12.922  0.0647 -1.8160  1.5407
15591TIP3   OH268187   2.668   3.639   0.526 -0.4405 -0.5642 -0.2228
15591TIP3    H168188   2.573   3.647   0.528 -0.4580  0.1754 -1.9768
15591TIP3    H268189   2.699   3.701   0.592 -1.1775 -3.3221  2.9995
15592TIP3   OH268190   6.590   1.374   0.960 -0.7304 -0.5576 -0.0283
15592TIP3    H168191   6.534   1.300   0.984 -1.3828 -0.1956 -0.4068
15592TIP3    H268192   6.634   1.399   1.041 -0.4099 -1.4358  0.0767
15593TIP3   OH268193   2.038   3.612  16.418  0.7030  0.9616 -0.6386
15593TIP3    H168194   2.048   3.621  16.513 -2.5580  1.0940 -0.1938
15593TIP3    H268195   2.072   3.525  16.399 -0.4107  0.1043  1.0342
15594TIP3   OH268196   2.748   0.671  15.830 -0.0767  0.4648  0.1586
15594TIP3    H168197   2.687   0.654  15.759 -0.9895  1.1196  0.7536
15594TIP3    H268198   2.705   0.634  15.907 -0.2011  1.7745  0.7535
15595TIP3   OH268199   6.265   4.363  11.370 -0.2036 -0.0454 -0.6528
15595TIP3    H168200   6.235   4.297  11.432  0.2455  0.4027  0.0442
15595TIP3    H268201   6.347   4.327  11.335  0.5911  0.5952  0.4954
15596TIP3   OH268202   4.384   1.376  11.548 -0.6065  1.1167 -0.5541
15596TIP3    H168203   4.463   1.416  11.582  0.3702 -1.3809  0.3151
15596TIP3    H268204   4.394   1.380  11.452  0.5960  0.8500 -0.4535
15597TIP3   OH268205   5.264   6.314   5.448 -0.0961 -0.4926 -0.0376
15597TIP3    H168206   5.219   6.243   5.493  0.2321 -1.9391 -1.8785
15597TIP3    H268207   5.213   6.328   5.368 -0.5780  1.8937  0.5984
15598TIP3   OH268208   3.816   0.369  13.756  0.1793 -0.2428 -0.7614
15598TIP3    H168209   3.729   0.391  13.789  1.0164  2.4849 -0.1601
15598TIP3    H268210   3.841   0.290  13.805 -1.5593 -0.5302 -0.2893
15599TIP3   OH268211   6.325   5.637   0.161  0.0872 -0.2944  0.2232
15599TIP3    H168212   6.229   5.634   0.161  0.0118 -0.7452  2.8434
15599TIP3    H268213   6.352   5.546   0.165  0.6679 -0.1950 -1.1408
15600TIP3   OH268214   1.925   3.818  11.932  0.4533 -0.0155 -0.3393
15600TIP3    H168215   1.918   3.727  11.961  0.9751  0.1642  0.3745
15600TIP3    H268216   1.995   3.855  11.986 -0.4388  1.0906  0.0867
15601TIP3   OH268217   2.003   3.331   4.097 -0.6401 -0.1442 -0.9366
15601TIP3    H168218   2.082   3.287   4.130  1.8554  4.0115 -0.6644
15601TIP3    H268219   1.964   3.370   4.175 -1.4705 -0.0251 -1.4075
15602TIP3   OH268220   3.787   4.645   0.969 -0.5173 -0.4417 -0.0193
15602TIP3    H168221   3.801   4.552   0.949  0.4812  0.2653 -3.1751
15602TIP3    H268222   3.873   4.685   0.960 -1.1383  0.9740  0.0575
15603TIP3   OH268223   1.317   3.612  16.401 -0.8999 -0.5452  0.4293
15603TIP3    H168224   1.259   3.652  16.336 -0.8579 -0.4415  0.4551
15603TIP3    H268225   1.267   3.612  16.482 -1.2136 -1.3072  0.2467
15604TIP3   OH268226   3.124   3.295  11.282 -0.2991  0.2049  0.6537
15604TIP3    H168227   3.181   3.339  11.219 -0.8349  1.0060  0.7124
15604TIP3    H268228   3.127   3.350  11.360  0.9113 -1.1487  1.6186
15605TIP3   OH268229   5.118   3.063   4.025  0.1203 -0.1599  0.2926
15605TIP3    H168230   5.126   2.968   4.029  0.7756 -0.0817  1.0592
15605TIP3    H268231   5.091   3.081   3.935 -0.9402 -1.1274  0.3920
15606TIP3   OH268232   0.967   5.297   1.808  0.7964  0.3756 -0.3117
15606TIP3    H168233   0.996   5.221   1.758  1.9124  0.3662  0.3300
15606TIP3    H268234   1.036   5.362   1.795  0.5437  0.7712  0.2969
15607TIP3   OH268235   3.002   4.791   4.091  0.1535 -0.7646 -0.0162
15607TIP3    H168236   2.967   4.880   4.080 -1.4498 -1.1630  1.4198
15607TIP3    H268237   2.987   4.748   4.007  2.1139  0.6453 -1.1766
15608TIP3   OH268238   1.737   0.739   3.245 -0.0974 -0.3324 -0.5326
15608TIP3    H168239   1.780   0.665   3.202  0.2798  0.1434 -0.9958
15608TIP3    H268240   1.765   0.733   3.337 -0.0392 -0.7379 -0.5768
15609TIP3   OH268241   3.597   1.628   2.907  0.2603  0.9114 -0.0178
15609TIP3    H168242   3.687   1.622   2.940  0.1467  3.0183  0.8250
15609TIP3    H268243   3.607   1.632   2.812  0.9083 -0.5350 -0.0493
15610TIP3   OH268244   0.100   0.118  13.318  0.3805 -0.5406  0.0492
15610TIP3    H168245   0.151   0.063  13.259 -0.3633 -1.0576 -0.1343
15610TIP3    H268246   0.027   0.150  13.264  0.4168  0.0460  0.3435
15611TIP3   OH268247   4.858   5.673  15.518  0.0855  0.5309 -0.0813
15611TIP3    H168248   4.880   5.674  15.611  0.4518  0.2889 -0.1666
15611TIP3    H268249   4.883   5.586  15.488 -0.5723  0.4036 -0.2805
15612TIP3   OH268250   0.511   2.510   0.279  0.2623 -0.6891  0.4001
15612TIP3    H168251   0.429   2.482   0.239 -0.3958  1.5959 -0.0072
15612TIP3    H268252   0.560   2.551   0.208  0.6102  0.2873  1.1793
15613TIP3   OH268253   4.240   1.757   5.060  0.3003  0.2865  0.4980
15613TIP3    H168254   4.299   1.832   5.059 -1.1454  1.4928  1.5797
15613TIP3    H268255   4.152   1.795   5.066 -0.5472 -1.4742  0.0202
15614TIP3   OH268256   0.799   4.652  12.205  0.5369  0.3072 -0.7504
15614TIP3    H168257   0.812   4.699  12.122 -0.0496  0.4457 -0.7627
15614TIP3    H268258   0.751   4.573  12.181 -1.2186  1.2036 -0.3163
15615TIP3   OH268259   0.159   5.681  11.864  0.5235  0.1113 -0.3227
15615TIP3    H168260   0.129   5.619  11.798 -0.8845  0.2158  0.1804
15615TIP3    H268261   0.246   5.709  11.834  0.6114 -1.0924 -1.2370
15616TIP3   OH268262   5.201   5.585   3.040 -0.4330 -0.1110  0.3011
15616TIP3    H168263   5.151   5.563   3.119 -1.3064 -1.3334 -0.5583
15616TIP3    H268264   5.230   5.501   3.005  1.4493  0.5120  0.2373
15617TIP3   OH268265   3.569   4.892  13.759  0.1284  0.1120 -0.2928
15617TIP3    H168266   3.557   4.984  13.784 -0.6225 -0.0787  0.0924
15617TIP3    H268267   3.565   4.893  13.663 -2.1225  0.2329 -0.2647
15618TIP3   OH268268   0.108   2.959   1.981  0.3174  0.0765 -0.4850
15618TIP3    H168269   0.052   2.882   1.982 -0.2363  0.4705 -0.9316
15618TIP3    H268270   0.179   2.936   1.920  0.4920 -0.3118 -0.1402
15619TIP3   OH268271   0.267   5.423   2.805  0.5732 -0.7938 -0.3405
15619TIP3    H168272   0.220   5.379   2.875  1.8445 -0.6092  0.6771
15619TIP3    H268273   0.324   5.486   2.850 -0.8369  1.6289 -1.6768
15620TIP3   OH268274   2.608   3.842   4.593  0.0551 -0.3824 -0.1330
15620TIP3    H168275   2.516   3.829   4.614  0.0019  0.0567 -0.0768
15620TIP3    H268276   2.648   3.756   4.601 -0.4335 -0.6523 -0.5610
15621TIP3   OH268277   2.894   6.314   4.873  0.3902  0.3778 -0.3135
15621TIP3    H168278   2.852   6.325   4.958 -1.0982 -0.3548 -0.9107
15621TIP3    H268279   2.863   6.388   4.821 -1.4740 -0.9379 -1.2125
15622TIP3   OH268280   6.326   2.663   4.947 -0.0275  0.2273 -1.1430
15622TIP3    H168281   6.370   2.612   4.879 -0.2292  0.1377 -1.2049
15622TIP3    H268282   6.321   2.604   5.022 -1.6540 -0.3853 -1.7027
15623TIP3   OH268283   0.340   6.589   1.113  0.2762 -0.1951  0.1199
15623TIP3    H168284   0.359   6.549   1.198 -1.0743 -0.1830  0.4424
15623TIP3    H268285   0.307   6.676   1.134  0.9403  0.2189 -0.4828
15624TIP3   OH268286   5.965   4.785   1.294 -0.2871  0.0570 -0.2283
15624TIP3    H168287   6.017   4.739   1.227 -1.1382 -0.4107 -0.5877
15624TIP3    H268288   5.957   4.722   1.365  1.8130  1.0527  0.9618
15625TIP3   OH268289   4.368   2.498   4.221  0.0041  0.6031 -0.0734
15625TIP3    H168290   4.407   2.583   4.202  1.3131 -0.1188 -0.8069
15625TIP3    H268291   4.371   2.491   4.316 -0.3979  1.4893  0.0130
15626TIP3   OH268292   5.971   6.509   5.020  0.1744 -0.2038  0.2754
15626TIP3    H168293   5.954   6.575   5.087 -1.5462  0.0118 -0.3175
15626TIP3    H268294   6.066   6.499   5.020  0.2773  0.3326  2.2081
15627TIP3   OH268295   6.438   4.113   5.194 -0.1654 -0.6156  0.2103
15627TIP3    H168296   6.517   4.089   5.146  0.9548  2.1926  0.4533
15627TIP3    H268297   6.471   4.146   5.278 -1.6963 -0.5953  0.8255
15628TIP3   OH268298   1.549   0.423  12.600  0.3612 -0.2100  0.4740
15628TIP3    H168299   1.455   0.412  12.593  0.4318 -0.8995  0.5995
15628TIP3    H268300   1.565   0.511  12.564  0.0579 -1.4119 -3.0215
15629TIP3   OH268301   6.447   1.541  12.942  0.3038  0.9020  0.5299
15629TIP3    H168302   6.364   1.564  12.899  0.7351  1.8421  0.1845
15629TIP3    H268303   6.513   1.555  12.874  1.0262  2.6458  1.5511
15630TIP3   OH268304   1.193   5.543  12.133  0.0185 -0.2375 -0.1423
15630TIP3    H168305   1.164   5.617  12.080 -1.4731 -0.0593  0.8847
15630TIP3    H268306   1.266   5.578  12.185 -0.2592  0.3220 -0.1279
15631TIP3   OH268307   0.156   6.550   0.454 -0.3415  0.4380  0.2502
15631TIP3    H168308   0.199   6.631   0.484  2.3738 -0.8028  0.0128
15631TIP3    H268309   0.157   6.557   0.358  0.6674 -0.1868  0.1968
15632TIP3   OH268310   0.681   2.832   2.125  0.5732  0.2941  0.4150
15632TIP3    H168311   0.730   2.855   2.046 -0.0331 -1.8976 -0.6951
15632TIP3    H268312   0.694   2.906   2.184  3.3285  0.8077 -0.6651
15633TIP3   OH268313   6.177   1.057   5.164  0.2562 -0.2042  0.2042
15633TIP3    H168314   6.247   0.999   5.134 -0.5794 -1.9383  1.4854
15633TIP3    H268315   6.177   1.049   5.259 -0.5686  1.1196  0.3527
15634TIP3   OH268316   1.921   0.659  15.606  0.1511 -0.2625 -0.3900
15634TIP3    H168317   1.937   0.617  15.690 -3.5516 -1.0075  0.1452
15634TIP3    H268318   1.969   0.605  15.542  0.9834 -1.1917  0.9774
15635TIP3   OH268319   0.866   0.995   6.383  0.4390  0.6201 -0.5165
15635TIP3    H168320   0.917   1.058   6.331 -0.4397  0.5267 -1.5249
15635TIP3    H268321   0.787   1.043   6.409 -0.1758 -0.0020 -1.1768
15636TIP3   OH268322   0.781   2.934   6.598 -0.0920  0.2308  0.3502
15636TIP3    H168323   0.824   3.005   6.550 -0.0957  1.0939  1.5621
15636TIP3    H268324   0.739   2.978   6.672 -0.5831 -0.9795  0.8080
15637TIP3   OH268325   0.031   3.025  11.195 -0.3644 -0.0561  0.3794
15637TIP3    H168326   0.085   2.982  11.128  0.8869  2.1704 -0.1454
15637TIP3    H268327  -0.017   2.953  11.236  1.1652 -1.8750 -0.8000
15638TIP3   OH268328   2.838   5.247  16.572  0.3153  0.3355  0.2627
15638TIP3    H168329   2.843   5.153  16.586  0.5501  0.2766 -0.1906
15638TIP3    H268330   2.767   5.276  16.629 -0.3734 -0.2500 -0.2825
15639TIP3   OH268331   1.581   6.550  11.497  0.3325  0.3848  0.6042
15639TIP3    H168332   1.488   6.569  11.504  0.2299  0.0553  0.1348
15639TIP3    H268333   1.619   6.628  11.456 -0.3032 -0.9071 -2.7082
15640TIP3   OH268334   1.093   2.516  16.481  0.8149  0.1234 -0.2455
15640TIP3    H168335   1.125   2.503  16.570  1.1617  1.8537 -0.0856
15640TIP3    H268336   1.085   2.611  16.471 -2.1237 -0.0892 -1.0333
15641TIP3   OH268337   1.769   5.232   1.750 -0.7516 -0.2294  0.0343
15641TIP3    H168338   1.743   5.208   1.839  1.1453 -1.1065  0.4072
15641TIP3    H268339   1.713   5.179   1.693 -1.3665 -0.3368  0.7268
15642TIP3   OH268340   0.651   2.611   2.300 -0.4484  0.2683  0.4285
15642TIP3    H168341   0.686   2.662   2.373  1.4631  1.5843 -1.2831
15642TIP3    H268342   0.644   2.673   2.228 -0.9890 -1.2603 -0.9066
15643TIP3   OH268343   5.423   2.636   5.028  0.1930 -0.1755  0.4591
15643TIP3    H168344   5.421   2.729   5.047 -0.3675 -0.2113  0.5981
15643TIP3    H268345   5.371   2.596   5.097 -0.3453 -0.4931 -0.1188
15644TIP3   OH268346   5.787   0.760   5.164  0.0230  0.4561  0.3979
15644TIP3    H168347   5.701   0.723   5.145 -0.7330  2.5323 -0.4820
15644TIP3    H268348   5.814   0.803   5.083  1.0874  1.3771  1.2023
15645TIP3   OH268349   2.756   5.081  15.375 -0.0598 -0.0061  0.0423
15645TIP3    H168350   2.760   5.177  15.365 -1.2309  0.1795  1.0743
15645TIP3    H268351   2.781   5.066  15.466 -2.5684 -0.4041  0.7442
15646TIP3   OH268352   4.195   0.619  13.642  0.0498 -0.1298  0.1167
15646TIP3    H168353   4.278   0.572  13.641 -0.4949 -1.1352 -0.8655
15646TIP3    H268354   4.218   0.709  13.618  1.1587  0.2573  2.3976
15647TIP3   OH268355   5.109   0.714  16.310 -0.0456  0.5492  0.0281
15647TIP3    H168356   5.093   0.681  16.399 -1.7916 -0.1473 -0.5087
15647TIP3    H268357   5.126   0.807  16.323  1.7611  0.1091  1.2632
15648TIP3   OH268358   4.454   2.515  13.811 -0.0704 -0.0470 -0.3978
15648TIP3    H168359   4.371   2.512  13.763 -0.2811 -0.6368 -0.0018
15648TIP3    H268360   4.490   2.427  13.802  0.4058  0.1474 -0.3823
15649TIP3   OH268361   3.941   2.042  12.736  0.8484  0.4698 -0.6760
15649TIP3    H168362   3.936   1.966  12.679  1.6914 -1.7830  2.0263
15649TIP3    H268363   3.889   2.109  12.692 -0.9033 -2.0239 -2.6575
15650TIP3   OH268364   5.033   1.117   1.315 -0.2613  0.6294  0.1227
15650TIP3    H168365   5.023   1.211   1.329 -0.3287  0.3419  2.4884
15650TIP3    H268366   5.119   1.097   1.354  0.6309 -0.0301 -2.0506
15651TIP3   OH268367   3.718   6.436   1.926  0.5000 -0.0494  0.0443
15651TIP3    H168368   3.720   6.342   1.906  4.5126  0.1303 -1.2030
15651TIP3    H268369   3.761   6.443   2.011  2.4649  0.7575 -0.9652
15652TIP3   OH268370   2.338   2.370  14.781 -0.2552 -0.5253 -0.3179
15652TIP3    H168371   2.375   2.437  14.840 -0.4712 -2.1005  1.7082
15652TIP3    H268372   2.382   2.289  14.807 -1.0017 -1.4253 -1.7766
15653TIP3   OH268373   1.324   0.407  16.920 -0.0459  0.1098 -0.5521
15653TIP3    H168374   1.417   0.395  16.903 -0.1327 -0.4184 -0.6870
15653TIP3    H268375   1.314   0.500  16.941  0.9317 -0.2770  2.0290
15654TIP3   OH268376   0.884   0.551   5.148 -0.2339 -0.4696  0.0636
15654TIP3    H168377   0.955   0.550   5.083  0.5204 -0.7861  0.8704
15654TIP3    H268378   0.921   0.596   5.224 -0.4885 -1.6493  0.9271
15655TIP3   OH268379   6.251   0.471  16.419 -0.8086  0.0619  0.4673
15655TIP3    H168380   6.347   0.463  16.425 -0.9104 -0.9551  0.9033
15655TIP3    H268381   6.226   0.519  16.497 -0.5594  1.3905 -0.2340
15656TIP3   OH268382   0.909   6.469   5.188 -0.4971 -0.0543 -0.2403
15656TIP3    H168383   0.976   6.502   5.129 -1.0164  2.2127  0.3279
15656TIP3    H268384   0.884   6.545   5.240 -0.9414 -1.6686  2.0518
15657TIP3   OH268385   4.054   4.280   4.302  0.0651  0.3257 -0.1393
15657TIP3    H168386   4.141   4.316   4.317  0.6429 -1.0720 -0.0089
15657TIP3    H268387   4.064   4.223   4.226 -0.2123 -1.4351  1.0648
15658TIP3   OH268388   0.796   4.088  15.007 -0.0435  0.3423  0.0730
15658TIP3    H168389   0.846   4.163  15.039  1.0068 -1.5883  3.4688
15658TIP3    H268390   0.854   4.047  14.942  1.1340  0.3588  1.0670
15659TIP3   OH268391   5.754   1.260  13.079 -0.1393 -0.0276  0.1514
15659TIP3    H168392   5.685   1.207  13.037  0.7296 -0.2526 -1.0400
15659TIP3    H268393   5.827   1.199  13.090 -0.6515 -0.2545  2.9902
15660TIP3   OH268394   5.369   1.118   4.466 -0.4299 -0.4984 -0.0452
15660TIP3    H168395   5.358   1.202   4.511  1.7975 -0.0881 -0.1605
15660TIP3    H268396   5.315   1.126   4.387 -0.2961  0.8124 -0.0259
15661TIP3   OH268397   2.608   2.899   4.886 -0.4988 -0.0194 -0.4592
15661TIP3    H168398   2.693   2.924   4.849 -1.2615  1.7669 -1.1019
15661TIP3    H268399   2.608   2.804   4.882  1.7512 -0.1156  0.2052
15662TIP3   OH268400   2.388   1.705   6.300  0.1611 -0.3030 -0.4141
15662TIP3    H168401   2.299   1.713   6.336  0.0048 -0.2559 -0.7988
15662TIP3    H268402   2.410   1.613   6.309  0.1203 -0.2927 -0.2062
15663TIP3   OH268403   1.036   3.858   0.389 -0.0089 -0.0772 -0.5914
15663TIP3    H168404   0.992   3.895   0.313  1.9029 -1.9583 -2.7479
15663TIP3    H268405   0.987   3.778   0.408 -0.5180  0.4177  0.2408
15664TIP3   OH268406   5.162   2.921  13.350 -0.0458 -0.3491  0.0617
15664TIP3    H168407   5.207   2.982  13.408  1.3009 -0.6282 -0.6406
15664TIP3    H268408   5.116   2.862  13.408  0.1866  0.1820  0.8036
15665TIP3   OH268409   5.938   5.676   6.544 -0.1428 -0.8432  0.3907
15665TIP3    H168410   5.911   5.682   6.635  1.1011 -0.8435  0.7789
15665TIP3    H268411   5.995   5.599   6.541 -0.5709 -1.1418 -0.4928
15666TIP3   OH268412   2.931   2.868   5.472  0.7542 -0.0206 -0.1167
15666TIP3    H168413   3.013   2.842   5.513  0.5445 -1.3001 -0.4618
15666TIP3    H268414   2.955   2.939   5.413  1.6075 -0.3512 -0.1859
15667TIP3   OH268415   5.288   4.368  11.301 -0.3684 -0.1765 -0.3525
15667TIP3    H168416   5.230   4.292  11.303 -1.0847  0.3453 -0.7285
15667TIP3    H268417   5.265   4.419  11.378 -2.3121  1.3634 -1.8193
15668TIP3   OH268418   5.039   2.276  13.294  0.0098 -0.2165  0.5447
15668TIP3    H168419   5.037   2.207  13.360  0.3885 -0.1438  0.6309
15668TIP3    H268420   5.129   2.278  13.263 -0.3883 -0.9715 -0.7459
15669TIP3   OH268421   0.689   5.262   3.097 -0.0509 -0.1118  0.0357
15669TIP3    H168422   0.627   5.292   3.164  0.0735 -0.0010  0.1028
15669TIP3    H268423   0.763   5.227   3.147 -0.2090 -0.5661 -0.0439
15670TIP3   OH268424   4.211   3.826  14.212 -0.1755  0.7337  0.7050
15670TIP3    H168425   4.272   3.889  14.173  0.5356 -1.2778 -1.7052
15670TIP3    H268426   4.143   3.879  14.251  0.7670  3.0187 -0.5741
15671TIP3   OH268427   2.365   1.199  15.011  0.3633 -0.0634  0.5397
15671TIP3    H168428   2.273   1.218  15.029  0.6572  0.0773  1.9574
15671TIP3    H268429   2.367   1.105  14.991  0.0550 -0.2937  1.5513
15672TIP3   OH268430   5.772   4.080  14.760 -0.6551  0.0888  0.3256
15672TIP3    H168431   5.706   4.019  14.729 -1.1287 -0.0908  1.6036
15672TIP3    H268432   5.751   4.164  14.718  0.1800 -0.6486 -1.6790
15673TIP3   OH268433   5.779   1.004   5.401  0.4973 -0.4829 -0.5061
15673TIP3    H168434   5.845   1.072   5.410  0.4983 -0.3986 -1.0916
15673TIP3    H268435   5.800   0.961   5.318  0.2678 -0.9442 -0.3263
15674TIP3   OH268436   1.441   5.996  15.404 -0.1437 -0.3517 -0.5221
15674TIP3    H168437   1.454   5.983  15.498 -0.4872  1.5385 -0.1774
15674TIP3    H268438   1.361   5.945  15.385 -0.1099 -0.7039  0.2053
15675TIP3   OH268439   5.001   4.939  16.418 -0.2235 -0.0472 -0.2112
15675TIP3    H168440   4.972   4.991  16.343  0.3837  0.1142 -0.3394
15675TIP3    H268441   4.935   4.955  16.485 -1.0429 -0.5821 -0.8631
15676TIP3   OH268442   3.097   5.192   6.458  0.5508  0.3061  0.1564
15676TIP3    H168443   3.171   5.248   6.438  1.1308 -0.6676 -0.5211
15676TIP3    H268444   3.137   5.107   6.480 -0.3210  0.0150  0.6690
15677TIP3   OH268445   0.933   6.728   2.920 -0.0314 -0.1734 -0.1935
15677TIP3    H168446   0.926   6.697   3.010 -0.7390 -0.3824 -0.3102
15677TIP3    H268447   0.971   6.815   2.927 -0.7461  0.1041  0.3673
15678TIP3   OH268448   1.410   3.611   1.642 -0.1159 -0.1257 -0.1720
15678TIP3    H168449   1.388   3.528   1.684 -2.2713  0.5396  0.1287
15678TIP3    H268450   1.448   3.664   1.712 -1.1214  0.0218  0.2656
15679TIP3   OH268451   3.075   0.880  13.326 -0.3468 -0.6674  0.7608
15679TIP3    H168452   3.039   0.793  13.346 -1.4018 -0.3293  0.4034
15679TIP3    H268453   3.021   0.912  13.254 -0.1913  0.4274  1.1155
15680TIP3   OH268454   6.025   1.669   3.598  0.2206 -0.4790  0.6400
15680TIP3    H168455   6.022   1.764   3.610  0.1510 -0.3242 -0.4950
15680TIP3    H268456   5.941   1.638   3.632 -0.8618  0.1733 -1.3236
15681TIP3   OH268457   6.158   1.735  13.942 -0.0846 -0.3644  0.0782
15681TIP3    H168458   6.253   1.750  13.946  0.2052 -1.6875 -1.2416
15681TIP3    H268459   6.146   1.647  13.976 -0.6988 -0.6591 -0.8635
15682TIP3   OH268460   0.588   5.348  16.397  0.5948 -0.5598  0.2207
15682TIP3    H168461   0.511   5.333  16.342  0.7820 -0.8337  0.0300
15682TIP3    H268462   0.661   5.349  16.335  0.6524  0.5952  0.2962
15683TIP3   OH268463   1.263   1.189   0.840  0.5742  0.2343  0.6308
15683TIP3    H168464   1.172   1.182   0.812  0.6787 -1.8328  0.7062
15683TIP3    H268465   1.281   1.283   0.836 -0.9372  0.5129 -1.3153
15684TIP3   OH268466   2.200   1.028  10.576 -0.0729 -0.0043 -0.3844
15684TIP3    H168467   2.197   0.958  10.641  0.7257 -0.2315 -0.5788
15684TIP3    H268468   2.266   0.999  10.513 -0.2761  0.5761 -0.8721
15685TIP3   OH268469   0.740   4.190   0.321 -0.1637 -0.5196  0.6218
15685TIP3    H168470   0.670   4.186   0.387 -1.1805  0.4420 -0.3695
15685TIP3    H268471   0.695   4.182   0.237  0.7932  1.1035 -0.0930
15686TIP3   OH268472   4.124   0.115   5.810 -0.0484 -0.4023 -0.4909
15686TIP3    H168473   4.045   0.063   5.821  1.1309 -2.0545  0.6172
15686TIP3    H268474   4.175   0.099   5.889  0.8668  1.6167 -0.6110
15687TIP3   OH268475   0.391   0.543   1.475 -0.5807  0.0819 -0.7166
15687TIP3    H168476   0.455   0.473   1.485  0.8577  0.9468 -2.9722
15687TIP3    H268477   0.315   0.501   1.436  0.1345 -0.3392 -1.7224
15688TIP3   OH268478   1.526   3.716   2.115 -0.0163  0.4210 -0.0069
15688TIP3    H168479   1.542   3.808   2.134 -0.0427  0.1678  1.3754
15688TIP3    H268480   1.611   3.682   2.086 -0.1742  1.0176 -1.2454
15689TIP3   OH268481   4.660   6.108  13.845 -0.1430 -0.3185 -0.6639
15689TIP3    H168482   4.700   6.091  13.760 -0.3798 -1.5185 -0.5565
15689TIP3    H268483   4.566   6.097  13.830 -0.3117  0.8907 -0.5589
15690TIP3   OH268484   0.923   0.864  11.916 -0.2355 -0.1516 -0.2527
15690TIP3    H168485   0.997   0.839  11.971  0.3185  0.6117 -0.6337
15690TIP3    H268486   0.877   0.781  11.899  0.3954 -0.6013  0.1737
15691TIP3   OH268487   5.694   1.562   4.000  0.3804 -0.0519 -0.0291
15691TIP3    H168488   5.748   1.547   4.078  0.1157 -1.6555 -0.1221
15691TIP3    H268489   5.605   1.541   4.028  0.4910 -2.3130 -1.1453
15692TIP3   OH268490   2.974   4.092   0.700 -0.0088 -0.3417  0.2168
15692TIP3    H168491   2.891   4.119   0.740  1.0747  0.7694  1.8519
15692TIP3    H268492   3.031   4.071   0.775  1.7467  0.6819 -0.7695
15693TIP3   OH268493   2.680   5.793  16.473 -0.1821  0.2728 -0.0106
15693TIP3    H168494   2.722   5.827  16.393  1.9817  0.5148  1.1409
15693TIP3    H268495   2.680   5.698  16.461 -0.1262  0.3213 -0.4239
15694TIP3   OH268496   3.972   3.773   3.350  0.1595 -0.3454  0.1116
15694TIP3    H168497   4.011   3.686   3.357 -0.5696 -0.6617  0.3239
15694TIP3    H268498   4.038   3.832   3.385  1.0554 -0.6978 -0.9266
15695TIP3   OH268499   1.404   6.513   3.890  0.1232 -0.0352  0.2065
15695TIP3    H168500   1.353   6.467   3.823 -0.8555  0.9201  0.2732
15695TIP3    H268501   1.495   6.507   3.859 -0.0962 -1.1405 -0.2847
15696TIP3   OH268502   1.243   6.421  11.674 -0.0494  0.1245 -0.1207
15696TIP3    H168503   1.200   6.391  11.595 -1.6148 -0.7609  1.0245
15696TIP3    H268504   1.289   6.501  11.647  0.6103 -0.8770 -2.2097
15697TIP3   OH268505   2.437   0.478  15.722 -0.0898 -0.0871 -0.4387
15697TIP3    H168506   2.528   0.456  15.741  0.5373 -0.6824 -3.5982
15697TIP3    H268507   2.431   0.572  15.737  1.2969  0.1106 -1.0259
15698TIP3   OH268508   5.792   4.063  13.738  0.5033  0.4292 -0.3893
15698TIP3    H168509   5.838   4.040  13.658  0.1068  0.2767 -0.5735
15698TIP3    H268510   5.862   4.084  13.800  0.8443 -0.4696 -0.4612
15699TIP3   OH268511   3.189   5.088   1.758  0.1003 -0.0372 -0.0262
15699TIP3    H168512   3.130   5.019   1.788  0.0729 -0.9047 -1.9568
15699TIP3    H268513   3.274   5.066   1.795  0.3282 -1.7445 -1.4740
15700TIP3   OH268514   0.814   3.205   4.364  0.1784  0.5280 -0.0426
15700TIP3    H168515   0.816   3.177   4.273  1.3870  0.9899 -0.1692
15700TIP3    H268516   0.754   3.143   4.407 -0.5627  0.4390 -1.1742
15701TIP3   OH268517   3.315   2.074  12.451  0.3071 -0.8275 -0.0404
15701TIP3    H168518   3.325   1.983  12.479  2.0509 -1.1928 -1.6644
15701TIP3    H268519   3.233   2.102  12.492 -0.0950 -2.9955  0.8045
15702TIP3   OH268520   4.630   0.742   2.954 -0.6304  0.1021 -0.0203
15702TIP3    H168521   4.666   0.807   2.894  3.5795 -0.9634  1.0168
15702TIP3    H268522   4.565   0.694   2.902 -0.4888  2.1085 -2.2034
15703TIP3   OH268523   5.288   6.249  16.914  0.1649 -0.1929  0.1247
15703TIP3    H168524   5.308   6.251  17.007  0.1581  0.2842  0.1187
15703TIP3    H268525   5.374   6.249  16.871  0.1913 -1.5408  0.1349
15704TIP3   OH268526   4.539   5.102   3.508  0.0448  0.7265 -0.1686
15704TIP3    H168527   4.538   5.077   3.601  0.3258 -1.0409 -0.6041
15704TIP3    H268528   4.558   5.021   3.462  3.7199  2.1811 -1.5759
15705TIP3   OH268529   4.138   5.633   0.103  0.6332 -0.0484 -0.2240
15705TIP3    H168530   4.154   5.624   0.197  0.5021  0.6963 -0.1197
15705TIP3    H268531   4.134   5.728   0.089 -1.9593 -0.1267 -0.5265
15706TIP3   OH268532   3.894   5.456   0.112  0.3587  0.2103 -0.9499
15706TIP3    H168533   3.869   5.533   0.164 -2.3998 -2.0264  1.3753
15706TIP3    H268534   3.974   5.424   0.154  1.2294  1.4072 -1.6110
15707TIP3   OH268535   3.297   3.751   1.868  0.0232  0.5146  1.0421
15707TIP3    H168536   3.203   3.737   1.861 -0.0648  1.1260  0.9271
15707TIP3    H268537   3.318   3.730   1.959 -0.6647  2.7607  1.7970
15708TIP3   OH268538   1.236   5.029   4.003 -0.1278 -0.2068  0.3220
15708TIP3    H168539   1.213   4.955   3.947  1.1339 -0.0675 -0.4127
15708TIP3    H268540   1.253   4.989   4.089  0.3908 -0.7523 -0.0271
15709TIP3   OH268541   0.239   2.239  14.229  0.3241 -0.1072 -0.0625
15709TIP3    H168542   0.174   2.179  14.192  1.1363  0.2349 -2.2195
15709TIP3    H268543   0.195   2.281  14.302 -1.1852 -1.3254 -0.2188
15710TIP3   OH268544   0.407   2.698   6.017  0.2395 -0.4532  0.1411
15710TIP3    H168545   0.429   2.611   5.984  0.9697 -0.5256  0.7918
15710TIP3    H268546   0.430   2.695   6.110  0.3631  0.4654  0.1481
15711TIP3   OH268547   3.502   2.104   3.591 -0.3723 -0.2429  0.2715
15711TIP3    H168548   3.579   2.048   3.597 -1.1380 -1.1691  2.8302
15711TIP3    H268549   3.537   2.191   3.572  1.3469 -0.6080  1.5031
15712TIP3   OH268550   5.278   3.976  14.587  0.4556  0.2240  0.9950
15712TIP3    H168551   5.218   3.904  14.570 -0.3142  1.3645 -1.6866
15712TIP3    H268552   5.297   4.013  14.500  1.3236  2.8267  2.1779
15713TIP3   OH268553   3.790   2.647  12.222 -0.3396  0.9289 -0.3010
15713TIP3    H168554   3.839   2.604  12.292 -1.6325 -0.6915 -0.3391
15713TIP3    H268555   3.830   2.734  12.216  2.6270 -0.3199 -0.4634
15714TIP3   OH268556   3.806   4.837   5.452 -0.1528 -0.6355 -0.1947
15714TIP3    H168557   3.887   4.790   5.431  0.7244  1.0320 -0.7385
15714TIP3    H268558   3.770   4.861   5.366  1.7105  3.3302 -0.1324
15715TIP3   OH268559   1.802   1.161   5.325 -0.6618 -0.4609 -0.2519
15715TIP3    H168560   1.874   1.123   5.375 -0.0966 -1.1717 -1.5561
15715TIP3    H268561   1.740   1.191   5.392  0.6290 -0.2115  0.8914
15716TIP3   OH268562   2.671   3.680  16.766  0.6252 -0.7334  0.2597
15716TIP3    H168563   2.730   3.620  16.811  2.0663 -0.5212 -1.2269
15716TIP3    H268564   2.674   3.761  16.817  2.7982 -0.2518 -0.5376
15717TIP3   OH268565   1.302   3.344  14.683  0.5995  0.1604  0.4144
15717TIP3    H168566   1.347   3.305  14.609  0.0440  0.4497 -0.0847
15717TIP3    H268567   1.335   3.433  14.688  0.8353  0.0606  0.6878
15718TIP3   OH268568   1.852   1.785   4.609 -0.2122  0.1651 -0.2473
15718TIP3    H168569   1.795   1.709   4.606 -1.1796  0.8969 -1.0007
15718TIP3    H268570   1.830   1.836   4.532  0.9953  0.8174 -0.2032
15719TIP3   OH268571   2.246   6.765   6.190  0.7313  0.3537 -0.2101
15719TIP3    H168572   2.341   6.775   6.196  1.1684 -2.0950 -1.7125
15719TIP3    H268573   2.228   6.683   6.237 -0.7731  1.1920  0.7397
15720TIP3   OH268574   4.003   0.503   1.964 -0.0201  0.1459  0.3613
15720TIP3    H168575   4.081   0.546   1.931  0.1961 -1.1972 -0.9795
15720TIP3    H268576   4.021   0.410   1.953 -2.1051 -0.1826 -0.7313
15721TIP3   OH268577   6.367   5.978   2.069 -0.7503  0.0941 -0.1568
15721TIP3    H168578   6.425   5.908   2.038 -0.7511 -0.6153  1.3487
15721TIP3    H268579   6.424   6.054   2.078 -0.4293 -0.1167 -0.3755
15722TIP3   OH268580   0.564   6.285  12.688 -0.2450  0.1200 -0.3540
15722TIP3    H168581   0.526   6.335  12.616 -0.3086  0.1796 -0.2804
15722TIP3    H268582   0.653   6.265  12.660  0.1214  1.1456  0.0319
15723TIP3   OH268583   5.948   3.470   0.115  0.1133  0.2150 -0.1031
15723TIP3    H168584   5.969   3.534   0.047  0.8530  0.0787 -0.0122
15723TIP3    H268585   5.880   3.414   0.076  1.4344 -0.6733 -1.2398
15724TIP3   OH268586   5.746   5.215  15.236  0.2888  0.0526 -0.4134
15724TIP3    H168587   5.737   5.310  15.247  1.5374  0.0283  1.3901
15724TIP3    H268588   5.796   5.204  15.156 -0.2064  0.8958 -0.8483
15725TIP3   OH268589   4.910   6.214  11.887  0.6015 -0.2754  0.5554
15725TIP3    H168590   4.910   6.300  11.930  0.6650  0.1672 -0.3061
15725TIP3    H268591   4.996   6.177  11.905  0.9670  0.3055  0.0482
15726TIP3   OH268592   3.090   0.463   2.548  0.4178 -0.0142 -0.8741
15726TIP3    H168593   3.028   0.535   2.546  1.2216  0.6830 -1.0907
15726TIP3    H268594   3.114   0.454   2.641  0.8260  0.4443 -0.9335
15727TIP3   OH268595   6.394   2.671   2.259  0.2925  0.1786  0.1091
15727TIP3    H168596   6.347   2.604   2.209 -0.7214 -0.9262  2.3884
15727TIP3    H268597   6.484   2.667   2.226 -0.3750 -0.2132 -1.8193
15728TIP3   OH268598   6.017   4.776  10.543 -0.3293 -0.4728  0.2812
15728TIP3    H168599   6.085   4.712  10.521  0.7899  0.2520  1.4481
15728TIP3    H268600   5.937   4.724  10.552  0.3643 -1.5703  0.3268
15729TIP3   OH268601   5.650   5.998  14.863  0.4643  0.3803  0.6095
15729TIP3    H168602   5.607   6.083  14.850  1.0764  1.0825  2.7858
15729TIP3    H268603   5.584   5.934  14.839 -0.7767  1.4615  1.0211
15730TIP3   OH268604   4.019   1.422   2.920 -0.0969  0.3582  0.0760
15730TIP3    H168605   3.978   1.341   2.951  0.8558  0.3211  1.3102
15730TIP3    H268606   3.987   1.489   2.980 -0.0828  0.7283 -0.3234
15731TIP3   OH268607   6.178   5.085  13.647 -0.1117 -0.5308 -0.0107
15731TIP3    H168608   6.088   5.053  13.650  0.1497 -1.3034 -0.2045
15731TIP3    H268609   6.225   5.019  13.596  0.5144 -0.0092 -0.1182
15732TIP3   OH268610   1.978   0.784   4.326  0.3021  0.0585  0.0641
15732TIP3    H168611   2.031   0.720   4.374 -0.9923 -1.6557 -0.6669
15732TIP3    H268612   2.039   0.826   4.266  1.3431  0.1068  1.1279
15733TIP3   OH268613   4.442   0.996  11.150  0.1025  1.0966 -0.1752
15733TIP3    H168614   4.512   1.058  11.171 -0.1788  2.0144 -1.8199
15733TIP3    H268615   4.486   0.926  11.102 -0.0269  1.5317 -0.9543
15734TIP3   OH268616   5.723   5.761   0.253 -0.2637 -0.1412 -0.0380
15734TIP3    H168617   5.754   5.704   0.182 -0.6510  0.9795 -1.1586
15734TIP3    H268618   5.801   5.811   0.278 -0.1408 -0.4941  0.2952
15735TIP3   OH268619   5.141   3.734  11.418  0.0462 -0.0771 -0.1448
15735TIP3    H168620   5.100   3.654  11.386 -0.0071  0.1950 -0.7762
15735TIP3    H268621   5.104   3.803  11.364  1.0285  0.2237 -0.4634
15736TIP3   OH268622   2.892   0.350  16.714 -0.4179  0.0181 -0.4736
15736TIP3    H168623   2.799   0.370  16.712 -0.5231 -0.4866 -0.6678
15736TIP3    H268624   2.926   0.385  16.631 -0.3058  0.7881 -0.1158
15737TIP3   OH268625   4.384   4.758   2.257  0.8044  0.1512 -0.5252
15737TIP3    H168626   4.309   4.817   2.266  1.5867  0.9794  0.8136
15737TIP3    H268627   4.421   4.778   2.171 -0.4162 -0.2031 -1.1678
15738TIP3   OH268628   2.594   6.272   3.399  0.3760  0.2091 -0.3563
15738TIP3    H168629   2.537   6.336   3.356  0.1320 -0.7759 -1.5642
15738TIP3    H268630   2.681   6.290   3.364  0.4591  0.4067 -0.0550
15739TIP3   OH268631   3.045   3.838   4.019 -0.1650 -0.2392  0.1787
15739TIP3    H168632   2.978   3.906   4.009 -2.1896 -1.8182  1.8765
15739TIP3    H268633   3.028   3.776   3.948 -2.3629 -1.9469  2.0073
15740TIP3   OH268634   1.343   0.165   4.567  0.3603 -0.0811 -0.1260
15740TIP3    H168635   1.307   0.209   4.490 -0.2827 -0.8519 -0.2783
15740TIP3    H268636   1.433   0.143   4.542  0.7496  1.2730  0.0165
15741TIP3   OH268637   0.202   5.740   5.480 -0.0551 -0.1864 -0.1314
15741TIP3    H168638   0.252   5.704   5.553 -0.4453 -1.6438 -0.5296
15741TIP3    H268639   0.268   5.760   5.413  0.2539  0.7004  0.4207
15742TIP3   OH268640   5.528   2.039   6.033  0.7274 -0.1518 -0.0027
15742TIP3    H168641   5.433   2.027   6.030  0.6031  0.9357 -1.9160
15742TIP3    H268642   5.544   2.085   6.116 -0.1662 -1.9400  1.2225
15743TIP3   OH268643   0.544   0.749  15.002  0.5944  0.2508  0.4307
15743TIP3    H168644   0.462   0.797  14.989  0.6667  1.0358  2.5273
15743TIP3    H268645   0.522   0.682  15.067  1.3928 -0.1748  0.2773
15744TIP3   OH268646   2.130   4.509   4.764 -0.1275 -0.3397 -0.1714
15744TIP3    H168647   2.111   4.538   4.675  0.7398 -0.5108 -0.4182
15744TIP3    H268648   2.214   4.550   4.786 -0.2498 -0.4358  0.5041
15745TIP3   OH268649   1.899   2.728   5.762 -0.5253 -0.0308  0.0080
15745TIP3    H168650   1.911   2.640   5.726  0.1364 -0.2841  0.8194
15745TIP3    H268651   1.951   2.728   5.842 -0.9357  0.9386  0.2839
15746TIP3   OH268652   6.335   1.321   1.525 -0.2145 -0.2614 -0.0615
15746TIP3    H168653   6.336   1.230   1.556  0.7054 -0.7928 -1.5613
15746TIP3    H268654   6.242   1.345   1.527 -0.3787 -0.8761  1.2775
15747TIP3   OH268655   6.564   1.707  13.340  0.4116  0.0284 -0.0747
15747TIP3    H168656   6.528   1.746  13.261 -0.0724 -0.8479 -0.2913
15747TIP3    H268657   6.529   1.761  13.411 -0.1306  0.0814 -0.3767
15748TIP3   OH268658   2.152   3.933  16.549  0.3112 -0.1148  0.4551
15748TIP3    H168659   2.151   3.864  16.483  0.0018 -0.2750  0.6270
15748TIP3    H268660   2.060   3.958  16.559  0.5926  2.0056 -1.3688
15749TIP3   OH268661   1.402   0.691   1.711 -0.1601 -0.3308 -0.9588
15749TIP3    H168662   1.469   0.629   1.681 -0.0487 -1.1059  0.7401
15749TIP3    H268663   1.392   0.671   1.804 -1.6054  0.8672 -0.8269
15750TIP3   OH268664   1.198   3.146   4.584 -0.0984 -0.0039  0.5834
15750TIP3    H168665   1.143   3.214   4.546 -0.7907 -0.4030  0.8498
15750TIP3    H268666   1.258   3.194   4.641  2.6948  0.9133 -2.7982
15751TIP3   OH268667   4.812   5.039   1.790  0.1407 -0.5606  0.0984
15751TIP3    H168668   4.765   4.993   1.859 -0.7154 -1.5754 -1.1027
15751TIP3    H268669   4.870   5.099   1.836 -1.2711 -0.3270  1.6624
15752TIP3   OH268670   3.960   1.180  13.809 -0.1238 -0.2307 -0.1278
15752TIP3    H168671   3.941   1.270  13.836  0.3872 -0.5042  1.2012
15752TIP3    H268672   3.900   1.127  13.860  0.5906 -0.7368  0.2033
15753TIP3   OH268673   0.752   0.540  14.450  0.0246  0.1035 -0.0333
15753TIP3    H168674   0.792   0.489  14.521  0.0521  0.9546  0.5841
15753TIP3    H268675   0.765   0.487  14.372 -0.2756 -1.0018  0.6456
15754TIP3   OH268676   3.682   2.660  15.667 -0.2670 -0.6640  0.0862
15754TIP3    H168677   3.740   2.584  15.668 -0.4250 -0.8129 -1.0242
15754TIP3    H268678   3.665   2.679  15.760  3.3431  0.7589  0.6187
15755TIP3   OH268679   3.292   4.026  15.130 -0.3193 -0.6913 -0.5693
15755TIP3    H168680   3.364   4.007  15.191 -0.8845  0.8724  0.6694
15755TIP3    H268681   3.232   3.953  15.140 -1.6916  0.6720  2.8498
15756TIP3   OH268682   0.041   1.374  11.910  0.5470  0.2618 -0.5059
15756TIP3    H168683  -0.010   1.361  11.830 -0.7916  0.8485  0.2131
15756TIP3    H268684   0.053   1.468  11.916  0.0611  0.2867  0.3065
15757TIP3   OH268685   5.577   0.113   2.402 -0.5018  0.3670  0.4021
15757TIP3    H168686   5.502   0.083   2.352 -2.1019  0.3586  2.6606
15757TIP3    H268687   5.542   0.178   2.463  0.8064 -1.2381  3.0490
15758TIP3   OH268688   2.923   2.141  16.759  0.2556  0.4251 -0.3404
15758TIP3    H168689   2.830   2.163  16.758 -0.0198 -0.6090  0.5492
15758TIP3    H268690   2.937   2.091  16.679  0.0389  0.5489 -0.4555
15759TIP3   OH268691   3.245   6.014   2.284 -0.4397 -0.2115  0.0062
15759TIP3    H168692   3.185   6.050   2.349  0.0813 -0.1647  0.4701
15759TIP3    H268693   3.274   5.931   2.321  1.0178  0.5111  0.5420
15760TIP3   OH268694   2.123   6.272   0.634  0.0845  0.2185 -0.0868
15760TIP3    H168695   2.200   6.234   0.677  0.1079 -0.4593 -0.7050
15760TIP3    H268696   2.072   6.311   0.705  2.4157  3.3658  0.0968
15761TIP3   OH268697   5.926   3.543   2.740 -0.0212 -0.3304  0.1614
15761TIP3    H168698   5.943   3.464   2.689  0.4505 -0.0977 -0.0471
15761TIP3    H268699   5.957   3.615   2.684 -1.2632  0.0808 -0.0313
15762TIP3   OH268700   1.471   5.585   6.086 -0.0657 -0.3020  0.0572
15762TIP3    H168701   1.386   5.543   6.102  0.2698 -0.5699  1.2143
15762TIP3    H268702   1.488   5.637   6.165  0.2960  0.7170 -0.6676
15763TIP3   OH268703   0.290   4.562   1.033  1.0961  0.0482 -0.3085
15763TIP3    H168704   0.363   4.501   1.044  0.9382  0.1687  2.1224
15763TIP3    H268705   0.328   4.648   1.053  0.2884  0.0656  1.3647
15764TIP3   OH268706   3.886   2.645  13.133 -0.0213 -0.0488 -0.0674
15764TIP3    H168707   3.902   2.720  13.190  1.1296 -1.2058  1.1911
15764TIP3    H268708   3.955   2.649  13.067 -0.1310  0.1487 -0.1715
15765TIP3   OH268709   2.520   5.069  12.923  0.1663  0.0831 -0.2534
15765TIP3    H168710   2.470   5.057  12.843  0.8386 -0.6945 -0.5716
15765TIP3    H268711   2.519   5.164  12.938  0.4564  0.2897 -1.4539
15766TIP3   OH268712   4.767   3.293  13.259  0.2971  0.3658 -0.3165
15766TIP3    H168713   4.746   3.235  13.331  2.5399 -0.1026  0.0333
15766TIP3    H268714   4.776   3.235  13.183  0.3197  0.5418 -0.4497
15767TIP3   OH268715   0.536   3.263  15.844 -0.0812 -0.0493  0.5461
15767TIP3    H168716   0.558   3.294  15.756 -1.6521 -1.0549 -0.2518
15767TIP3    H268717   0.582   3.179  15.852 -0.8326 -0.4980  0.2284
15768TIP3   OH268718   5.425   2.001  13.383  0.7390 -0.5274  0.2940
15768TIP3    H168719   5.371   2.072  13.349  0.3334 -0.1245  1.7158
15768TIP3    H268720   5.513   2.038  13.387  0.5598 -0.1502  0.8725
15769TIP3   OH268721   5.160   3.264  13.653  0.3128  0.2578 -0.2674
15769TIP3    H168722   5.069   3.290  13.636 -0.4101 -0.4791  2.0427
15769TIP3    H268723   5.157   3.225  13.741  3.2734  2.3327  0.9049
15770TIP3   OH268724   5.014   3.654  14.754  0.0186 -0.1253 -0.1037
15770TIP3    H168725   5.046   3.660  14.844 -1.7029  1.3434  0.4492
15770TIP3    H268726   4.928   3.695  14.756  0.6238  1.5017 -2.7638
15771TIP3   OH268727   5.161   6.205   1.948 -0.0118  0.9723 -0.0389
15771TIP3    H168728   5.120   6.227   2.031 -0.5375  0.4352 -0.1492
15771TIP3    H268729   5.178   6.111   1.954 -1.2471  0.6520 -1.0407
15772TIP3   OH268730   3.201   4.778   1.362  0.9729  0.7861 -0.7968
15772TIP3    H168731   3.125   4.754   1.415  2.1488 -1.8580 -0.1300
15772TIP3    H268732   3.165   4.801   1.276 -0.6069 -0.0523 -0.3874
15773TIP3   OH268733   5.537   6.572   2.437  0.6543 -0.0027 -0.0640
15773TIP3    H168734   5.483   6.517   2.493  1.7201  1.3598  2.4662
15773TIP3    H268735   5.527   6.660   2.473  0.4096  1.2309 -2.8639
15774TIP3   OH268736   0.195   2.720  13.673 -0.1006  0.5733 -1.0913
15774TIP3    H168737   0.163   2.665  13.601 -0.0302 -1.0132  0.0448
15774TIP3    H268738   0.119   2.734  13.729  0.4077 -0.4575 -0.1000
15775TIP3   OH268739   5.244   3.298   0.350  0.3228  0.4690  0.0065
15775TIP3    H168740   5.221   3.288   0.258 -0.7131  0.4488  0.2591
15775TIP3    H268741   5.263   3.209   0.380  1.7307  0.5933 -0.4415
15776TIP3   OH268742   3.347   2.785   1.627  0.0081  0.5443  0.0454
15776TIP3    H168743   3.376   2.766   1.538 -0.6111  0.1732 -0.0846
15776TIP3    H268744   3.428   2.787   1.679  0.2896 -0.1914 -0.3540
15777TIP3   OH268745   3.599   5.806   0.892 -0.6418 -0.3767 -0.1026
15777TIP3    H168746   3.619   5.900   0.901  0.5358 -0.6399  0.1869
15777TIP3    H268747   3.611   5.771   0.980 -0.5974 -0.8864 -0.3120
15778TIP3   OH268748   1.824   1.143   4.617  0.5701  0.0363 -0.0264
15778TIP3    H168749   1.730   1.145   4.636  0.1848 -1.8202 -1.3807
15778TIP3    H268750   1.858   1.072   4.672  0.7248 -0.7441 -1.0829
15779TIP3   OH268751   6.614   4.850  10.683 -0.7536  0.3322  0.2097
15779TIP3    H168752   6.657   4.778  10.730  0.4724  1.6589  1.2049
15779TIP3    H268753   6.658   4.929  10.715 -2.0240  1.5315 -0.8929
15780TIP3   OH268754   3.980   1.698  12.119  0.1913 -0.2563 -0.2771
15780TIP3    H168755   3.929   1.746  12.184 -0.5979  0.4280 -1.3714
15780TIP3    H268756   4.009   1.619  12.165  0.4401  0.6485  1.1732
15781TIP3   OH268757   5.569   3.689   2.155 -0.9355 -0.3976  0.1538
15781TIP3    H168758   5.519   3.615   2.122 -0.8112 -0.3893 -0.0578
15781TIP3    H268759   5.660   3.667   2.134 -0.7332 -0.9328  1.5265
15782TIP3   OH268760   4.223   0.168   3.383 -0.1384 -0.6332 -0.0069
15782TIP3    H168761   4.307   0.213   3.374  0.6737 -1.9360  0.7252
15782TIP3    H268762   4.234   0.088   3.332 -0.6430 -1.2008  0.7726
15783TIP3   OH268763   6.513   5.258   0.677 -0.4717 -0.0049  0.0206
15783TIP3    H168764   6.528   5.307   0.596  0.4953  1.4570  1.0410
15783TIP3    H268765   6.422   5.228   0.670 -0.9435  1.5080 -0.8983
15784TIP3   OH268766   4.701   5.952  14.071  0.9519  0.2011  0.6423
15784TIP3    H168767   4.777   5.903  14.039  0.5912 -0.4639  0.8116
15784TIP3    H268768   4.655   5.979  13.991  2.3361  2.2095  0.4400
15785TIP3   OH268769   3.444   5.679  13.283  0.0569  0.0848 -0.3342
15785TIP3    H168770   3.467   5.763  13.242  0.1426 -0.3562 -1.2211
15785TIP3    H268771   3.436   5.619  13.209 -0.7436 -0.5145  0.2335
15786TIP3   OH268772   5.585   2.402  10.758 -0.7336 -0.4065 -0.4287
15786TIP3    H168773   5.616   2.467  10.696 -1.0613 -1.8034 -2.1219
15786TIP3    H268774   5.617   2.319  10.724 -0.4718 -1.1819  1.5757
15787TIP3   OH268775   2.709   0.348   2.295  0.4031  0.4984  0.0774
15787TIP3    H168776   2.631   0.397   2.269  0.2682  0.7237  0.8580
15787TIP3    H268777   2.687   0.312   2.381  1.1102  0.4668  0.2525
15788TIP3   OH268778   4.670   5.049  15.044 -0.2901  0.5376 -0.7453
15788TIP3    H168779   4.697   4.997  14.968  0.2417 -3.3193  1.7996
15788TIP3    H268780   4.581   5.078  15.024 -0.6412 -1.4635 -2.3654
15789TIP3   OH268781   1.356   4.112   1.664 -0.2952 -0.2622 -0.3509
15789TIP3    H168782   1.295   4.186   1.658 -0.2698 -0.1809  0.3294
15789TIP3    H268783   1.372   4.087   1.573  1.3721  1.9451 -0.7266
15790TIP3   OH268784   1.167   2.815   0.231 -0.0928 -0.1766  0.1864
15790TIP3    H168785   1.188   2.848   0.318  2.0888 -0.8148 -0.0329
15790TIP3    H268786   1.112   2.883   0.192  1.7908  1.8239  0.8297
15791TIP3   OH268787   2.629   2.678  14.999  0.4418  0.4506 -0.2344
15791TIP3    H168788   2.535   2.673  14.981  0.6486 -0.7850 -1.1838
15791TIP3    H268789   2.639   2.750  15.061 -1.1712  0.3371  0.1908
15792TIP3   OH268790   2.426   3.295   2.439  0.5590  0.2070 -0.5145
15792TIP3    H168791   2.369   3.348   2.495  1.3351  0.7632 -0.2283
15792TIP3    H268792   2.515   3.319   2.466  0.9966 -2.5173  0.8724
15793TIP3   OH268793   6.228   4.059  16.736  0.1566  0.3465  0.0925
15793TIP3    H168794   6.284   4.013  16.799 -0.3467 -2.0999 -1.1344
15793TIP3    H268795   6.143   4.066  16.780 -0.3609 -1.8833 -0.4551
15794TIP3   OH268796   4.839   4.687   0.267 -0.2811 -0.2708 -0.4746
15794TIP3    H168797   4.854   4.597   0.298  0.9214 -0.1110 -0.5371
15794TIP3    H268798   4.924   4.714   0.230 -0.0944  1.4859  1.0646
15795TIP3   OH268799   3.231   0.733   2.693  0.4936 -0.2365  0.7897
15795TIP3    H168800   3.172   0.657   2.686  1.3722 -0.9673  1.1459
15795TIP3    H268801   3.178   0.807   2.662  0.5483 -1.4325 -2.6277
15796TIP3   OH268802   6.117   2.712  10.532  0.1860 -0.5108  0.4478
15796TIP3    H168803   6.079   2.692  10.618  2.3860 -2.2515  1.1279
15796TIP3    H268804   6.144   2.803  10.538 -1.5705  0.0242  0.8053
15797TIP3   OH268805   1.353   5.334   5.333  0.3063 -0.4652  0.8399
15797TIP3    H168806   1.400   5.252   5.341  0.1046 -0.5453  1.2109
15797TIP3    H268807   1.286   5.317   5.266  0.4465 -0.5143  0.7115
15798TIP3   OH268808   0.595   0.268   3.393  0.1422 -0.5832 -0.2574
15798TIP3    H168809   0.615   0.230   3.479 -2.4669  0.5137  0.9500
15798TIP3    H268810   0.510   0.230   3.370  1.1377 -1.4918 -2.8345
15799TIP3   OH268811   2.791   5.638  11.064  0.1170  0.7781 -0.3222
15799TIP3    H168812   2.773   5.647  11.157 -0.4848 -1.9984 -0.0712
15799TIP3    H268813   2.729   5.696  11.021 -0.2565  1.3536  0.9717
15800TIP3   OH268814   3.457   6.641   0.300  0.9647 -0.2616  1.1569
15800TIP3    H168815   3.551   6.659   0.296  0.8867  0.0431 -2.2800
15800TIP3    H268816   3.451   6.546   0.303  1.5078 -0.4775 -1.6649
15801TIP3   OH268817   6.329   0.093  13.522  0.4739 -0.1496  0.0274
15801TIP3    H168818   6.297   0.003  13.511 -1.2410  0.3393  0.6877
15801TIP3    H268819   6.368   0.115  13.437 -0.3390 -1.0419 -0.6011
15802TIP3   OH268820   4.934   5.145   2.417 -0.1415  0.0121 -0.8098
15802TIP3    H168821   4.980   5.189   2.345  0.5909  0.3950 -0.1194
15802TIP3    H268822   4.905   5.217   2.474 -1.9258 -0.1866 -1.4001
15803TIP3   OH268823   0.870   6.177   4.853  0.7928  0.5996 -0.0250
15803TIP3    H168824   0.882   6.261   4.807  1.7230  0.9526  0.8234
15803TIP3    H268825   0.858   6.201   4.944 -0.6258 -0.1249 -0.0031
15804TIP3   OH268826   3.004   1.324   6.408 -0.1909  0.1112  0.2573
15804TIP3    H168827   3.018   1.418   6.411  0.6871 -0.0035  0.3010
15804TIP3    H268828   3.074   1.288   6.463  1.8305 -0.7608 -2.6214
15805TIP3   OH268829   2.925   4.888  17.048  0.4115 -0.4309  0.3947
15805TIP3    H168830   2.967   4.803  17.059  0.1332 -0.6687 -0.3248
15805TIP3    H268831   2.840   4.868  17.010  0.2707  0.1607  0.3874
15806TIP3   OH268832   1.460   2.090  16.246 -0.4666  0.1504  0.0007
15806TIP3    H168833   1.375   2.074  16.286  0.2662  0.4614  1.7486
15806TIP3    H268834   1.463   2.184  16.231  0.0416  0.3267  1.1157
15807TIP3   OH268835   2.231   5.727   2.986  0.1387 -0.3763 -0.1450
15807TIP3    H168836   2.192   5.650   3.027 -0.5114  0.0140 -0.0283
15807TIP3    H268837   2.174   5.799   3.011  1.7151  0.4707  1.2745
15808TIP3   OH268838   0.015   4.730  13.660 -0.5385 -0.3768  0.7194
15808TIP3    H168839  -0.026   4.815  13.672 -0.1493 -0.0414 -0.1545
15808TIP3    H268840   0.027   4.695  13.748  1.3495  1.4734  1.2841
15809TIP3   OH268841   1.375   6.108   3.454 -0.1276  0.4154 -0.4615
15809TIP3    H168842   1.315   6.097   3.380 -0.4971 -0.4688 -0.0514
15809TIP3    H268843   1.343   6.046   3.520  2.5094 -1.7502 -1.0298
15810TIP3   OH268844   2.355   5.270  16.861  0.1791 -0.5298 -0.3200
15810TIP3    H168845   2.422   5.202  16.874  1.2044  0.2971 -1.1061
15810TIP3    H268846   2.365   5.328  16.936 -0.7200 -1.2253  0.3690
15811TIP3   OH268847   3.386   3.019   1.293  0.2061 -0.0860 -0.1670
15811TIP3    H168848   3.331   3.075   1.238  0.2543 -0.0249 -0.1534
15811TIP3    H268849   3.474   3.030   1.257  1.0397  3.1565  2.3852
15812TIP3   OH268850   0.589   2.842  12.561 -0.0100  0.2677 -0.5120
15812TIP3    H168851   0.607   2.840  12.467  0.7625 -0.4420 -0.3609
15812TIP3    H268852   0.664   2.889  12.598  0.4477 -0.7540 -0.1054
15813TIP3   OH268853   2.872   2.276   1.701  0.4026 -0.2502 -0.2416
15813TIP3    H168854   2.912   2.189   1.708  0.6093 -0.3573 -2.1824
15813TIP3    H268855   2.945   2.337   1.708  0.6572 -0.3668 -1.5579
15814TIP3   OH268856   2.684   3.703   2.470 -0.7721 -0.1181 -0.2711
15814TIP3    H168857   2.735   3.703   2.551 -1.0087 -0.9813 -0.1114
15814TIP3    H268858   2.709   3.784   2.426 -0.6791  0.3876  0.6903
15815TIP3   OH268859   6.321   6.295  11.786  0.4724 -0.2793  0.1498
15815TIP3    H168860   6.310   6.388  11.769 -0.0018 -0.1306  1.2373
15815TIP3    H268861   6.236   6.257  11.767  1.1242 -0.7970 -2.0444
15816TIP3   OH268862   3.303   0.011   4.365  0.3670 -0.3402 -0.2080
15816TIP3    H168863   3.359   0.089   4.370  0.9984 -0.8138  0.3838
15816TIP3    H268864   3.235   0.027   4.430  0.9060 -0.5784  0.4369
15817TIP3   OH268865   2.050   6.670  16.424 -0.4015 -0.4240  0.2043
15817TIP3    H168866   2.088   6.757  16.435 -0.0621 -0.5604  0.1260
15817TIP3    H268867   2.027   6.666  16.331  1.3865 -1.1227 -0.2683
15818TIP3   OH268868   2.936   5.442   2.988  0.2052  0.7413 -0.1233
15818TIP3    H168869   2.882   5.418   3.064  0.5401 -0.7682 -0.3236
15818TIP3    H268870   3.026   5.442   3.022  0.2803  0.9166 -0.3214
15819TIP3   OH268871   3.736   6.231   0.633 -0.2875 -0.3740 -0.1057
15819TIP3    H168872   3.770   6.247   0.721 -2.1594  1.6078  0.3446
15819TIP3    H268873   3.732   6.136   0.626  3.6425 -0.7342  0.3677
15820TIP3   OH268874   2.975   3.137  16.678  0.0872  0.1411  0.2879
15820TIP3    H168875   3.022   3.164  16.757 -0.1317  1.6819 -0.0778
15820TIP3    H268876   3.044   3.103  16.621  0.3147 -0.5144  0.9385
15821TIP3   OH268877   0.220   1.084  14.618 -0.4148  0.2102  0.1646
15821TIP3    H168878   0.170   1.144  14.673 -1.4026  0.1350 -0.6363
15821TIP3    H268879   0.155   1.025  14.580  0.3917 -0.5251 -0.1067
15822TIP3   OH268880   1.354   4.314  17.031 -0.2335 -0.0388 -0.1965
15822TIP3    H168881   1.337   4.325  17.124 -0.4868 -2.1569  0.0579
15822TIP3    H268882   1.267   4.305  16.992 -0.2013  2.0306 -0.8648
15823TIP3   OH268883   2.068   2.603  13.434  0.3231  0.0972 -0.0677
15823TIP3    H168884   2.093   2.673  13.374 -0.1780  0.3312 -0.0042
15823TIP3    H268885   2.147   2.548  13.440  0.0557 -0.5572 -1.8133
15824TIP3   OH268886   2.509   2.400   1.955  0.0732 -0.3615  0.0717
15824TIP3    H168887   2.424   2.408   1.997  0.2625  1.9531  0.1491
15824TIP3    H268888   2.561   2.346   2.014 -1.0036 -0.8810  0.5608
15825TIP3   OH268889   6.188   4.074  11.880 -0.1851  0.7835  0.1248
15825TIP3    H168890   6.169   4.102  11.791 -4.0642  0.1749  0.5881
15825TIP3    H268891   6.161   3.982  11.883  0.9748  0.4425  1.6703
15826TIP3   OH268892   3.396   5.505  16.565  0.1695 -0.0098 -0.1230
15826TIP3    H168893   3.316   5.514  16.616  1.3735  0.9391  1.6878
15826TIP3    H268894   3.398   5.583  16.509 -0.7755 -0.6820 -1.1414
15827TIP3   OH268895   5.200   0.054  15.270  1.2634 -0.6084 -0.7395
15827TIP3    H168896   5.109   0.028  15.287  0.6417  1.3466 -0.8134
15827TIP3    H268897   5.204   0.146  15.297  3.5385 -0.9397  0.3340
15828TIP3   OH268898   3.814   1.687   4.383 -0.3415 -0.8232  0.5374
15828TIP3    H168899   3.880   1.686   4.313  0.5673 -3.0633  1.3280
15828TIP3    H268900   3.865   1.696   4.463 -1.3868  1.8637  0.9910
15829TIP3   OH268901   0.986   2.782  11.094 -0.4958 -0.5220 -0.3843
15829TIP3    H168902   0.991   2.779  11.190  1.9120 -0.0680 -0.4392
15829TIP3    H268903   1.070   2.746  11.065 -1.0722 -0.3659 -2.3325
15830TIP3   OH268904   0.704   4.544   5.167  0.3961  0.4812 -0.3639
15830TIP3    H168905   0.630   4.597   5.137 -0.0217  0.2050  0.1691
15830TIP3    H268906   0.764   4.607   5.207 -0.3446  0.5081  0.7576
15831TIP3   OH268907   4.587   0.690  15.434 -0.5928 -0.7145 -0.2929
15831TIP3    H168908   4.503   0.687  15.388 -0.1463  1.3881 -1.3916
15831TIP3    H268909   4.652   0.686  15.364  0.1617  0.0173  0.3518
15832TIP3   OH268910   2.930   2.489  13.035  0.1958  0.6598  0.4636
15832TIP3    H168911   3.022   2.460  13.038  0.2834  0.8555 -0.2107
15832TIP3    H268912   2.896   2.468  13.122  0.4962 -0.6825  0.2868
15833TIP3   OH268913   2.688   5.830   5.749  0.3231  0.0751 -0.1257
15833TIP3    H168914   2.683   5.913   5.796 -0.6929  0.6474 -1.1858
15833TIP3    H268915   2.597   5.808   5.730  0.6475 -0.7429 -0.7877
15834TIP3   OH268916   2.601   3.824  15.828 -0.1730 -0.4286 -0.1931
15834TIP3    H168917   2.540   3.783  15.889  0.4026 -1.2243 -0.1324
15834TIP3    H268918   2.545   3.860  15.759 -0.7443 -0.6231  0.1644
15835TIP3   OH268919   0.303   5.661  12.985  0.1503 -0.3544 -0.7129
15835TIP3    H168920   0.387   5.703  12.968  1.2956 -1.8299  0.8607
15835TIP3    H268921   0.311   5.574  12.945 -0.3587 -0.7329 -0.0224
15836TIP3   OH268922   5.778   1.709  15.153  0.3590 -0.2360  0.0661
15836TIP3    H168923   5.869   1.724  15.127 -0.0560  0.6007 -0.9628
15836TIP3    H268924   5.772   1.748  15.240  1.3152 -1.4915  0.7206
15837TIP3   OH268925   5.291   4.303   0.633 -0.2535 -0.1119 -0.6254
15837TIP3    H168926   5.266   4.379   0.580  0.7273  0.2838 -0.5565
15837TIP3    H268927   5.387   4.304   0.631 -0.1144 -2.9358 -2.9321
15838TIP3   OH268928   4.758   2.289   4.206 -0.4336  0.1996 -0.2125
15838TIP3    H168929   4.794   2.293   4.295  0.1075  0.4272 -0.4438
15838TIP3    H268930   4.774   2.375   4.169 -0.6655  0.1077 -0.5318
15839TIP3   OH268931   4.383   2.434  10.907 -0.2443 -0.0996 -0.0966
15839TIP3    H168932   4.458   2.380  10.883 -0.5822 -1.2232  1.2374
15839TIP3    H268933   4.399   2.518  10.864  1.3171 -0.6049 -0.5731
15840TIP3   OH268934   0.745   2.309   2.361  0.0195 -0.2686 -0.4461
15840TIP3    H168935   0.785   2.332   2.445 -0.2030  0.1908 -0.4649
15840TIP3    H268936   0.689   2.384   2.339 -2.9681 -1.9620  0.8785
15841TIP3   OH268937   1.671   1.457  14.288  0.2537 -0.2261 -0.1937
15841TIP3    H168938   1.699   1.366  14.283  0.9421 -0.0387  0.1070
15841TIP3    H268939   1.665   1.486  14.197  1.7414 -0.0818 -0.2822
15842TIP3   OH268940   2.321   0.784   3.992  0.7574  0.8056  0.2402
15842TIP3    H168941   2.318   0.717   3.924  0.9281  1.1403 -0.0998
15842TIP3    H268942   2.382   0.749   4.057  2.8275  1.6862 -1.0965
15843TIP3   OH268943   0.889   6.145   3.178  0.3457 -0.3738  0.2770
15843TIP3    H168944   0.843   6.087   3.238  0.7277 -1.1820 -0.2036
15843TIP3    H268945   0.839   6.140   3.096 -0.1123  0.6398  0.4668
15844TIP3   OH268946   1.855   4.526   1.420  0.3934  0.5737  0.0294
15844TIP3    H168947   1.873   4.537   1.327 -0.3904  2.4951  0.0500
15844TIP3    H268948   1.782   4.465   1.423  1.5668 -0.9040 -0.4846
15845TIP3   OH268949   5.523   4.365  16.802  1.0601 -0.0146  0.1735
15845TIP3    H168950   5.491   4.349  16.891  2.2554 -1.3460  0.3977
15845TIP3    H268951   5.615   4.389  16.814  1.4274 -0.8955 -0.7350
15846TIP3   OH268952   5.746   1.857   5.315  0.2582 -0.0620  0.0580
15846TIP3    H168953   5.768   1.950   5.306 -1.0902  0.1694 -1.3423
15846TIP3    H268954   5.831   1.813   5.318  0.9337  1.2544  1.5779
15847TIP3   OH268955   3.853   1.231  12.380  0.1080 -0.3658 -0.5901
15847TIP3    H168956   3.926   1.239  12.318  1.7308 -0.2362  1.2378
15847TIP3    H268957   3.893   1.195  12.460 -1.4928  1.2381  1.0340
15848TIP3   OH268958   4.500   1.301  13.514  0.8001  0.3354 -0.0678
15848TIP3    H168959   4.498   1.311  13.419 -0.8595  0.5713 -0.0273
15848TIP3    H268960   4.468   1.212  13.529 -0.2255  0.7632  0.3254
15849TIP3   OH268961   5.648   2.582  16.746  0.0412  0.2482  0.7753
15849TIP3    H168962   5.715   2.543  16.688  0.3447  0.1296  1.1996
15849TIP3    H268963   5.636   2.518  16.815 -1.6411 -0.4319 -0.0930
15850TIP3   OH268964   0.855   4.848  13.186 -0.0011  0.1749 -0.3621
15850TIP3    H168965   0.890   4.887  13.106 -0.7997 -0.8126 -1.2286
15850TIP3    H268966   0.814   4.921  13.233 -1.9479  0.3707 -2.1988
15851TIP3   OH268967   1.906   2.247  16.586 -0.6312 -0.3462 -0.1729
15851TIP3    H168968   1.838   2.237  16.520 -0.5037 -0.4148 -0.2966
15851TIP3    H268969   1.936   2.157  16.603 -1.0549 -0.3852  0.3960
15852TIP3   OH268970   0.767   5.393  12.276  0.0534 -0.4384 -0.9102
15852TIP3    H168971   0.742   5.422  12.188 -0.8885  0.3450 -0.4028
15852TIP3    H268972   0.720   5.311  12.290 -1.1416  0.3021 -0.5048
15853TIP3   OH268973   0.599   3.648  12.918  0.0147 -0.4610  1.1416
15853TIP3    H168974   0.620   3.624  12.828 -1.3437  1.6198  0.1905
15853TIP3    H268975   0.537   3.580  12.948  1.0180 -1.5565  0.8012
15854TIP3   OH268976   0.417   3.832   4.146 -0.3690  0.3961 -0.1207
15854TIP3    H168977   0.442   3.745   4.175 -0.0367  1.2123  2.1994
15854TIP3    H268978   0.493   3.887   4.166 -0.3180  1.1557 -2.1274
15855TIP3   OH268979   0.332   2.134   3.149  0.0286  0.9262  0.4719
15855TIP3    H168980   0.270   2.200   3.178 -1.2132  0.7467 -1.5765
15855TIP3    H268981   0.297   2.102   3.065  0.3358 -2.6139  1.5004
15856TIP3   OH268982   1.721   6.573  11.884  0.0501  0.1573 -0.1397
15856TIP3    H168983   1.701   6.619  11.965  1.1430 -0.9662  0.8018
15856TIP3    H268984   1.772   6.635  11.833  1.6647  0.0043  1.1896
15857TIP3   OH268985   1.074   6.451  10.996 -0.1254 -0.4066  0.3668
15857TIP3    H168986   1.012   6.420  11.062 -1.9651 -1.5514 -1.7823
15857TIP3    H268987   1.029   6.524  10.953  0.9160  0.1335  0.1549
15858TIP3   OH268988   3.177   0.462   2.793 -0.1193  0.3827 -0.0600
15858TIP3    H168989   3.265   0.430   2.809 -0.5257 -0.8911 -0.2388
15858TIP3    H268990   3.148   0.496   2.878 -0.1826 -1.0643  0.5263
15859TIP3   OH268991   6.702   4.235  14.420  0.5071  0.7289 -0.0602
15859TIP3    H168992   6.717   4.141  14.423  1.9173  0.9253 -0.4596
15859TIP3    H268993   6.714   4.265  14.510  1.5144  0.7181 -0.1800
15860TIP3   OH268994   5.302   2.175   6.245  0.1404 -0.4524  0.4652
15860TIP3    H168995   5.276   2.200   6.333 -0.0609  1.3890 -0.0807
15860TIP3    H268996   5.397   2.187   6.244  0.3240 -1.6891  0.7681
15861TIP3   OH268997   1.994   5.959   3.715 -0.3210 -0.5116 -0.3228
15861TIP3    H168998   1.904   5.948   3.685 -0.6878  0.6526  0.2472
15861TIP3    H268999   1.992   6.043   3.762  1.2575 -0.0495 -1.0412
15862TIP3   OH269000   1.397   4.596  10.636 -0.2717  0.0068  0.3305
15862TIP3    H169001   1.380   4.667  10.697  0.1140  0.4870 -0.1126
15862TIP3    H269002   1.313   4.550  10.628 -0.5104  0.3831  0.6547
15863TIP3   OH269003   5.498   4.756   1.618 -0.2496 -0.4338 -0.5058
15863TIP3    H169004   5.495   4.666   1.648 -2.3179 -0.9230 -2.0007
15863TIP3    H269005   5.417   4.796   1.650  0.7466  1.0139  0.3623
15864TIP3   OH269006   1.318   6.306   3.705  0.0499 -0.6066 -0.0250
15864TIP3    H169007   1.354   6.287   3.618  1.1232  0.9118  0.0328
15864TIP3    H269008   1.223   6.306   3.692  0.1801 -0.7773 -1.1096
15865TIP3   OH269009   1.838   3.917   5.354  0.1374  0.1633  0.4868
15865TIP3    H169010   1.893   3.862   5.299 -1.0032 -2.0899  1.5078
15865TIP3    H269011   1.751   3.913   5.314  0.2272  2.1900 -0.0513
15866TIP3   OH269012   4.050   3.857  12.809 -0.4641 -0.0405 -0.0480
15866TIP3    H169013   4.011   3.892  12.729 -1.1909 -0.4015  0.1401
15866TIP3    H269014   4.001   3.901  12.879 -0.1664 -0.0972  0.1952
15867TIP3   OH269015   6.321   0.133   3.451 -0.0340  0.0916  0.1587
15867TIP3    H169016   6.271   0.056   3.475 -0.6996  0.1453 -0.9805
15867TIP3    H269017   6.382   0.102   3.384 -0.1216  0.4815 -0.1091
15868TIP3   OH269018   4.777   1.425   0.263  0.0757  0.2866  0.3471
15868TIP3    H169019   4.818   1.356   0.210  2.1113  2.0125 -0.4870
15868TIP3    H269020   4.812   1.411   0.351  0.0913 -0.0436  0.2912
15869TIP3   OH269021   0.337   6.730  15.100  0.1072 -0.5967 -0.8843
15869TIP3    H169022   0.275   6.740  15.028 -1.5590  2.9102  0.7631
15869TIP3    H269023   0.283   6.704  15.174  0.8673  0.6499  0.1496
15870TIP3   OH269024   4.964   3.395  14.704  0.7088 -0.0208 -0.0744
15870TIP3    H169025   4.976   3.490  14.710 -1.5531  0.4615 -2.0122
15870TIP3    H269026   4.933   3.370  14.791 -0.6301  1.3928 -0.0942
15871TIP3   OH269027   5.637   4.389  14.490 -0.2915  1.0998 -0.1676
15871TIP3    H169028   5.678   4.371  14.405 -2.9560 -0.9505 -1.1630
15871TIP3    H269029   5.622   4.484  14.490 -0.4802  1.1151 -2.1568
15872TIP3   OH269030   3.542   4.049   6.346 -0.1914  0.0615 -0.5732
15872TIP3    H169031   3.618   4.092   6.386 -0.1882  1.2975 -1.8395
15872TIP3    H269032   3.486   4.026   6.421  1.9218 -2.0135  0.5244
15873TIP3   OH269033   3.938   3.765  15.134 -0.5187  0.0909 -0.3379
15873TIP3    H169034   3.924   3.847  15.087 -0.2217 -0.5573 -1.5884
15873TIP3    H269035   3.859   3.713  15.116 -0.8444  0.2058  0.6988
15874TIP3   OH269036   2.520   5.327  12.961  0.0710  0.3844 -0.1743
15874TIP3    H169037   2.479   5.328  13.047 -0.9611  1.7601 -0.6518
15874TIP3    H269038   2.451   5.355  12.901  1.3701  1.5837 -1.1646
15875TIP3   OH269039   2.538   6.694   1.714  0.6682 -0.1795  0.2294
15875TIP3    H169040   2.603   6.747   1.760  0.5659  0.0218  0.1442
15875TIP3    H269041   2.582   6.611   1.698  1.1718  0.2186 -0.5018
15876TIP3   OH269042   0.882   4.367  12.826 -0.2781  0.5450 -0.5615
15876TIP3    H169043   0.829   4.445  12.836  1.0328  1.2111  1.8613
15876TIP3    H269044   0.964   4.398  12.788  0.4391  0.4852  0.8727
15877TIP3   OH269045   5.228   3.596  10.792 -0.6114 -0.5196 -0.1470
15877TIP3    H169046   5.169   3.569  10.721 -0.0469 -0.6581 -0.5673
15877TIP3    H269047   5.234   3.518  10.848 -2.0231 -0.0381  0.7470
15878TIP3   OH269048   4.881   2.476   1.621 -0.1690 -0.4093  0.3012
15878TIP3    H169049   4.901   2.568   1.608  0.2068 -0.3355  1.3579
15878TIP3    H269050   4.793   2.475   1.659  0.0873 -0.4430  0.9061
15879TIP3   OH269051   5.027   2.808  16.788  0.6765 -0.1157 -0.1253
15879TIP3    H169052   4.959   2.842  16.730  0.0127 -0.4487  0.4450
15879TIP3    H269053   5.104   2.861  16.768  0.0754  0.7019 -0.3263
15880TIP3   OH269054   1.189   0.298   5.975 -0.5729 -0.4129 -0.4175
15880TIP3    H169055   1.281   0.285   5.998 -0.5768  1.2505  0.7185
15880TIP3    H269056   1.175   0.242   5.899  1.0669 -1.5647  0.0655
15881TIP3   OH269057   5.545   5.838   2.209 -0.3825  0.0549  0.4229
15881TIP3    H169058   5.568   5.845   2.116  1.2546 -1.9771  0.6105
15881TIP3    H269059   5.493   5.758   2.215 -1.1942  0.6115  1.1828
15882TIP3   OH269060   5.170   2.848  14.093  0.8318  0.0917 -0.1832
15882TIP3    H169061   5.192   2.848  14.000 -0.3484 -0.4807 -0.4860
15882TIP3    H269062   5.106   2.918  14.103 -1.5823 -1.9244 -0.5059
15883TIP3   OH269063   3.867   4.514   2.802 -0.4353  0.4174 -0.4419
15883TIP3    H169064   3.849   4.560   2.719 -2.5705  1.6876  0.6266
15883TIP3    H269065   3.796   4.542   2.860  0.4573 -1.1986  1.5358
15884TIP3   OH269066   5.764   4.847  16.086  0.3288  0.2501 -0.1015
15884TIP3    H169067   5.776   4.761  16.045  0.3356 -0.0398  0.4983
15884TIP3    H269068   5.742   4.827  16.177 -2.6080  0.7759 -0.5735
15885TIP3   OH269069   5.083   3.425  13.377  0.3702 -0.1065  0.1952
15885TIP3    H169070   5.071   3.493  13.442  0.1266  0.4356 -0.4026
15885TIP3    H269071   5.045   3.346  13.416 -0.1204  0.2999  0.5469
15886TIP3   OH269072   6.572   3.279   2.980 -0.1169  0.4960 -0.2262
15886TIP3    H169073   6.572   3.212   3.048 -3.0468  0.3647 -0.2364
15886TIP3    H269074   6.624   3.351   3.016  0.0780 -0.3689  1.2859
15887TIP3   OH269075   5.277   5.706  15.857 -0.4094  0.1600 -0.0628
15887TIP3    H169076   5.271   5.615  15.828 -2.8777 -0.1767  1.2473
15887TIP3    H269077   5.214   5.753  15.802  0.3808  0.9813 -0.2930
15888TIP3   OH269078   1.685   0.135  14.060 -0.0560  0.1671 -0.5583
15888TIP3    H169079   1.679   0.190  13.982  1.2347 -0.0611 -0.8394
15888TIP3    H269080   1.710   0.195  14.130 -0.2460  0.2002 -0.5168
15889TIP3   OH269081   2.613   6.671  15.969  0.0406 -0.3380  0.0126
15889TIP3    H169082   2.621   6.738  16.037 -1.4720  1.1676 -1.1934
15889TIP3    H269083   2.678   6.696  15.903 -1.1183  0.4899 -0.8417
15890TIP3   OH269084   2.963   4.253  10.353  0.6365  0.3756  0.6305
15890TIP3    H169085   2.961   4.182  10.289  1.3113  1.8213 -1.0787
15890TIP3    H269086   2.876   4.292  10.348 -0.0365 -0.7997  2.2127
15891TIP3   OH269087   3.204   1.369  15.714  0.0705  0.1663  0.0696
15891TIP3    H169088   3.213   1.375  15.618  0.1042 -0.0068  0.0617
15891TIP3    H269089   3.260   1.439  15.747 -0.8291  0.9668 -0.0698
15892TIP3   OH269090   6.133   0.423  10.990 -0.0504  0.6621 -0.5200
15892TIP3    H169091   6.222   0.401  10.962  0.0684  1.3318 -0.6821
15892TIP3    H269092   6.122   0.376  11.072 -0.4537 -1.4656 -1.7022
15893TIP3   OH269093   0.671   3.618  12.085 -0.0053  0.0763  0.3963
15893TIP3    H169094   0.757   3.639  12.051  0.2538  0.1422  1.0722
15893TIP3    H269095   0.670   3.656  12.173 -1.2589  1.3716 -0.1298
15894TIP3   OH269096   1.749   1.090  13.464 -0.1801 -0.0083  0.0161
15894TIP3    H169097   1.765   1.183  13.481  1.2290  0.2270 -2.1758
15894TIP3    H269098   1.833   1.048  13.483 -0.3264 -0.5714 -0.5584
15895TIP3   OH269099   1.930   6.718  15.092  0.3285  1.1419 -0.1853
15895TIP3    H169100   1.902   6.661  15.020  2.4481 -1.6786  0.9961
15895TIP3    H269101   2.018   6.746  15.067 -0.5597  3.7953 -0.5879
15896TIP3   OH269102   5.257   4.763  14.314 -0.7133 -0.0837  0.0712
15896TIP3    H169103   5.205   4.835  14.277 -2.6147 -1.1051  0.6499
15896TIP3    H269104   5.260   4.781  14.408  0.5826  0.2999 -0.0197
15897TIP3   OH269105   5.912   3.318  15.338 -0.3356  0.4940 -0.4007
15897TIP3    H169106   5.841   3.271  15.382  0.9466 -1.5027 -0.3349
15897TIP3    H269107   5.975   3.338  15.408  0.1501  0.3377 -0.7853
15898TIP3   OH269108   1.599   5.914   4.473 -0.5099  0.3751  0.0971
15898TIP3    H169109   1.587   5.848   4.541 -0.4105 -0.1303 -0.3732
15898TIP3    H269110   1.551   5.991   4.506  0.9990  0.7539  1.5675
15899TIP3   OH269111   3.554   6.544  10.762  0.1780 -0.6742  0.4601
15899TIP3    H169112   3.572   6.631  10.726 -0.0098 -0.8176  0.0183
15899TIP3    H269113   3.473   6.555  10.812 -0.3928 -0.8180 -0.4212
15900TIP3   OH269114   5.238   3.778  16.008  0.3369  0.1996 -0.4581
15900TIP3    H169115   5.235   3.765  16.103  1.3340  0.4091 -0.3919
15900TIP3    H269116   5.257   3.691  15.973 -0.2108  0.0862 -0.4852
15901TIP3   OH269117   0.277   3.431   5.328  0.2374 -0.2893  0.2353
15901TIP3    H169118   0.218   3.492   5.373  0.8985  1.0425 -0.6352
15901TIP3    H269119   0.357   3.482   5.313  1.3906 -1.8572  0.8239
15902TIP3   OH269120   1.151   2.460   3.053 -0.8364 -0.2623  0.0558
15902TIP3    H169121   1.066   2.454   3.096 -0.5840  0.4625  0.6712
15902TIP3    H269122   1.163   2.554   3.036 -1.6707 -0.6049 -3.1264
15903TIP3   OH269123   2.795   6.564   5.274  0.6488 -0.3722  0.4174
15903TIP3    H169124   2.778   6.538   5.183  1.8045  2.0786 -0.6031
15903TIP3    H269125   2.719   6.616   5.299  0.2032 -1.2737  0.9835
15904TIP3   OH269126   5.959   3.871  16.042 -0.1747  0.2726 -0.5196
15904TIP3    H169127   5.903   3.800  16.072  3.4898 -3.1007 -0.7860
15904TIP3    H269128   5.969   3.928  16.118  0.5250 -2.2346  1.3802
15905TIP3   OH269129   4.216   2.745  12.575  0.1761 -0.1020  0.7140
15905TIP3    H169130   4.136   2.695  12.562 -0.7030  0.8396  2.1881
15905TIP3    H269131   4.240   2.777  12.488 -1.1169 -0.3191  0.2649
15906TIP3   OH269132   1.941   5.449   4.685 -1.0166  0.2566  0.9243
15906TIP3    H169133   1.851   5.417   4.684 -1.4865  1.3908 -1.9381
15906TIP3    H269134   1.985   5.402   4.614 -0.4234  2.3199 -0.1666
15907TIP3   OH269135   4.435   1.315  10.542  0.2776 -0.2752 -0.3454
15907TIP3    H169136   4.461   1.381  10.479 -2.8001  1.8286  0.3492
15907TIP3    H269137   4.509   1.255  10.546  1.7788  1.1087 -3.6893
15908TIP3   OH269138   4.354   0.459  12.422  0.0301 -0.7155  0.1995
15908TIP3    H169139   4.326   0.373  12.390 -3.3350 -0.0642  0.9574
15908TIP3    H269140   4.340   0.455  12.516 -0.4621  0.7251  0.2129
15909TIP3   OH269141   3.272   1.647   2.293 -0.3494 -0.4333 -0.2879
15909TIP3    H169142   3.203   1.645   2.227  0.5765 -2.5613 -1.2720
15909TIP3    H269143   3.232   1.608   2.371 -0.6163 -0.5125 -0.4643
15910TIP3   OH269144   4.289   4.043  11.930  0.3141 -0.8214  0.3264
15910TIP3    H169145   4.322   4.004  12.011  2.2414  0.4358  0.2352
15910TIP3    H269146   4.367   4.082  11.889 -1.0197  0.6989 -0.9058
15911TIP3   OH269147   6.686   2.846   0.447  0.8523 -0.2908  0.1971
15911TIP3    H169148   6.692   2.921   0.507  0.3004 -0.2514  0.2030
15911TIP3    H269149   6.658   2.773   0.502 -1.0993  0.0699 -0.2623
15912TIP3   OH269150   6.455   0.185  13.276 -0.2774 -0.2254  0.0448
15912TIP3    H169151   6.403   0.263  13.295 -0.8356  0.0429 -2.3543
15912TIP3    H269152   6.511   0.210  13.203 -1.5511 -2.4673 -1.8312
15913TIP3   OH269153   1.193   0.401   0.391 -0.0452  0.3720  0.0027
15913TIP3    H169154   1.138   0.369   0.462  0.6219  0.8097  0.7334
15913TIP3    H269155   1.139   0.463   0.343 -0.0747  1.0750  0.9319
15914TIP3   OH269156   5.778   3.386   5.050 -0.0125 -0.5290 -0.0462
15914TIP3    H169157   5.731   3.465   5.025  1.0032 -0.4449 -1.8670
15914TIP3    H269158   5.739   3.360   5.133 -1.9122  0.6096 -0.5184
15915TIP3   OH269159   3.744   6.053  12.897  0.0397  0.4449 -0.5430
15915TIP3    H169160   3.737   6.129  12.954 -0.3745 -1.0371  1.4784
15915TIP3    H269161   3.832   6.018  12.913  0.2165  0.4540 -1.4243
15916TIP3   OH269162   5.399   0.845   4.048 -0.2336 -0.0593 -0.4191
15916TIP3    H169163   5.449   0.919   4.082  0.7941 -0.7289 -0.4484
15916TIP3    H269164   5.328   0.886   3.997 -0.1090  0.9023  0.1533
15917TIP3   OH269165   2.396   3.875  14.678 -0.0189  0.1546  0.0942
15917TIP3    H169166   2.324   3.933  14.655  0.6483  0.3295 -1.6477
15917TIP3    H269167   2.354   3.791  14.697 -0.7031  0.2934 -0.7669
15918TIP3   OH269168   0.467   0.712  16.529 -0.4015 -0.2235 -0.3678
15918TIP3    H169169   0.477   0.806  16.544 -1.8562 -0.1447  0.4052
15918TIP3    H269170   0.499   0.672  16.610 -0.6150 -0.3278 -0.3339
15919TIP3   OH269171   2.022   0.360  14.642  0.0607  0.7647 -0.1178
15919TIP3    H169172   2.101   0.352  14.588 -0.2314 -0.8980 -0.3558
15919TIP3    H269173   2.022   0.281  14.697 -1.4447  0.6916 -0.1699
15920TIP3   OH269174   3.345   2.316   0.839 -0.3518  0.2622  0.7052
15920TIP3    H169175   3.291   2.373   0.894  1.5236  1.4280  1.3965
15920TIP3    H269176   3.422   2.368   0.818 -0.1863 -0.8119 -1.5763
15921TIP3   OH269177   0.824   6.263  16.533 -0.3369  0.1052  0.1750
15921TIP3    H169178   0.834   6.357  16.518 -0.0758 -0.0883 -0.9843
15921TIP3    H269179   0.913   6.231  16.546 -0.3561 -0.0834 -0.1371
15922TIP3   OH269180   6.581   1.651   0.458 -0.3805 -0.1316 -0.1426
15922TIP3    H169181   6.563   1.599   0.536 -0.2295  0.4559  0.2955
15922TIP3    H269182   6.608   1.587   0.392 -0.7766 -0.6635  0.2022
15923TIP3   OH269183   1.263   5.641  13.744  0.4950  0.1503  0.1057
15923TIP3    H169184   1.355   5.633  13.719  0.0607 -1.7118 -1.1279
15923TIP3    H269185   1.246   5.563  13.797  0.0917  1.4793  2.0420
15924TIP3   OH269186   0.761   2.814   4.654  0.6710 -0.0369  0.6815
15924TIP3    H169187   0.716   2.850   4.731 -0.3246  0.1450  0.0382
15924TIP3    H269188   0.699   2.750   4.619 -0.0904  1.7735 -1.4883
15925TIP3   OH269189   5.452   2.525   0.523 -0.6797 -0.1263  0.0067
15925TIP3    H169190   5.501   2.486   0.451  0.2739  1.1467 -0.0767
15925TIP3    H269191   5.360   2.516   0.498 -0.4397 -1.3772 -0.4646
15926TIP3   OH269192   1.031   3.911   3.631  0.0684 -0.3253 -0.0741
15926TIP3    H169193   1.087   3.950   3.698 -0.7470 -1.0114  1.0360
15926TIP3    H269194   0.983   3.842   3.677  1.2803 -2.5362 -1.8795
15927TIP3   OH269195   3.469   1.424  11.549  0.0651 -0.2847 -0.3033
15927TIP3    H169196   3.553   1.410  11.592  1.0208  0.5639 -1.7948
15927TIP3    H269197   3.425   1.340  11.553  1.2842 -0.9276 -0.1002
15928TIP3   OH269198   6.642   4.849   1.788  0.2746  0.3834  0.6271
15928TIP3    H169199   6.658   4.889   1.874  1.3312  0.7124  0.2924
15928TIP3    H269200   6.596   4.916   1.739  0.5494  0.5701  0.6191
15929TIP3   OH269201   5.227   5.666   0.969  0.1849 -0.0351  0.4812
15929TIP3    H169202   5.141   5.624   0.960  0.1655  0.0895  0.0808
15929TIP3    H269203   5.268   5.621   1.044 -0.2138 -0.1168  0.6532
15930TIP3   OH269204   1.494   2.169  13.153  0.2571 -0.3108  0.3491
15930TIP3    H169205   1.419   2.188  13.097  0.3412  1.7033  0.8277
15930TIP3    H269206   1.561   2.232  13.125  1.0666 -0.7498  1.2517
15931TIP3   OH269207   5.452   1.019  15.798  0.2535 -0.4770 -0.3319
15931TIP3    H169208   5.484   0.953  15.737  0.0056 -0.4356 -0.5078
15931TIP3    H269209   5.366   0.987  15.825 -0.0147 -0.0553 -0.6814
15932TIP3   OH269210   5.460   5.711  15.637 -0.3284 -0.0137 -0.0514
15932TIP3    H169211   5.446   5.781  15.699 -0.7654  2.2059 -2.4792
15932TIP3    H269212   5.373   5.691  15.603  0.2006  1.3987 -2.4709
15933TIP3   OH269213   1.147   1.139   1.952  0.0842  0.1445 -0.3203
15933TIP3    H169214   1.231   1.095   1.965 -0.2373 -1.0128 -1.8260
15933TIP3    H269215   1.142   1.153   1.858 -2.2306 -1.6359 -0.5683
15934TIP3   OH269216   3.480   3.927  14.262  0.3340  0.4126 -0.4315
15934TIP3    H169217   3.391   3.954  14.285  0.8183  1.5366  0.2112
15934TIP3    H269218   3.468   3.861  14.194 -1.0045  0.2225 -0.0400
15935TIP3   OH269219   5.259   6.234   3.265 -0.2622  0.5739 -0.2066
15935TIP3    H169220   5.253   6.143   3.295  1.7101 -0.0076 -1.4019
15935TIP3    H269221   5.177   6.249   3.218  0.1610 -1.2595 -1.6590
15936TIP3   OH269222   6.241   0.991  11.824 -0.2176  0.4745  0.3004
15936TIP3    H169223   6.235   1.084  11.848  1.3111  0.8616 -0.6423
15936TIP3    H269224   6.152   0.966  11.799 -0.8539  1.3948  1.5178
15937TIP3   OH269225   4.600   3.004   3.011 -0.2764 -0.1550  0.3376
15937TIP3    H169226   4.507   3.019   2.999 -0.0440  1.4410  0.2778
15937TIP3    H269227   4.637   3.011   2.923  0.1105  1.1403  0.5735
15938TIP3   OH269228   3.721   1.291  15.942 -0.3412 -0.0173 -0.4275
15938TIP3    H169229   3.704   1.299  16.036 -0.4432 -1.2459 -0.3353
15938TIP3    H269230   3.817   1.284  15.935 -0.1836  1.7078 -0.5647
15939TIP3   OH269231   4.480   3.009   1.408 -0.3904 -0.5198 -0.2185
15939TIP3    H169232   4.551   2.995   1.345 -0.8249 -0.9138 -0.6220
15939TIP3    H269233   4.466   3.103   1.408 -1.0439 -0.5998 -1.4362
15940TIP3   OH269234   4.270   4.936   3.580 -0.5480  0.5596  0.2712
15940TIP3    H169235   4.226   5.021   3.584  1.3061  1.8150 -2.7060
15940TIP3    H269236   4.357   4.953   3.615 -0.1369 -0.0717 -0.4223
15941TIP3   OH269237   1.764   4.345   5.241 -0.0632 -0.9583  0.1265
15941TIP3    H169238   1.787   4.427   5.283 -0.3260  0.0341 -1.5898
15941TIP3    H269239   1.845   4.294   5.242  0.1073 -0.6767  1.1798
15942TIP3   OH269240   2.878   2.222   6.281  0.2230 -0.4261 -0.5849
15942TIP3    H169241   2.813   2.264   6.225 -1.9445 -0.5413  1.6254
15942TIP3    H269242   2.930   2.167   6.222 -1.0561  0.4180 -2.5981
15943TIP3   OH269243   5.434   0.526   3.252  0.1232 -0.1465  0.6048
15943TIP3    H169244   5.382   0.473   3.313  0.3236 -2.3580 -1.0448
15943TIP3    H269245   5.369   0.560   3.190  0.2691 -0.2596  0.3926
15944TIP3   OH269246   4.737   0.866   0.511  0.0218  0.2611  0.1993
15944TIP3    H169247   4.655   0.863   0.560  0.8642 -0.0684  1.6799
15944TIP3    H269248   4.785   0.788   0.540  1.9259  1.7822  1.4719
15945TIP3   OH269249   1.755   5.635  11.729  0.3567 -0.4359 -0.5940
15945TIP3    H169250   1.756   5.564  11.793 -1.0322  0.4341  0.4766
15945TIP3    H269251   1.668   5.632  11.690 -0.0721  1.1931  0.1303
15946TIP3   OH269252   0.317   0.454  15.722  0.0065 -0.4476  0.5901
15946TIP3    H169253   0.384   0.469  15.788 -0.8834  1.2496  1.1620
15946TIP3    H269254   0.259   0.530  15.728  0.3943  0.3017 -2.7614
15947TIP3   OH269255   4.414   2.529  16.373  0.0343 -0.3586 -0.4774
15947TIP3    H169256   4.423   2.613  16.330  1.5853  0.7402  1.7757
15947TIP3    H269257   4.331   2.534  16.420  1.0458  0.8588  1.3329
15948TIP3   OH269258   3.401   5.231  11.622  0.2405  0.1911  0.1811
15948TIP3    H169259   3.361   5.198  11.703 -0.8155  2.3365  0.6063
15948TIP3    H269260   3.348   5.193  11.552 -0.9086  0.8940  0.6488
15949TIP3   OH269261   2.969   5.837  14.521 -0.2206 -0.5140 -0.2354
15949TIP3    H169262   2.910   5.761  14.524 -0.7396 -0.1110  2.5694
15949TIP3    H269263   3.018   5.832  14.603 -1.6023  3.1491  1.0235
15950TIP3   OH269264   2.754   0.325   4.169  0.8583  0.3450  0.1329
15950TIP3    H169265   2.738   0.413   4.134 -0.8025  0.3539  0.7979
15950TIP3    H269266   2.667   0.286   4.173  1.5048 -1.1017  0.4642
15951TIP3   OH269267   2.970   4.054   2.987 -0.1617  0.6345  0.3296
15951TIP3    H169268   2.896   4.109   2.959 -0.6050  0.0915  0.4164
15951TIP3    H269269   3.040   4.116   3.007  0.0379  1.0616 -1.5857
15952TIP3   OH269270   1.727   1.847  14.009 -0.0743  0.1823  0.0236
15952TIP3    H169271   1.747   1.802  13.928  2.4616 -1.7140  1.5725
15952TIP3    H269272   1.781   1.804  14.075  0.2108  3.5266  2.2147
15953TIP3   OH269273   3.911   0.019   3.052  0.2791  0.2237  0.1659
15953TIP3    H169274   3.949   0.082   2.990 -0.3517  0.2051 -0.2545
15953TIP3    H269275   3.894   0.070   3.131 -1.5852  0.9667 -0.6634
15954TIP3   OH269276   5.777   3.544   3.967  0.7597 -0.5089  0.6592
15954TIP3    H169277   5.763   3.535   3.872  0.9043  1.0643  0.4599
15954TIP3    H269278   5.710   3.489   4.006  0.5925 -1.0634 -0.3523
15955TIP3   OH269279   2.391   5.873  15.466  0.0832 -0.3689 -0.0248
15955TIP3    H169280   2.308   5.864  15.513 -0.2879 -0.6638 -0.7293
15955TIP3    H269281   2.367   5.910  15.381  1.0296  3.1343  1.0468
15956TIP3   OH269282   4.819   5.392  12.326  0.6872  0.6215  0.3917
15956TIP3    H169283   4.817   5.298  12.342 -1.1941  0.7920  1.4396
15956TIP3    H269284   4.846   5.430  12.409  3.9515  0.9746 -0.6879
15957TIP3   OH269285   4.490   2.443   6.197 -0.2754  0.2385 -0.0619
15957TIP3    H169286   4.539   2.525   6.201  0.2992 -0.0611 -0.7206
15957TIP3    H269287   4.444   2.438   6.281  1.9692 -0.1739  1.2378
15958TIP3   OH269288   4.823   5.692  14.440 -0.2481  0.4057  0.0006
15958TIP3    H169289   4.826   5.659  14.350 -0.6326  1.3386 -0.3666
15958TIP3    H269290   4.750   5.754  14.441 -0.5585  0.0515  1.0848
15959TIP3   OH269291   4.719   0.228   4.885  0.1155  0.3328 -0.0481
15959TIP3    H169292   4.810   0.245   4.859 -0.2376 -0.0853 -1.6585
15959TIP3    H269293   4.667   0.257   4.810 -0.9058 -1.9976 -0.3218
15960TIP3   OH269294   0.490   0.697  12.871 -0.3192  0.3581 -0.1828
15960TIP3    H169295   0.577   0.717  12.835 -0.3779  1.3156  0.1943
15960TIP3    H269296   0.431   0.758  12.826 -1.0129 -1.0878 -1.3396
15961TIP3   OH269297   3.141   5.637  13.049  0.6945  0.4399 -0.0671
15961TIP3    H169298   3.192   5.623  12.969  1.5357 -1.6323  0.7655
15961TIP3    H269299   3.075   5.702  13.024  2.9660  2.3186 -1.5096
15962TIP3   OH269300   4.174   5.518  13.013  0.5292 -0.3017 -0.2123
15962TIP3    H169301   4.103   5.576  12.986  0.6916 -1.1892 -2.7794
15962TIP3    H269302   4.251   5.575  13.018  0.0044  0.3549  1.0263
15963TIP3   OH269303   5.885   1.886  16.509 -0.3683  0.6307  0.0988
15963TIP3    H169304   5.958   1.834  16.475 -0.8867  1.0785 -1.8065
15963TIP3    H269305   5.808   1.829  16.498 -0.6991  1.1805 -0.5144
15964TIP3   OH269306   5.916   5.041   4.322  0.4794  0.1216  0.2465
15964TIP3    H169307   5.997   4.996   4.346 -1.1497 -2.2849  1.7310
15964TIP3    H269308   5.891   5.003   4.237  0.6799  0.5176  0.0113
15965TIP3   OH269309   4.485   5.500  14.435  0.2831  0.2178 -0.5197
15965TIP3    H169310   4.548   5.429  14.447  2.4295  2.1122 -0.0953
15965TIP3    H269311   4.417   5.483  14.500  0.8169 -1.3472 -0.3329
15966TIP3   OH269312   3.340   6.048   2.613 -0.3336  0.3920 -0.4466
15966TIP3    H169313   3.248   6.021   2.606 -1.0259  1.8040  2.0065
15966TIP3    H269314   3.388   5.965   2.618 -1.7482 -0.4187  0.6754
15967TIP3   OH269315   3.904   0.434   3.130  0.2672  0.0797  0.6341
15967TIP3    H169316   3.856   0.505   3.089  0.0097  0.7120  1.9918
15967TIP3    H269317   3.992   0.440   3.093 -0.0770  0.3377 -0.1593
15968TIP3   OH269318   1.676   5.073   5.347 -0.8291 -0.3399  0.2159
15968TIP3    H169319   1.680   5.023   5.428  0.5596 -2.2461 -0.9405
15968TIP3    H269320   1.589   5.053   5.311 -1.1868 -0.0177  0.8857
15969TIP3   OH269321   3.070   3.170   2.559  0.4751 -0.6909 -0.5712
15969TIP3    H169322   2.982   3.169   2.522  0.4526 -1.0634 -0.5147
15969TIP3    H269323   3.076   3.254   2.605  0.7699  0.1244 -2.0315
15970TIP3   OH269324   3.309   0.544   4.993  0.0938  0.6472 -0.1302
15970TIP3    H169325   3.354   0.572   5.073 -0.0601 -2.0448  0.9938
15970TIP3    H269326   3.327   0.451   4.987 -0.2358  0.6763 -3.0761
15971TIP3   OH269327   1.998   3.329   4.803  0.9673  0.7508  0.0874
15971TIP3    H169328   2.072   3.283   4.764 -0.2949 -0.4285 -1.0633
15971TIP3    H269329   1.999   3.303   4.896  3.2607  2.5699  0.6459
15972TIP3   OH269330   4.956   1.836  16.998  0.2767  0.1333 -0.2246
15972TIP3    H169331   4.995   1.752  16.973 -1.5204 -0.5614 -0.8814
15972TIP3    H269332   4.885   1.849  16.935 -1.8209  0.3240  2.0031
15973TIP3   OH269333   1.705   4.685   4.767  0.3011 -0.1347 -0.6009
15973TIP3    H169334   1.757   4.606   4.760 -1.0189 -1.5191  2.9052
15973TIP3    H269335   1.739   4.729   4.845 -1.8544  0.3723  0.1159
15974TIP3   OH269336   6.508   4.025   1.424 -0.3079 -0.2610 -0.1197
15974TIP3    H169337   6.476   3.935   1.415 -0.8422 -0.3084  1.7555
15974TIP3    H269338   6.549   4.045   1.340 -0.8760 -1.9748 -0.8450
15975TIP3   OH269339   1.060   5.504  16.573 -0.2261 -0.3926 -0.6351
15975TIP3    H169340   1.013   5.530  16.494 -1.2965  0.4208  0.2285
15975TIP3    H269341   1.152   5.523  16.555 -0.3634 -0.8799 -1.9236
15976TIP3   OH269342   5.530   2.761  13.731  0.1924 -0.5189 -0.0113
15976TIP3    H169343   5.461   2.750  13.666 -1.9557  0.9756  1.8396
15976TIP3    H269344   5.549   2.673  13.763 -0.6360 -0.9896 -0.7975
15977TIP3   OH269345   0.160   5.998  12.175  0.0551 -0.0852 -0.1133
15977TIP3    H169346   0.093   6.045  12.125 -0.4737 -0.0309  0.6419
15977TIP3    H269347   0.178   6.055  12.250  0.5706 -0.3495 -0.0294
15978TIP3   OH269348   1.792   2.667   6.118 -0.2139  0.5698 -0.1898
15978TIP3    H169349   1.866   2.610   6.098 -1.6129 -1.6097  0.4722
15978TIP3    H269350   1.814   2.750   6.076  1.9278 -0.4197 -1.2080
15979TIP3   OH269351   3.986   2.755  14.773  0.5179  0.2916  0.4509
15979TIP3    H169352   4.073   2.795  14.767 -0.3709  2.2781  0.0712
15979TIP3    H269353   3.972   2.715  14.687  1.0580 -0.0965  0.5356
15980TIP3   OH269354   1.952   5.561  14.388 -0.1165  0.1847 -0.1511
15980TIP3    H169355   2.047   5.557  14.399 -0.2099 -0.6199  0.4962
15980TIP3    H269356   1.935   5.649  14.355  0.4167  2.3109  4.4650
15981TIP3   OH269357   3.999   6.510   6.582  0.5393 -0.1580  0.4572
15981TIP3    H169358   4.027   6.601   6.591 -0.4742  0.1855  0.2627
15981TIP3    H269359   4.063   6.460   6.632  0.8884  0.7047  0.8902
15982TIP3   OH269360   3.247   2.304  16.239  0.2799  0.6088  0.0071
15982TIP3    H169361   3.255   2.345  16.153  0.1342 -0.2573 -0.4289
15982TIP3    H269362   3.336   2.301  16.273  0.6560 -1.0509 -1.0658
15983TIP3   OH269363   6.363   4.506  15.884 -0.1565 -0.1077  0.0077
15983TIP3    H169364   6.285   4.561  15.896  0.4544  1.0158 -0.9522
15983TIP3    H269365   6.397   4.531  15.798  1.5853 -0.1451  0.6495
15984TIP3   OH269366   1.283   1.389  12.780 -0.0636 -0.1071  0.0570
15984TIP3    H169367   1.368   1.373  12.739  0.5313  0.2352  1.1382
15984TIP3    H269368   1.220   1.373  12.710  0.8677 -0.6680 -0.6797
15985TIP3   OH269369   6.007   1.142   6.069  0.0049 -0.1760  0.7493
15985TIP3    H169370   6.040   1.116   5.983  0.3335 -0.5071  0.9749
15985TIP3    H269371   5.917   1.171   6.052  0.6936  1.6526 -0.0231
15986TIP3   OH269372   1.371   5.001   0.729 -0.0993 -0.6170  0.4209
15986TIP3    H169373   1.412   4.923   0.768  3.1907 -0.0204 -1.4580
15986TIP3    H269374   1.392   4.995   0.636 -2.1939  1.1742 -0.2457
15987TIP3   OH269375   5.390   6.348  12.827 -0.5715  0.4627  0.0950
15987TIP3    H169376   5.307   6.381  12.861 -0.0601  3.0861 -0.9983
15987TIP3    H269377   5.369   6.317  12.739 -0.6634 -0.2993  0.3794
15988TIP3   OH269378   0.239   6.573  14.148  0.2499  0.1686  0.9011
15988TIP3    H169379   0.228   6.664  14.122  1.4912 -0.1411 -0.8985
15988TIP3    H269380   0.313   6.574  14.209 -0.2758  0.4528  1.5415
15989TIP3   OH269381   3.353   3.540   4.748 -0.4690 -0.1436  0.5306
15989TIP3    H169382   3.381   3.451   4.729  0.0352  0.4404 -1.8499
15989TIP3    H269383   3.368   3.551   4.842  0.0146 -2.3408  0.7599
15990TIP3   OH269384   0.591   2.984  12.288  0.0448  0.2586 -0.0287
15990TIP3    H169385   0.672   3.035  12.284  0.2609  0.1130  1.7046
15990TIP3    H269386   0.589   2.937  12.205  0.9553  1.4081 -0.7405
15991TIP3   OH269387   6.641   6.668   2.237 -0.1743  0.8102  0.1609
15991TIP3    H169388   6.640   6.588   2.289 -1.0448  1.0065  0.4670
15991TIP3    H269389   6.548   6.694   2.231 -0.0141  1.1819 -0.8803
15992TIP3   OH269390   2.222   4.672   2.030  0.2387 -0.0787  0.2850
15992TIP3    H169391   2.167   4.627   1.966 -1.0913  0.5021  0.9921
15992TIP3    H269392   2.307   4.629   2.022  0.8231  1.3956 -3.4139
15993TIP3   OH269393   1.585   6.489   5.843  0.7997 -0.4817  0.1972
15993TIP3    H169394   1.602   6.575   5.881 -2.9934  0.3917  0.3265
15993TIP3    H269395   1.567   6.433   5.919  0.6730 -0.7060  0.0020
15994TIP3   OH269396   5.164   2.669  10.760 -0.7460 -0.2884  0.5731
15994TIP3    H169397   5.130   2.758  10.757  1.1922  0.6399  2.8889
15994TIP3    H269398   5.112   2.625  10.827 -0.9281 -0.5553  0.2619
15995TIP3   OH269399   1.074   5.293   5.661  0.1003 -0.8080  0.3108
15995TIP3    H169400   1.069   5.319   5.753 -0.4663 -1.3193  0.4311
15995TIP3    H269401   1.139   5.351   5.623 -0.4485  0.1382  0.7902
15996TIP3   OH269402   1.650   5.573  13.983 -0.1723  0.3341  0.4031
15996TIP3    H169403   1.558   5.595  14.001 -0.8210 -0.4223 -1.6171
15996TIP3    H269404   1.678   5.522  14.059 -2.1628 -1.3369  0.1261
15997TIP3   OH269405   0.198   1.496  16.506  0.2409  0.6293 -0.2335
15997TIP3    H169406   0.121   1.464  16.553  1.8268 -0.5540  1.7254
15997TIP3    H269407   0.229   1.421  16.456  0.5367  0.8823 -0.4390
15998TIP3   OH269408   6.387   3.821   5.166  1.0465 -0.4025 -0.5910
15998TIP3    H169409   6.408   3.801   5.075 -0.3842 -1.0791 -0.7905
15998TIP3    H269410   6.411   3.914   5.176 -4.4649  1.7731 -3.5238
15999TIP3   OH269411   3.127   6.139  11.519  0.3751 -0.8191  0.5730
15999TIP3    H169412   3.126   6.089  11.438 -1.7079 -1.2559  0.8131
15999TIP3    H269413   3.063   6.095  11.575  1.0947  0.0225  2.1153
16000TIP3   OH269414   5.633   2.122  12.990  0.5494 -0.1085  0.0995
16000TIP3    H169415   5.610   2.133  13.082 -0.6121  1.9729 -0.3851
16000TIP3    H269416   5.597   2.037  12.967  0.1671 -0.3171  1.3713
16001TIP3   OH269417   2.780   4.119  14.723 -0.0694 -0.1089 -0.2493
16001TIP3    H169418   2.802   4.058  14.652  0.0149  0.9346 -1.1369
16001TIP3    H269419   2.722   4.183  14.683  1.4091  1.5421  0.1251
16002TIP3   OH269420   0.133   3.870   4.589 -0.7225 -0.3186 -0.0531
16002TIP3    H169421   0.084   3.936   4.638  2.4077  0.8091  1.7743
16002TIP3    H269422   0.185   3.920   4.526 -0.7755 -1.3805 -0.9902
16003TIP3   OH269423   0.376   0.258  14.031  0.6431 -0.0895  0.2632
16003TIP3    H169424   0.467   0.282  14.013  0.7998 -0.6905  0.2356
16003TIP3    H269425   0.345   0.326  14.091  0.8104  0.6512 -0.4789
16004TIP3   OH269426   2.211   6.522  13.010 -0.0257 -0.6596 -0.3476
16004TIP3    H169427   2.297   6.520  12.967 -1.1593  0.4983 -2.8819
16004TIP3    H269428   2.185   6.614  13.005 -1.7617 -1.1296 -0.3827
16005TIP3   OH269429   0.877   4.645   1.125  0.2774  0.3803  0.4502
16005TIP3    H169430   0.939   4.606   1.187  0.1462 -0.6877 -0.0777
16005TIP3    H269431   0.791   4.612   1.152 -0.1096  1.9005  1.2165
16006TIP3   OH269432   1.638   6.333   4.149  0.3588  0.6072  0.0464
16006TIP3    H169433   1.556   6.384   4.144 -0.4956 -0.7240  0.1299
16006TIP3    H269434   1.664   6.339   4.240 -0.2444  0.1522  0.2578
16007TIP3   OH269435   3.202   4.372  14.509  0.1815  0.4877  0.0705
16007TIP3    H169436   3.172   4.330  14.429  0.1703  0.4078  0.1161
16007TIP3    H269437   3.285   4.328  14.529 -1.1269 -1.4670  1.6269
16008TIP3   OH269438   0.325   4.632  12.519  0.3109 -0.5610 -0.6450
16008TIP3    H169439   0.258   4.566  12.535  0.9371 -1.4496 -1.6186
16008TIP3    H269440   0.357   4.655  12.607 -0.9947 -0.3755 -0.1941
16009TIP3   OH269441   5.626   6.165   3.562 -0.0177 -0.0511  0.2541
16009TIP3    H169442   5.720   6.183   3.567  0.0121 -0.2311  0.3522
16009TIP3    H269443   5.597   6.208   3.482  0.1396  0.0490  0.2517
16010TIP3   OH269444   5.325   1.862   0.927  0.0131  0.2326  1.2476
16010TIP3    H169445   5.376   1.784   0.902  0.6976  1.0101  0.1045
16010TIP3    H269446   5.267   1.878   0.853 -0.3738  0.6114  1.6249
16011TIP3   OH269447   5.009   4.643   3.932 -0.3671 -0.2634  0.0896
16011TIP3    H169448   5.005   4.551   3.959 -3.0215 -0.5929 -1.0507
16011TIP3    H269449   5.100   4.658   3.907  0.5937 -1.9448  2.2848
16012TIP3   OH269450   2.280   4.814  15.846  0.1853  0.1051  0.4374
16012TIP3    H169451   2.372   4.791  15.834  0.6706  2.8156 -2.0631
16012TIP3    H269452   2.281   4.907  15.867 -1.9528 -0.2288  2.3735
16013TIP3   OH269453   6.329   5.857  13.291 -0.3811 -0.4467 -0.1250
16013TIP3    H169454   6.399   5.904  13.246 -1.3405  0.3295 -0.8598
16013TIP3    H269455   6.357   5.854  13.382 -1.1176  3.3330  0.3940
16014TIP3   OH269456   3.048   4.387   4.241  0.1098  1.0463 -0.3366
16014TIP3    H169457   2.983   4.444   4.280 -0.2569 -0.1447  0.8703
16014TIP3    H269458   3.103   4.359   4.314 -0.5101 -1.1313 -0.6301
16015TIP3   OH269459   5.183   3.931   4.007 -0.5307  0.1899  0.5956
16015TIP3    H169460   5.137   4.007   4.044 -0.0484  0.7010  0.1522
16015TIP3    H269461   5.132   3.907   3.930  0.6925  1.6290 -0.7115
16016TIP3   OH269462   6.744   4.322   1.792  0.2885  0.1711 -0.4591
16016TIP3    H169463   6.717   4.284   1.709  0.7248  0.2614 -0.6426
16016TIP3    H269464   6.716   4.259   1.858 -0.3428  0.2456 -0.6460
16017TIP3   OH269465   0.793   2.044  14.698  0.3703 -0.5888 -0.9233
16017TIP3    H169466   0.814   2.016  14.609 -0.7115  0.3108 -1.4885
16017TIP3    H269467   0.782   2.139  14.691 -3.8401 -0.8750 -0.7729
16018TIP3   OH269468   4.940   0.638  13.924 -0.4721 -0.0896 -0.3722
16018TIP3    H169469   4.885   0.571  13.966  1.5422 -1.6266 -0.0396
16018TIP3    H269470   4.969   0.693  13.996  1.4606 -1.6084  0.1117
16019TIP3   OH269471   2.424   5.991   2.768  0.1285 -0.0844 -0.1011
16019TIP3    H169472   2.338   5.966   2.803 -0.5046  0.5004 -1.1598
16019TIP3    H269473   2.465   5.908   2.746 -0.2976 -0.3668  0.1466
16020TIP3   OH269474   0.561   4.626   6.101  0.0717 -0.6150  0.2724
16020TIP3    H169475   0.492   4.565   6.126 -0.3776 -0.3749 -0.3660
16020TIP3    H269476   0.557   4.695   6.167 -1.2314  0.1145 -0.5470
16021TIP3   OH269477   2.050   2.966  14.843  0.7431  0.3252  0.1230
16021TIP3    H169478   2.013   2.896  14.897 -1.1356  0.0312 -1.4425
16021TIP3    H269479   2.143   2.968  14.867  0.5119 -1.5847  1.3911
16022TIP3   OH269480   3.690   6.071   0.914 -0.0121 -0.1010 -0.0382
16022TIP3    H169481   3.782   6.053   0.896 -0.3582 -1.3931 -0.6584
16022TIP3    H269482   3.690   6.109   1.002  0.9530 -1.9611  0.8290
16023TIP3   OH269483   4.249   2.014   4.055 -0.0842 -0.4871 -0.6202
16023TIP3    H169484   4.343   2.015   4.071  0.1822 -0.9965 -1.9913
16023TIP3    H269485   4.210   2.038   4.138  1.3072  1.2133 -0.3995
16024TIP3   OH269486   6.484   6.427   1.688  0.1039 -0.6494 -0.2950
16024TIP3    H169487   6.454   6.451   1.776 -0.0540  0.0183 -0.5223
16024TIP3    H269488   6.572   6.463   1.683  0.4063 -1.3556 -0.1418
16025TIP3   OH269489   4.270   2.211   3.855 -0.2813 -0.0006  0.0512
16025TIP3    H169490   4.202   2.167   3.907 -0.6101 -1.3458 -1.4533
16025TIP3    H269491   4.340   2.229   3.918 -1.0370 -0.7386  1.1423
16026TIP3   OH269492   3.030   5.313  11.928 -0.8336  1.1720  0.1878
16026TIP3    H169493   2.968   5.250  11.966  0.5017 -0.0718  0.4230
16026TIP3    H269494   3.008   5.314  11.835 -0.9574  0.4430  0.2008
16027TIP3   OH269495   6.528   2.986   4.679  0.0465  0.1858  0.0356
16027TIP3    H169496   6.605   3.034   4.711 -0.5777  0.2946  1.4859
16027TIP3    H269497   6.513   2.919   4.746 -1.0028  0.0540 -0.3184
16028TIP3   OH269498   5.701   5.513  14.717 -0.1970 -0.0738  0.0741
16028TIP3    H169499   5.776   5.528  14.773 -0.0474  0.2619 -0.2127
16028TIP3    H269500   5.737   5.511  14.628 -0.5106 -0.0143 -0.0576
16029TIP3   OH269501   2.934   6.169  12.647 -0.3850 -0.4495  0.1228
16029TIP3    H169502   2.968   6.143  12.733  1.2830  3.0372  0.6979
16029TIP3    H269503   2.867   6.234  12.666 -1.5218 -1.1695 -1.2378
16030TIP3   OH269504   5.379   0.627   3.687  0.2236  0.1000 -0.0039
16030TIP3    H169505   5.460   0.637   3.737  1.8072 -3.6108 -1.4751
16030TIP3    H269506   5.322   0.575   3.744 -0.5510  1.2862  0.3545
16031TIP3   OH269507   2.546   6.010  14.528  0.0541  0.1864 -0.3860
16031TIP3    H169508   2.455   6.014  14.558  0.6800  0.1950  1.7049
16031TIP3    H269509   2.540   5.995  14.434 -2.1045  1.0756 -0.4506
16032TIP3   OH269510   2.296   1.283  10.525  1.0954 -0.1643  0.3484
16032TIP3    H169511   2.211   1.314  10.494  1.7732  0.0484 -1.4238
16032TIP3    H269512   2.277   1.198  10.566 -0.2060  0.7261  1.6720
16033TIP3   OH269513   2.813   4.968  11.682  0.5096 -0.2885  0.0547
16033TIP3    H169514   2.728   4.924  11.684 -0.7972  2.0877 -0.2178
16033TIP3    H269515   2.832   4.980  11.589  1.0759 -0.6720  0.1177
16034TIP3   OH269516   0.790   6.226   4.546 -0.1189 -0.2939 -0.6514
16034TIP3    H169517   0.712   6.184   4.583  0.7072 -1.2224  0.1073
16034TIP3    H269518   0.772   6.319   4.551 -0.7281 -0.4552  0.5691
16035TIP3   OH269519   3.051   1.593   1.686  0.0527  0.0022 -0.9111
16035TIP3    H169520   3.056   1.499   1.701 -1.2443 -0.0304 -0.5445
16035TIP3    H269521   3.030   1.602   1.593  1.2060 -0.0255 -1.1836
16036TIP3   OH269522   4.594   3.508  12.452  0.3758 -0.1544  0.3470
16036TIP3    H169523   4.612   3.417  12.476  1.0351  0.1190  0.9328
16036TIP3    H269524   4.633   3.560  12.523  0.4617  0.6031 -0.2408
16037TIP3   OH269525   0.884   2.590   4.902  0.1284  0.2465 -0.6661
16037TIP3    H169526   0.896   2.504   4.942 -2.9941  0.6649  1.5798
16037TIP3    H269527   0.864   2.571   4.810 -1.0786 -1.5544 -0.0865
16038TIP3   OH269528   0.362   1.099  15.412 -0.1944 -0.0637 -0.2631
16038TIP3    H169529   0.344   1.065  15.500  1.2127 -0.2690 -0.0358
16038TIP3    H269530   0.307   1.047  15.354  0.2045 -1.1723  0.3207
16039TIP3   OH269531   2.880   1.120  15.554  0.1611 -0.0851 -0.0900
16039TIP3    H169532   2.876   1.027  15.573  1.5038  0.0028  0.7580
16039TIP3    H269533   2.815   1.160  15.612  0.4936 -0.3758  0.4949
16040TIP3   OH269534   5.335   3.288   5.795 -0.3012 -0.3816  0.1333
16040TIP3    H169535   5.417   3.312   5.838  0.3094 -0.2446 -1.0451
16040TIP3    H269536   5.314   3.363   5.739 -0.9238 -0.6470 -0.0040
16041TIP3   OH269537   1.804   4.487  12.212 -0.0090 -0.6852  0.1375
16041TIP3    H169538   1.780   4.395  12.214  1.1001 -0.9733  0.2370
16041TIP3    H269539   1.889   4.492  12.255  0.2633  0.2852 -0.4726
16042TIP3   OH269540   0.597   1.859  14.816 -0.4104  0.0096 -0.0500
16042TIP3    H169541   0.651   1.913  14.758 -1.5139  2.4687  1.0695
16042TIP3    H269542   0.595   1.774  14.773 -1.3700  1.6899 -3.8405
16043TIP3   OH269543   5.599   4.049  15.209 -0.6317 -0.5693 -0.5717
16043TIP3    H169544   5.510   4.016  15.216 -0.7835 -0.0818 -0.0739
16043TIP3    H269545   5.654   3.983  15.252 -1.1965  0.8708  2.7180
16044TIP3   OH269546   1.080   1.380  13.372  0.0325 -0.0490 -0.2306
16044TIP3    H169547   0.998   1.356  13.415  0.0841  0.0132 -0.0986
16044TIP3    H269548   1.069   1.473  13.350  0.2342  0.0725  0.1659
16045TIP3   OH269549   2.965   5.091  14.177 -0.1817 -0.4996  0.2781
16045TIP3    H169550   3.026   5.040  14.231 -0.3789 -0.5532  0.4540
16045TIP3    H269551   2.969   5.051  14.091  0.0481 -0.4897  0.2834
16046TIP3   OH269552   2.716   5.736  17.095  0.2105  0.4217 -0.3983
16046TIP3    H169553   2.715   5.801  17.024  0.5169 -0.4601 -1.2288
16046TIP3    H269554   2.800   5.750  17.139 -0.1601  1.2516  0.0806
16047TIP3   OH269555   4.336   2.008   2.897  0.1461 -0.0142  0.8082
16047TIP3    H169556   4.340   1.921   2.857  0.9678  0.8298 -1.0744
16047TIP3    H269557   4.243   2.027   2.905 -0.0556 -0.1912 -0.8542
16048TIP3   OH269558   6.613   6.572  14.806 -0.4819  0.1977  0.0960
16048TIP3    H169559   6.582   6.549  14.718 -1.0097  2.2142 -0.2933
16048TIP3    H269560   6.589   6.663  14.817  1.6268  0.6638  1.4457
16049TIP3   OH269561   3.030   5.266  13.729  0.7231 -0.1542 -0.4971
16049TIP3    H169562   2.971   5.222  13.791 -1.0366  3.1990  0.4459
16049TIP3    H269563   2.971   5.303  13.663  2.2975 -0.8297 -2.3668
16050TIP3   OH269564   4.661   3.936   2.384 -0.1799 -0.2576 -0.4632
16050TIP3    H169565   4.726   3.930   2.454 -1.1978  0.4407  0.5842
16050TIP3    H269566   4.618   3.851   2.384 -0.4814 -0.1083  0.0756
16051TIP3   OH269567   3.887   0.819   4.199 -0.2926  0.0169  0.5528
16051TIP3    H169568   3.959   0.761   4.175  0.9201  0.8453  2.0375
16051TIP3    H269569   3.826   0.813   4.125  0.4042 -2.1137  0.0754
16052TIP3   OH269570   5.282   3.035   5.691  0.1097 -0.0003  0.4354
16052TIP3    H169571   5.187   3.043   5.703 -0.3930  1.7315 -3.2049
16052TIP3    H269572   5.314   3.125   5.688  1.2159 -0.3851 -1.8282
16053TIP3   OH269573   3.342   1.782  15.705 -0.0954  0.4052  0.1910
16053TIP3    H169574   3.402   1.845  15.665  1.3563 -0.9417  0.1268
16053TIP3    H269575   3.300   1.829  15.776  0.5129  1.5998 -0.2185
16054TIP3   OH269576   5.509   1.669  11.632 -0.5287 -0.1863  0.1990
16054TIP3    H169577   5.556   1.710  11.705  0.1721  0.1662 -0.4286
16054TIP3    H269578   5.448   1.736  11.602 -2.3810 -1.0546  1.7905
16055TIP3   OH269579   0.384   0.465   1.964  0.3363  0.4572  0.0806
16055TIP3    H169580   0.421   0.389   1.919  1.2866  0.6273  0.5499
16055TIP3    H269581   0.453   0.532   1.959 -0.6412  1.4509 -0.7007
16056TIP3   OH269582   5.176   2.151   1.024 -0.1387  1.0998  0.1660
16056TIP3    H169583   5.252   2.191   1.067 -0.0127 -0.9993  2.1047
16056TIP3    H269584   5.200   2.146   0.931  1.3663  2.0091  0.4815
16057TIP3   OH269585   4.762   0.390   0.456  0.5116  0.3889  0.6353
16057TIP3    H169586   4.803   0.319   0.505  1.0653  0.9097  0.9361
16057TIP3    H269587   4.680   0.408   0.502 -0.8836 -1.7213 -0.8690
16058TIP3   OH269588   5.873   6.299   5.217 -0.2741  0.1811  0.1242
16058TIP3    H169589   5.892   6.274   5.126 -0.4093 -0.5184  0.2831
16058TIP3    H269590   5.951   6.345   5.246  0.1378 -0.3751 -0.0711
16059TIP3   OH269591   2.154   0.054  17.070  0.3506 -0.0235  0.3806
16059TIP3    H169592   2.080   0.096  17.026 -0.0055 -1.0406 -0.0365
16059TIP3    H269593   2.163  -0.030  17.024 -0.9067 -1.7735  3.0790
16060TIP3   OH269594   0.956   2.834  16.008  0.5660  0.1541  0.1451
16060TIP3    H169595   0.879   2.786  15.977  1.6394 -1.0357 -0.8042
16060TIP3    H269596   0.952   2.919  15.963  0.9640 -0.7522 -1.7084
16061TIP3   OH269597   4.183   3.024   3.463 -1.0816  0.4106  0.3595
16061TIP3    H169598   4.156   2.993   3.550 -0.7015 -2.5989 -0.4801
16061TIP3    H269599   4.230   2.950   3.425 -0.6780  1.8676 -2.1864
16062TIP3   OH269600   2.694   5.886  15.411  0.8722  0.6298 -0.3260
16062TIP3    H169601   2.707   5.954  15.346  0.2437  0.7933 -0.2934
16062TIP3    H269602   2.612   5.911  15.455  0.9179  0.1429  0.0436
16063TIP3   OH269603   4.126   4.037   5.539  0.2411 -0.3201 -0.0887
16063TIP3    H169604   4.201   4.039   5.600  0.8088  0.6766 -0.7957
16063TIP3    H269605   4.083   4.122   5.551 -2.4195 -1.8147  2.2380
16064TIP3   OH269606   6.709   5.092   0.033  0.4779 -0.3737  0.0425
16064TIP3    H169607   6.678   5.107   0.123 -0.3337  0.9013 -0.4283
16064TIP3    H269608   6.780   5.156   0.022  1.4887 -1.4306  0.1930
16065TIP3   OH269609   5.590   3.883   4.882  0.3044 -0.7829 -0.7034
16065TIP3    H169610   5.506   3.929   4.880  0.7416  0.0864  0.0452
16065TIP3    H269611   5.620   3.884   4.791 -0.1924 -0.5189 -0.8663
16066TIP3   OH269612   2.744   1.218   5.067 -0.1645  0.0405 -0.1093
16066TIP3    H169613   2.710   1.270   5.139 -0.0417 -2.1765  1.6471
16066TIP3    H269614   2.768   1.134   5.106  1.1337 -0.8134 -2.5019
16067TIP3   OH269615   3.806   4.944   1.779 -0.4871 -0.1268 -0.5122
16067TIP3    H169616   3.772   5.032   1.793 -0.4980 -0.3519  1.0255
16067TIP3    H269617   3.754   4.909   1.707  0.1491  1.4407 -1.7919
16068TIP3   OH269618   1.844   0.638   2.719  0.0784  0.1305  0.0575
16068TIP3    H169619   1.757   0.672   2.698  0.2260  0.2088 -0.4211
16068TIP3    H269620   1.904   0.709   2.696  0.2815  0.0322  0.2796
16069TIP3   OH269621   0.491   1.186  15.140 -0.4171 -0.2261  0.0402
16069TIP3    H169622   0.568   1.150  15.185 -0.0233  0.5612  0.0093
16069TIP3    H269623   0.423   1.120  15.153 -0.0009 -0.5107  0.8763
16070TIP3   OH269624   5.324   2.044  14.322 -0.1006 -0.0662 -0.1213
16070TIP3    H169625   5.230   2.031  14.333  0.0358 -2.0240 -0.9456
16070TIP3    H269626   5.335   2.072  14.232  0.0671  0.7569  0.1480
16071TIP3   OH269627   4.287   6.092  14.185 -0.2005  0.1146 -0.0233
16071TIP3    H169628   4.357   6.036  14.218  0.2523 -0.3100 -1.6484
16071TIP3    H269629   4.224   6.097  14.258  0.6170 -1.0105  0.7838
16072TIP3   OH269630   0.911   2.144   5.275  0.0296 -0.1241  0.3641
16072TIP3    H169631   0.981   2.209   5.271  0.8606 -0.9912  0.3487
16072TIP3    H269632   0.882   2.144   5.366 -1.0163  1.3070  0.0642
16073TIP3   OH269633   6.452   1.881  14.431 -0.4223 -0.5072 -0.0198
16073TIP3    H169634   6.548   1.879  14.437 -0.4124  1.8188  2.1285
16073TIP3    H269635   6.423   1.820  14.499 -0.4505 -0.4279  0.0394
16074TIP3   OH269636   5.077   4.900  12.535  0.1343  0.6031  0.0947
16074TIP3    H169637   5.090   4.879  12.627 -0.4358  0.0770  0.0619
16074TIP3    H269638   5.089   4.995  12.529 -0.4209  0.7257  0.8138
16075TIP3   OH269639   3.065   0.184   1.001  0.2143 -0.0256  0.2941
16075TIP3    H169640   3.024   0.228   1.076  2.6824  1.0995  1.0862
16075TIP3    H269641   3.054   0.245   0.928  1.1089  0.6247  0.6906
16076TIP3   OH269642   3.951   0.117   1.601  0.3122 -0.4898 -0.3732
16076TIP3    H169643   3.986   0.036   1.637  0.3024 -0.8824 -1.2117
16076TIP3    H269644   3.856   0.110   1.611  0.2654 -0.8792 -1.0208
16077TIP3   OH269645   0.971   4.915  16.789  0.2500  0.0551  0.3493
16077TIP3    H169646   0.912   4.851  16.748 -0.4395 -0.1389  1.5926
16077TIP3    H269647   0.916   4.960  16.853  0.4122  2.7232 -1.2360
16078TIP3   OH269648   2.373   3.651  17.031  0.3895 -0.4401 -0.1571
16078TIP3    H169649   2.302   3.588  17.029 -0.3138  0.3032  0.8090
16078TIP3    H269650   2.394   3.667  16.939 -1.6354  0.3754 -0.5106
16079TIP3   OH269651   0.521   2.025   4.989  0.0086 -0.1824  0.1009
16079TIP3    H169652   0.444   2.053   4.939  1.8661  2.1499 -1.6958
16079TIP3    H269653   0.490   2.021   5.080 -1.4996  4.4301  0.0573
16080TIP3   OH269654   3.436   2.049   1.257 -0.2381  0.3179  0.3185
16080TIP3    H169655   3.380   2.123   1.235 -1.1386 -0.4093  0.1442
16080TIP3    H269656   3.497   2.043   1.183 -2.6847 -1.5662 -1.7443
16081TIP3   OH269657   6.296   1.217   2.623  0.1473  0.0528  0.3119
16081TIP3    H169658   6.238   1.146   2.649 -0.1485  0.1953  0.0559
16081TIP3    H269659   6.239   1.293   2.613 -0.0631 -0.3286 -2.2429
16082TIP3   OH269660   6.717   5.139  16.749  0.0424  0.1341  0.4658
16082TIP3    H169661   6.664   5.207  16.791 -0.0934 -0.5379  1.4302
16082TIP3    H269662   6.674   5.057  16.774  0.6469 -0.3451 -0.0312
16083TIP3   OH269663   2.724   3.465   3.616  0.8716  0.1419  0.7850
16083TIP3    H169664   2.663   3.428   3.552  3.5682 -0.3204 -1.7593
16083TIP3    H269665   2.752   3.390   3.669  1.2352 -0.2043  0.1263
16084TIP3   OH269666   5.322   1.186   0.570  0.2286 -0.1923 -0.4581
16084TIP3    H169667   5.333   1.203   0.476  0.1165 -1.6648 -0.7547
16084TIP3    H269668   5.371   1.105   0.586 -0.2304 -0.2672  0.6464
16085TIP3   OH269669   3.660   4.213   4.376 -0.3659  0.0965  0.2031
16085TIP3    H169670   3.635   4.255   4.294 -0.5414 -0.4916 -0.0555
16085TIP3    H269671   3.734   4.264   4.408  0.8144 -0.6613 -1.1891
16086TIP3   OH269672   5.347   3.611   3.108 -0.1159  0.7715 -0.5880
16086TIP3    H169673   5.441   3.627   3.115  0.2353 -1.2588 -0.1272
16086TIP3    H269674   5.310   3.652   3.186  0.4028  1.3314 -0.6249
16087TIP3   OH269675   4.391   4.157  15.319  0.2950 -0.4299 -0.1672
16087TIP3    H169676   4.335   4.158  15.241  2.8571  1.7577 -2.1994
16087TIP3    H269677   4.460   4.094  15.297  0.6794 -0.2878  0.6192
16088TIP3   OH269678   1.522   4.482   3.746  0.1824  0.2171 -1.0868
16088TIP3    H169679   1.527   4.394   3.784 -0.9761  0.2228 -0.8837
16088TIP3    H269680   1.594   4.485   3.683 -0.3401 -1.2248 -1.8086
16089TIP3   OH269681   4.173   3.610  15.517  0.3594 -0.3546 -0.3880
16089TIP3    H169682   4.112   3.632  15.588 -0.1571 -3.0522  0.1353
16089TIP3    H269683   4.129   3.641  15.438 -1.3384 -1.3973  0.0713
16090TIP3   OH269684   0.112   4.641   1.673  0.5259  0.6915 -0.3590
16090TIP3    H169685   0.200   4.609   1.692  0.2961 -0.0546 -0.5524
16090TIP3    H269686   0.096   4.618   1.582 -0.8713 -1.5677  0.3742
16091TIP3   OH269687   6.009   3.710   3.776  0.1789  0.6906  0.2784
16091TIP3    H169688   5.965   3.686   3.695  2.7033 -0.2357 -0.9431
16091TIP3    H269689   6.022   3.804   3.769  0.7646  0.5535 -0.6310
16092TIP3   OH269690   1.466   0.803  11.580 -0.3995  0.0973 -0.2965
16092TIP3    H169691   1.498   0.877  11.528 -1.8850  0.2867 -1.0004
16092TIP3    H269692   1.545   0.755  11.605  0.8762  3.1301  2.1443
16093TIP3   OH269693   1.138   3.149  15.816 -0.0886 -0.1641 -0.0883
16093TIP3    H169694   1.049   3.128  15.843  0.6851 -1.2646  1.7557
16093TIP3    H269695   1.193   3.081  15.856  1.7915  1.5432  0.4080
16094TIP3   OH269696   4.592   0.423   5.359  0.2514 -0.4475  0.6652
16094TIP3    H169697   4.675   0.469   5.373  0.3558 -0.5834  0.4953
16094TIP3    H269698   4.608   0.365   5.284 -0.7297  1.3611 -1.0682
16095TIP3   OH269699   4.659   0.578  13.632  0.2644 -0.3483  0.1466
16095TIP3    H169700   4.660   0.526  13.712  0.2167 -2.6366 -1.2641
16095TIP3    H269701   4.689   0.518  13.564 -3.0247  0.4196 -2.1894
16096TIP3   OH269702   6.520   0.705   0.310  0.2418  0.0273  0.1017
16096TIP3    H169703   6.538   0.653   0.231 -0.3029  0.0636 -0.0452
16096TIP3    H269704   6.530   0.796   0.282 -0.2713  0.0508 -0.0044
16097TIP3   OH269705   0.724   3.292   3.015  0.5383  0.0022  0.3236
16097TIP3    H169706   0.670   3.370   3.006 -2.0884 -1.6459  0.5700
16097TIP3    H269707   0.768   3.283   2.931  2.1740  2.5068  0.7976
16098TIP3   OH269708   2.039   6.248  16.358 -0.0720 -0.2529 -0.2984
16098TIP3    H169709   2.035   6.338  16.326  1.7231 -0.2548 -0.6344
16098TIP3    H269710   1.967   6.241  16.421 -1.2395  0.9202 -1.4303
16099TIP3   OH269711   0.593   2.048  16.170  0.2950  0.2975 -0.0743
16099TIP3    H169712   0.572   1.970  16.119  1.7763  1.3569 -2.4675
16099TIP3    H269713   0.666   2.021  16.226  0.7697 -0.0527 -0.8500
16100TIP3   OH269714   0.238   2.565   3.501 -0.1790 -0.4359  0.1620
16100TIP3    H169715   0.310   2.510   3.470  0.5694  0.8133 -0.4216
16100TIP3    H269716   0.254   2.576   3.595  0.2285 -0.4222  0.0920
16101TIP3   OH269717   5.393   5.131  16.307 -0.3434  0.1460 -0.3833
16101TIP3    H169718   5.379   5.222  16.330 -0.3327 -0.1863  1.0219
16101TIP3    H269719   5.487   5.117  16.319 -0.6865 -0.6395  1.8244
16102TIP3   OH269720   5.529   6.070  15.394  0.8828 -0.1570  0.1608
16102TIP3    H169721   5.488   6.148  15.358 -0.5533 -0.9290  0.0384
16102TIP3    H269722   5.510   6.001  15.330  0.2876 -1.0523  1.2641
16103TIP3   OH269723   3.195   4.297  13.261 -0.3287  0.1226 -0.3155
16103TIP3    H169724   3.229   4.384  13.280 -1.5811  0.3896  0.8452
16103TIP3    H269725   3.272   4.240  13.261  0.2585  0.8837  1.0539
16104TIP3   OH269726   5.914   0.604  12.448 -0.0382 -0.0612  0.2906
16104TIP3    H169727   5.901   0.690  12.406 -0.2290  0.0555  0.5829
16104TIP3    H269728   5.921   0.625  12.541 -1.5135 -0.4926  0.5277
16105TIP3   OH269729   6.180   2.094   1.442  0.0357  0.1236 -0.2019
16105TIP3    H169730   6.243   2.024   1.456  0.2929  0.6763  1.6905
16105TIP3    H269731   6.099   2.063   1.483 -0.8684 -0.3883 -2.2039
16106TIP3   OH269732   4.092   6.402  12.488 -0.2920  0.8174  0.0596
16106TIP3    H169733   4.097   6.423  12.395  0.8195  1.3415  0.2148
16106TIP3    H269734   3.999   6.411  12.510 -0.8227 -0.7847 -1.3122
16107TIP3   OH269735   1.675   4.453  15.677 -0.0727 -0.1785 -0.9162
16107TIP3    H169736   1.736   4.393  15.718  1.8618  1.3295 -1.4470
16107TIP3    H269737   1.614   4.397  15.629  0.3375 -1.7582  0.3382
16108TIP3   OH269738   4.399   4.675   5.661  0.1267  0.0392 -0.2039
16108TIP3    H169739   4.482   4.679   5.709  0.2438  1.0091 -0.4674
16108TIP3    H269740   4.384   4.765   5.631 -1.6631  0.1711  0.9155
16109TIP3   OH269741   0.263   0.889  15.208 -0.7874  0.2865  0.2360
16109TIP3    H169742   0.217   0.845  15.279 -0.9197  1.2536  0.7747
16109TIP3    H269743   0.224   0.855  15.128 -1.2106 -0.2079  0.6501
16110TIP3   OH269744   3.045   2.473   1.953  0.2505  0.7054 -0.2476
16110TIP3    H169745   3.109   2.406   1.978  0.0084  0.4501 -0.3093
16110TIP3    H269746   3.092   2.556   1.963 -0.0119  0.6827  1.7417
16111TIP3   OH269747   5.145   0.071  16.379 -0.3575  0.1819 -0.0600
16111TIP3    H169748   5.066   0.027  16.411 -0.0079  0.0783  0.6829
16111TIP3    H269749   5.141   0.060  16.284 -1.8163  1.1719 -0.1530
16112TIP3   OH269750   0.952   5.615   0.174 -0.5563  0.4335 -0.0124
16112TIP3    H169751   0.943   5.557   0.098 -0.5253  0.3540  0.0446
16112TIP3    H269752   1.009   5.685   0.144  0.4705 -0.2441  0.3083
16113TIP3   OH269753   2.200   1.124   3.014 -0.2370  0.3137  0.3631
16113TIP3    H169754   2.140   1.176   3.068 -0.7245  0.1483 -0.0108
16113TIP3    H269755   2.145   1.054   2.978  0.0259  0.5376 -0.5072
16114TIP3   OH269756   5.329   5.135   2.685  0.2775 -0.0342 -0.1162
16114TIP3    H169757   5.250   5.170   2.726  1.2675  1.5214  0.5335
16114TIP3    H269758   5.355   5.062   2.741 -1.5265 -1.6092 -1.2012
16115TIP3   OH269759   0.208   3.438  14.134 -0.4582  0.4932  0.2848
16115TIP3    H169760   0.260   3.518  14.128  1.3043 -0.5984  0.5196
16115TIP3    H269761   0.131   3.464  14.185 -0.1523  2.1308 -0.0105
16116TIP3   OH269762   6.691   4.282  13.521 -0.2625  0.3088  0.2183
16116TIP3    H169763   6.684   4.252  13.611  1.6731 -0.1399  0.2669
16116TIP3    H269764   6.785   4.292  13.506 -0.3571 -1.6347 -2.3885
16117TIP3   OH269765   6.748   1.391  16.640 -0.1920  0.7037  0.8651
16117TIP3    H169766   6.696   1.458  16.684 -1.4147 -0.2026  0.8800
16117TIP3    H269767   6.729   1.310  16.688 -0.9829 -0.1754 -0.8130
16118TIP3   OH269768   2.319   3.898   0.212 -0.1285  0.0415 -0.2693
16118TIP3    H169769   2.244   3.942   0.251  1.0493 -1.5480  4.5081
16118TIP3    H269770   2.392   3.917   0.271  1.2626 -5.0523  0.1569
16119TIP3   OH269771   0.842   2.336   4.496  0.6408 -0.0046  0.3260
16119TIP3    H169772   0.917   2.394   4.510  1.2423 -0.4993 -0.7126
16119TIP3    H269773   0.881   2.249   4.486 -0.0609 -0.2506 -0.3273
16120TIP3   OH269774   6.120   4.685  14.871 -0.1201 -0.0365  0.4035
16120TIP3    H169775   6.093   4.613  14.928 -1.0249 -0.5287 -0.6205
16120TIP3    H269776   6.212   4.699  14.892 -0.9041  1.2849  3.5779
16121TIP3   OH269777   0.017   4.215   4.413 -0.8951 -0.3959  0.0889
16121TIP3    H169778  -0.029   4.283   4.364  0.0013  1.2501  1.4465
16121TIP3    H269779   0.055   4.158   4.346 -0.6629  1.1204 -1.1096
16122TIP3   OH269780   1.887   5.241   5.070  0.2843 -0.1548 -1.1601
16122TIP3    H169781   1.825   5.280   5.131 -0.7523 -1.6910 -1.1445
16122TIP3    H269782   1.898   5.307   5.001  0.3159  0.9968 -0.0741
16123TIP3   OH269783   6.105   2.911   1.283 -0.8183 -0.7673  0.4182
16123TIP3    H169784   6.179   2.892   1.340 -1.6808 -1.2990  1.3863
16123TIP3    H269785   6.104   2.838   1.220 -1.1926 -1.3815  1.1170
16124TIP3   OH269786   3.217   6.284  14.881  0.0743  0.3623  0.4890
16124TIP3    H169787   3.295   6.234  14.857  0.0531  1.0389 -1.1455
16124TIP3    H269788   3.247   6.375  14.886 -0.8606  0.8832 -1.8382
16125TIP3   OH269789   1.409   1.236   2.189  0.1684 -0.3249 -0.0310
16125TIP3    H169790   1.489   1.289   2.191  0.1176 -0.1951 -1.0049
16125TIP3    H269791   1.441   1.145   2.194  0.3375 -0.2575  0.1477
16126TIP3   OH269792   2.286   3.170  16.281 -0.3147  0.4116 -0.1643
16126TIP3    H169793   2.223   3.109  16.319  1.1207 -0.3929  1.0221
16126TIP3    H269794   2.248   3.193  16.196 -1.5911 -1.0022 -0.0265
16127TIP3   OH269795   4.313   1.690  16.577 -0.1448 -0.2192  0.3248
16127TIP3    H169796   4.288   1.638  16.501 -1.2781  0.4353  0.2286
16127TIP3    H269797   4.242   1.676  16.640  0.4658 -0.2465  1.0186
16128TIP3   OH269798   0.867   5.629   1.677  0.2789 -0.0099  0.1369
16128TIP3    H169799   0.828   5.648   1.592 -0.7823 -2.0320  0.1003
16128TIP3    H269800   0.800   5.577   1.723  1.7637 -1.0183  1.2495
16129TIP3   OH269801   3.183   4.476  11.002  0.0674  0.2172 -0.1043
16129TIP3    H169802   3.186   4.515  10.915  1.5330  1.2569  0.3922
16129TIP3    H269803   3.232   4.394  10.993  0.3720  0.4108 -0.2102
16130TIP3   OH269804   1.060   2.503   5.528 -0.4719 -0.4615  0.0664
16130TIP3    H169805   1.087   2.593   5.511 -1.0901 -0.5287 -1.4287
16130TIP3    H269806   1.118   2.450   5.473 -1.4250 -0.8148 -0.6345
16131TIP3   OH269807   4.462   2.036   6.390  0.7643  0.4580 -0.3092
16131TIP3    H169808   4.371   2.043   6.418  0.5103  0.7333 -1.1863
16131TIP3    H269809   4.483   1.943   6.400 -0.6843 -0.3016 -3.2559
16132TIP3   OH269810   3.939   3.066   3.901  0.4080  0.1115 -0.1447
16132TIP3    H169811   3.914   3.121   3.975  0.6261 -1.9207  1.5095
16132TIP3    H269812   3.954   2.980   3.938  0.9183 -0.9114 -2.5156
16133TIP3   OH269813   6.110   0.124   4.425  0.2226  0.5163  0.2147
16133TIP3    H169814   6.121   0.208   4.470  0.0951  0.1455  0.9476
16133TIP3    H269815   6.200   0.098   4.403  0.3701  0.2738  1.0586
16134TIP3   OH269816   3.708   3.367  15.015  0.0494  0.4003 -0.0343
16134TIP3    H169817   3.731   3.460  15.011 -2.2009  1.0983  1.4410
16134TIP3    H269818   3.638   3.357  14.951 -1.0462  0.1801  1.1759
16135TIP3   OH269819   0.414   0.708   1.192 -0.1855  0.2470  0.2042
16135TIP3    H169820   0.386   0.732   1.281  0.6808 -1.4655  0.9888
16135TIP3    H269821   0.369   0.626   1.174  0.0426  0.3247 -0.7348
16136TIP3   OH269822   5.772   5.138  13.370  0.3131  0.2581 -0.1497
16136TIP3    H169823   5.859   5.174  13.357  0.1377  0.4430 -0.8499
16136TIP3    H269824   5.782   5.076  13.442  1.4421 -1.1635 -1.4404
16137TIP3   OH269825   6.609   5.679   2.761  0.0871  0.6295 -0.5976
16137TIP3    H169826   6.592   5.752   2.820  0.6361 -0.5752  1.1304
16137TIP3    H269827   6.557   5.607   2.797  0.6253 -0.1983 -1.4466
16138TIP3   OH269828   0.484   0.546  11.520 -0.2067  0.5642  0.5409
16138TIP3    H169829   0.532   0.465  11.540 -0.2449  0.5587  0.6098
16138TIP3    H269830   0.395   0.516  11.500 -0.2932  0.6170  0.8485
16139TIP3   OH269831   0.180   0.223   0.770  0.1449  0.2455 -0.6273
16139TIP3    H169832   0.246   0.191   0.832  0.4417  0.9687 -0.5581
16139TIP3    H269833   0.111   0.156   0.771  1.0513 -0.7242 -0.9962
16140TIP3   OH269834   2.945   4.113  14.307  0.3230 -0.0023 -0.0172
16140TIP3    H169835   2.940   4.117  14.211  0.3406 -0.5568 -0.0451
16140TIP3    H269836   2.870   4.165  14.337 -1.3405 -2.0588 -0.3778
16141TIP3   OH269837   1.060   1.677   2.884  0.3040  0.6922 -0.4687
16141TIP3    H169838   1.067   1.719   2.970 -1.3719 -0.5921  0.3409
16141TIP3    H269839   1.151   1.658   2.859  0.7784  0.3652  1.3932
16142TIP3   OH269840   0.075   4.630   1.968  0.6961  0.1717  0.0298
16142TIP3    H169841   0.132   4.690   2.016  1.2901 -0.6079  0.3242
16142TIP3    H269842   0.133   4.561   1.936  0.0694 -0.1167 -0.5223
16143TIP3   OH269843   3.777   5.206  16.029 -0.0526  0.3594  0.3040
16143TIP3    H169844   3.807   5.293  16.002 -0.9076  0.1959 -1.2886
16143TIP3    H269845   3.847   5.173  16.086  0.5162  1.8682  0.5297
16144TIP3   OH269846   6.128   2.842  16.988  0.4324 -0.0597 -0.5458
16144TIP3    H169847   6.042   2.808  16.963 -0.0581 -0.2472  1.2340
16144TIP3    H269848   6.139   2.922  16.935 -1.1820  0.3770 -0.2730
16145TIP3   OH269849   3.799   1.227  11.911 -0.1008  0.6515  0.3892
16145TIP3    H169850   3.835   1.191  11.992 -0.6365 -0.9591 -0.0415
16145TIP3    H269851   3.836   1.314  11.904 -0.1591  0.8765  2.4352
16146TIP3   OH269852   5.925   0.938   3.871 -0.1456 -0.4848 -0.1371
16146TIP3    H169853   5.915   0.846   3.844 -1.5008  0.1154 -1.8432
16146TIP3    H269854   6.019   0.947   3.887 -0.1911 -2.5894  1.8510
16147TIP3   OH269855   4.744   1.158   2.619 -0.5834  0.0469  0.1683
16147TIP3    H169856   4.668   1.217   2.622 -0.3286  0.4184 -0.4059
16147TIP3    H269857   4.799   1.187   2.691 -0.7469  0.1191  0.2651
16148TIP3   OH269858   2.524   1.047  15.805 -0.6548  0.6576 -0.3612
16148TIP3    H169859   2.452   0.984  15.793  0.0144 -0.9253  2.7702
16148TIP3    H269860   2.576   1.040  15.725 -1.1895 -2.0853 -0.5640
16149TIP3   OH269861   2.369   4.744   4.464 -0.7114 -0.3629  0.4077
16149TIP3    H169862   2.421   4.791   4.530 -1.1057 -1.5862  1.6547
16149TIP3    H269863   2.434   4.694   4.414 -0.4672  0.0365  0.3223
16150TIP3   OH269864   0.317   3.496   2.890 -0.0491 -0.5955 -0.4037
16150TIP3    H169865   0.411   3.506   2.905 -0.0469 -0.3407 -0.5761
16150TIP3    H269866   0.310   3.410   2.847  0.4421  0.5757 -3.0580
16151TIP3   OH269867   4.159   3.121   2.056  0.6470  0.1680  0.2077
16151TIP3    H169868   4.097   3.057   2.090  0.1036  0.9409  0.7021
16151TIP3    H269869   4.172   3.095   1.965  1.5632 -1.4933  0.7771
16152TIP3   OH269870   6.227   6.498  12.010 -0.2094 -0.0878  0.8201
16152TIP3    H169871   6.255   6.434  12.075 -0.8748  0.2134  1.4167
16152TIP3    H269872   6.160   6.452  11.959 -0.1213 -0.1301  0.7444
16153TIP3   OH269873   3.908   5.436   2.122  0.0588 -0.2861  0.1812
16153TIP3    H169874   3.860   5.383   2.185 -0.0431 -1.7038 -1.0327
16153TIP3    H269875   3.844   5.500   2.090 -0.3259 -0.5823  0.3565
16154TIP3   OH269876   2.167   5.288  14.790 -0.1925  0.2968  0.0976
16154TIP3    H169877   2.093   5.288  14.730  0.5846 -0.5506 -0.9016
16154TIP3    H269878   2.244   5.298  14.734  0.5367 -0.1343  0.9883
16155TIP3   OH269879   3.314   2.521   6.079  0.1735  0.0355  0.2522
16155TIP3    H169880   3.327   2.593   6.018  0.4380 -0.6599 -0.5155
16155TIP3    H269881   3.319   2.442   6.026  0.3788 -0.5836  1.1651
16156TIP3   OH269882   0.420   4.003   3.568 -0.2988 -0.2203  0.0952
16156TIP3    H169883   0.369   3.996   3.488 -0.2238 -0.1385  0.0399
16156TIP3    H269884   0.359   3.977   3.638 -0.5460  0.3019  0.0753
16157TIP3   OH269885   0.507   1.171   4.207  0.0538  0.3531  0.2924
16157TIP3    H169886   0.537   1.219   4.130 -0.3613  2.3882  1.3329
16157TIP3    H269887   0.496   1.238   4.274 -0.8734 -1.1820  1.7444
16158TIP3   OH269888   1.018   1.678   5.050  0.0990  0.0371 -0.0536
16158TIP3    H169889   1.093   1.642   5.096  0.7380  1.0997 -0.2278
16158TIP3    H269890   1.041   1.770   5.034 -1.0902  0.2926 -0.4123
16159TIP3   OH269891   5.865   3.457   4.594 -0.0710 -0.5376 -0.1228
16159TIP3    H169892   5.863   3.380   4.538 -0.5513  0.0290 -0.8972
16159TIP3    H269893   5.959   3.474   4.608  0.0652 -0.5132 -0.9957
16160TIP3   OH269894   4.380   6.222  11.518 -0.1034  0.3069  0.2628
16160TIP3    H169895   4.330   6.303  11.526 -1.7040 -0.4324 -1.5292
16160TIP3    H269896   4.469   6.251  11.496 -0.7177  1.5911 -0.6757
16161TIP3   OH269897   3.081   2.335   4.870 -0.7244  0.0601  0.1424
16161TIP3    H169898   3.150   2.399   4.853 -1.7665  1.5309  1.1575
16161TIP3    H269899   3.025   2.339   4.793 -0.2284 -0.4082 -0.2492
16162TIP3   OH269900   4.858   2.557  15.073  0.5062 -0.7178 -0.1244
16162TIP3    H169901   4.850   2.611  14.995  1.0712  0.6113  0.7080
16162TIP3    H269902   4.792   2.488  15.061 -0.1119  0.0400 -1.2888
16163TIP3   OH269903   5.131   3.653  13.744  0.4364  0.1083 -0.0970
16163TIP3    H169904   5.193   3.722  13.765 -0.0881  0.7452 -0.6267
16163TIP3    H269905   5.063   3.695  13.692  0.0105 -0.7615 -0.2768
16164TIP3   OH269906   2.409   6.320  16.312 -0.2054 -1.3784  0.4209
16164TIP3    H169907   2.314   6.312  16.313 -0.2281 -1.1150  1.5045
16164TIP3    H269908   2.428   6.381  16.241 -0.7424 -2.5128 -0.7335
16165TIP3   OH269909   0.745   3.105  16.854  0.3781 -0.1089 -0.0952
16165TIP3    H169910   0.823   3.051  16.844  0.1619 -0.4146 -0.1849
16165TIP3    H269911   0.711   3.115  16.765  0.7296  0.6544 -0.1451
16166TIP3   OH269912   6.209   2.349  11.729 -0.4458  0.2733  0.1687
16166TIP3    H169913   6.205   2.297  11.809  0.4160 -0.3995 -0.2045
16166TIP3    H269914   6.128   2.328  11.682  0.1003 -1.1092 -0.1870
16167TIP3   OH269915   4.154   1.648  17.075 -0.3527 -0.1753 -0.1240
16167TIP3    H169916   4.226   1.700  17.112 -0.2570  0.1720 -0.7750
16167TIP3    H269917   4.075   1.692  17.105 -0.2721  0.3724 -0.6876
16168TIP3   OH269918   6.156   4.906   4.368 -0.1790 -0.0659  0.2181
16168TIP3    H169919   6.133   4.846   4.440  1.9722  0.1173  1.1182
16168TIP3    H269920   6.223   4.860   4.318 -0.1847  0.6540 -0.4691
16169TIP3   OH269921   5.249   6.709  13.119  0.2375 -0.4495 -0.5710
16169TIP3    H169922   5.250   6.646  13.047  0.4139  0.6064 -1.5242
16169TIP3    H269923   5.160   6.746  13.117  0.1309 -0.6617 -0.0109
16170TIP3   OH269924   2.459   5.023   1.708  0.5291  0.3389  0.3723
16170TIP3    H169925   2.471   5.068   1.792 -3.9274  0.1299  1.3762
16170TIP3    H269926   2.385   5.069   1.667  0.6987 -1.4165 -2.1339
16171TIP3   OH269927   3.757   6.189  14.017  0.4540 -0.4136 -0.2952
16171TIP3    H169928   3.711   6.157  13.940  0.0177 -0.5546  0.0182
16171TIP3    H269929   3.712   6.147  14.091  1.8354 -1.5227 -0.0256
16172TIP3   OH269930   2.338   2.871  14.479  0.5775 -0.0793 -0.9391
16172TIP3    H169931   2.432   2.870  14.466  0.4889  0.6771 -1.8261
16172TIP3    H269932   2.302   2.889  14.392 -0.3630 -0.0242 -0.5585
16173TIP3   OH269933   1.850   5.754  16.188 -0.0070  0.2061 -0.3936
16173TIP3    H169934   1.901   5.685  16.231 -0.4382  0.0693 -0.1008
16173TIP3    H269935   1.841   5.821  16.255 -0.6191  0.0247 -0.2931
16174TIP3   OH269936   0.488   1.905   0.469  0.3542  0.3444 -0.3278
16174TIP3    H169937   0.538   1.986   0.470  0.1310  0.4836 -0.3226
16174TIP3    H269938   0.506   1.867   0.383  0.7313  0.2268 -0.1975
16175TIP3   OH269939   0.726   0.197  12.825  0.2598  0.1066  0.5951
16175TIP3    H169940   0.688   0.190  12.912 -0.3197 -0.7873  0.2848
16175TIP3    H269941   0.759   0.109  12.806 -0.8653 -0.0752 -0.6376
16176TIP3   OH269942   1.239   1.596  12.976 -1.0286  0.4019  0.0888
16176TIP3    H169943   1.233   1.514  12.926  0.0191 -0.3108  1.0562
16176TIP3    H269944   1.180   1.656  12.931 -0.8406 -0.4814 -1.4340
16177TIP3   OH269945   6.690   4.767   5.700  0.1601 -0.5946  0.3953
16177TIP3    H169946   6.678   4.788   5.607  0.4988 -1.9296  0.0118
16177TIP3    H269947   6.716   4.674   5.699 -1.6869 -1.1776  1.9371
16178TIP3   OH269948   2.882   5.451   2.159 -0.4123  0.3167 -0.7218
16178TIP3    H169949   2.906   5.400   2.236  2.6855 -0.2408 -1.8957
16178TIP3    H269950   2.876   5.541   2.190  1.2590  0.1653  0.1518
16179TIP3   OH269951   5.608   5.910  15.119  0.0825  0.1747  0.0120
16179TIP3    H169952   5.612   5.906  15.023 -2.1643 -1.0026 -0.1205
16179TIP3    H269953   5.520   5.878  15.140  1.4905 -2.5625  2.6078
16180TIP3   OH269954   2.754   1.230   3.768 -0.1054  0.5051 -0.1050
16180TIP3    H169955   2.661   1.256   3.761  0.5481  2.8903 -1.1665
16180TIP3    H269956   2.794   1.300   3.820  1.2073 -0.2302 -0.0890
16181TIP3   OH269957   3.595   0.157   5.356  0.0467 -0.4026  0.5014
16181TIP3    H169958   3.629   0.218   5.422 -0.4268 -1.3062  1.6332
16181TIP3    H269959   3.502   0.177   5.351  0.2059  0.1374 -0.4406
16182TIP3   OH269960   4.682   2.119   1.439 -0.1097 -0.0385  0.3632
16182TIP3    H169961   4.734   2.091   1.364 -1.7230 -1.2344 -0.3638
16182TIP3    H269962   4.692   2.049   1.503 -2.5508 -1.4447 -0.6720
16183TIP3   OH269963   1.310   6.587  12.629  0.1977 -0.0164  0.3109
16183TIP3    H169964   1.309   6.539  12.712  5.9114  0.8673  1.3391
16183TIP3    H269965   1.360   6.531  12.570 -1.0179  0.7716 -1.5327
16184TIP3   OH269966   4.990   3.619   2.808  0.0155 -0.4201  0.2353
16184TIP3    H169967   5.021   3.708   2.818 -0.8075 -0.3209  2.4095
16184TIP3    H269968   5.054   3.565   2.854 -0.5860 -0.6982  0.7683
16185TIP3   OH269969   6.158   0.493   2.649 -0.3772  0.5855  0.5784
16185TIP3    H169970   6.233   0.536   2.608 -0.5962  1.7046  1.3129
16185TIP3    H269971   6.154   0.530   2.737  0.6689 -2.4383  2.0609
16186TIP3   OH269972   5.086   2.348   5.075 -0.3384  0.2669 -0.2681
16186TIP3    H169973   5.154   2.301   5.027  0.0675  0.3560  0.2100
16186TIP3    H269974   5.132   2.423   5.113 -0.5490 -0.0538  0.6465
16187TIP3   OH269975   0.023   1.665  16.051 -0.2224 -0.3655  0.5331
16187TIP3    H169976   0.093   1.610  16.087  0.8401 -0.0581 -0.9623
16187TIP3    H269977   0.069   1.728  15.995 -1.6893 -0.0302 -0.3399
16188TIP3   OH269978   6.679   5.973   6.570 -0.3210 -0.0760  0.1738
16188TIP3    H169979   6.610   6.005   6.512  1.2491 -0.9894 -2.3513
16188TIP3    H269980   6.756   6.024   6.546  0.4125 -0.5986  1.3501
16189TIP3   OH269981   4.992   3.371   2.357  0.5839  0.9094 -0.0269
16189TIP3    H169982   4.980   3.445   2.416  0.5543  0.6360  0.3137
16189TIP3    H269983   4.905   3.356   2.319 -0.0378 -0.5581  1.8303
16190TIP3   OH269984   2.319   6.247  15.986  0.3587 -0.6434 -0.7304
16190TIP3    H169985   2.273   6.217  16.064  0.0531 -0.3886 -0.8086
16190TIP3    H269986   2.354   6.167  15.946 -0.0482 -0.8451 -0.6880
16191TIP3   OH269987   6.196   1.969  13.327  0.1273  0.0866 -0.1886
16191TIP3    H169988   6.193   1.992  13.420  0.7963 -0.1073 -0.1146
16191TIP3    H269989   6.182   2.052  13.281  2.0919  0.6070  0.0859
16192TIP3   OH269990   3.024   4.606  11.176 -0.5022  0.4766  0.4095
16192TIP3    H169991   3.081   4.647  11.242  0.2750  2.0505 -1.1462
16192TIP3    H269992   3.083   4.552  11.124 -0.9670 -0.1301  0.5008
16193TIP3   OH269993   1.952   5.542  12.789 -0.1433  0.3564 -0.0284
16193TIP3    H169994   2.003   5.534  12.869  0.8230  1.3497 -0.5146
16193TIP3    H269995   1.909   5.627  12.796  0.1863  0.5848 -0.6820
16194TIP3   OH269996   4.502   4.525  11.649 -0.1719  0.1795  0.1130
16194TIP3    H169997   4.482   4.432  11.654  1.3960 -0.1530  0.8079
16194TIP3    H269998   4.597   4.529  11.646 -0.2030  1.7758  0.3705
16195TIP3   OH269999   4.016   2.119  16.598 -0.8323  0.3660  0.2512
16195TIP3    H170000   3.989   2.028  16.598  1.2515 -0.3167  1.1036
16195TIP3    H270001   4.034   2.139  16.690  2.9769  0.1798 -0.2827
16196TIP3   OH270002   0.709   1.381  15.005 -0.1359 -0.3690  0.2185
16196TIP3    H170003   0.773   1.363  14.936 -0.4242 -1.2233  0.1660
16196TIP3    H270004   0.761   1.387  15.085  0.1601  0.2894 -0.0158
16197TIP3   OH270005   2.256   0.548  13.642 -0.1338  0.7095 -0.7454
16197TIP3    H170006   2.342   0.546  13.684 -0.1470 -2.6993 -0.5669
16197TIP3    H270007   2.194   0.525  13.712 -0.6532 -0.7687 -1.6220
16198TIP3   OH270008   5.491   5.361   1.854  0.2207 -0.0188  0.2633
16198TIP3    H170009   5.543   5.321   1.784 -2.4387 -1.5268 -1.0003
16198TIP3    H270010   5.492   5.296   1.924  1.3397  0.6842  0.9329
16199TIP3   OH270011   3.575   0.462   4.195 -0.3079 -0.0564  0.9650
16199TIP3    H170012   3.569   0.557   4.188  0.5034 -0.1079 -0.9613
16199TIP3    H270013   3.534   0.429   4.116  1.2581 -1.2166  0.5852
16200TIP3   OH270014   1.700   0.392   1.434  0.3061  0.3101  0.1994
16200TIP3    H170015   1.662   0.409   1.348  0.0570 -0.7551  0.0883
16200TIP3    H270016   1.780   0.341   1.415  0.8936  1.0878  0.5321
16201TIP3   OH270017   3.946   2.271  14.139 -0.1679 -0.2144 -0.8726
16201TIP3    H170018   3.941   2.296  14.046 -0.8168 -1.2427 -1.1386
16201TIP3    H270019   3.854   2.254  14.163 -0.1835  1.4285  0.3719
16202TIP3   OH270020   1.629   4.710   1.721  0.6066  0.0986  0.1720
16202TIP3    H170021   1.721   4.728   1.742  1.0586 -0.6075 -1.0848
16202TIP3    H270022   1.633   4.663   1.638 -0.6600 -3.1874  1.7851
16203TIP3   OH270023   3.599   0.487  11.724 -0.3312 -0.5650  0.2385
16203TIP3    H170024   3.601   0.550  11.652  1.3424 -1.5873 -0.6863
16203TIP3    H270025   3.570   0.405  11.684  0.0883 -1.0106  0.8265
16204TIP3   OH270026   4.817   1.018   2.168  0.0107 -0.3908  0.0851
16204TIP3    H170027   4.839   1.074   2.094 -0.3541 -1.1287 -0.5856
16204TIP3    H270028   4.876   0.944   2.162 -0.5107 -0.8175  0.0968
16205TIP3   OH270029   2.423   4.173   2.524 -0.3302  0.5358  0.4310
16205TIP3    H170030   2.383   4.126   2.597  0.9486 -0.7286  0.3602
16205TIP3    H270031   2.509   4.132   2.514 -0.4456  0.7264 -1.7402
16206TIP3   OH270032   4.694   0.193  14.235 -0.6092  0.1415 -0.1887
16206TIP3    H170033   4.607   0.225  14.210 -0.4633  0.5072 -0.2410
16206TIP3    H270034   4.684   0.098  14.242 -1.0644  0.2003  0.0154
16207TIP3   OH270035   4.670   3.640  13.006  0.6727 -0.0756  0.0323
16207TIP3    H170036   4.707   3.718  13.047  1.0458  0.7425 -1.7718
16207TIP3    H270037   4.600   3.613  13.065  1.1245  1.0865  1.1505
16208TIP3   OH270038   0.974   5.581   3.503 -0.3214 -0.2089 -0.4191
16208TIP3    H170039   0.907   5.596   3.570  0.2071  0.4638 -0.0244
16208TIP3    H270040   0.962   5.490   3.476 -1.7497  0.0677 -0.7541
16209TIP3   OH270041   4.610   1.368   1.384 -0.1964  0.0684 -0.4615
16209TIP3    H170042   4.562   1.385   1.465 -1.3660  0.7394 -1.2642
16209TIP3    H270043   4.603   1.273   1.372  0.1826 -0.0718  0.3264
16210TIP3   OH270044   1.998   3.208  12.560 -0.8767 -0.1278 -0.1057
16210TIP3    H170045   2.005   3.117  12.532  1.7048 -0.1782  0.4693
16210TIP3    H270046   1.989   3.258  12.478  1.5867 -0.6471 -0.7595
16211TIP3   OH270047   0.055   4.067   0.283 -0.0773  0.6117 -0.6518
16211TIP3    H170048   0.123   4.087   0.347  0.5769  0.2939 -1.2332
16211TIP3    H270049   0.071   3.976   0.258 -0.1611  0.8006 -1.4367
16212TIP3   OH270050   3.445   1.835  14.652  0.1812  0.5391  0.2548
16212TIP3    H170051   3.374   1.784  14.614 -0.0695 -0.4239  1.9235
16212TIP3    H270052   3.496   1.865  14.576 -1.1896  0.0815 -0.8976
16213TIP3   OH270053   3.703   6.712   4.241  0.7273  0.3543 -0.1731
16213TIP3    H170054   3.719   6.762   4.161  0.8585 -0.7336 -0.8504
16213TIP3    H270055   3.727   6.771   4.312  1.8094  0.9213 -0.9843
16214TIP3   OH270056   3.045   0.729   2.398 -0.2552 -0.2797 -0.2928
16214TIP3    H170057   3.019   0.779   2.476  0.2320  1.3330 -1.1236
16214TIP3    H270058   2.963   0.700   2.360 -0.6978  1.4394 -0.7544
16215TIP3   OH270059   0.118   2.440   4.815  0.4150  0.5167  0.3325
16215TIP3    H170060   0.151   2.354   4.843  3.1079  0.6799 -1.8992
16215TIP3    H270061   0.050   2.419   4.751  1.8485 -0.0622 -1.0731
16216TIP3   OH270062   3.716   1.276   4.952  0.1990 -0.0239  0.2414
16216TIP3    H170063   3.692   1.368   4.940  3.1918  0.6730 -1.3937
16216TIP3    H270064   3.676   1.231   4.877  0.5899  0.3783 -0.2158
16217TIP3   OH270065   5.775   1.775   2.042  0.1208  0.1692  0.0815
16217TIP3    H170066   5.766   1.817   1.957  1.5104  0.3052 -0.0288
16217TIP3    H270067   5.762   1.845   2.106 -0.5636  0.1407 -0.0242
16218TIP3   OH270068   2.825   5.921   2.366 -0.3060  0.3179  1.1240
16218TIP3    H170069   2.745   5.912   2.315  2.1148 -1.6199 -2.8533
16218TIP3    H270070   2.808   5.875   2.448 -2.5294 -2.1762 -0.6056
16219TIP3   OH270071   3.079   4.486   5.797 -0.3032 -0.1393  0.0245
16219TIP3    H170072   2.993   4.453   5.822  0.1424  0.2127  2.2617
16219TIP3    H270073   3.121   4.509   5.880  2.0613 -0.5566 -0.9650
16220TIP3   OH270074   3.530   2.884  11.152  0.0767  0.8145  0.2830
16220TIP3    H170075   3.573   2.819  11.096  0.7561  1.7054 -0.2664
16220TIP3    H270076   3.440   2.886  11.120  0.3124  0.8882 -0.4115
16221TIP3   OH270077   2.482   0.445   2.862  0.1559 -0.1548  0.0284
16221TIP3    H170078   2.463   0.470   2.952  0.2398  1.8741 -0.4630
16221TIP3    H270079   2.396   0.426   2.823 -0.0421  0.5407  0.1189
16222TIP3   OH270080   4.697   3.792  12.261 -0.1601 -0.0711  0.3797
16222TIP3    H170081   4.779   3.744  12.252  0.1686 -0.1542  2.9217
16222TIP3    H270082   4.629   3.729  12.236  0.4311 -0.7737  0.5129
16223TIP3   OH270083   4.376   1.369   6.676 -0.1273 -0.0426 -0.3161
16223TIP3    H170084   4.303   1.381   6.616 -2.6488  1.6270  2.7871
16223TIP3    H270085   4.381   1.274   6.689 -1.8426 -0.1858 -0.5165
16224TIP3   OH270086   3.563   1.468  10.412 -0.3440 -0.3582 -0.0321
16224TIP3    H170087   3.534   1.463  10.321  0.7842 -1.9856 -0.3316
16224TIP3    H270088   3.504   1.410  10.460  0.4498 -1.2803 -0.1348
16225TIP3   OH270089   0.754   4.105  11.591  0.1294  0.3620 -0.0272
16225TIP3    H170090   0.830   4.133  11.540  0.0599  0.1611 -0.2438
16225TIP3    H270091   0.712   4.187  11.618  1.7593  0.5851  2.1678
16226TIP3   OH270092   5.465   6.757   2.650 -0.3533  0.5425 -0.3335
16226TIP3    H170093   5.556   6.732   2.668 -0.0407  0.4416 -1.9078
16226TIP3    H270094   5.448   6.829   2.711  1.1079  1.1841 -0.6371
16227TIP3   OH270095   5.241   3.432   5.346 -0.4357  0.3306 -0.2975
16227TIP3    H170096   5.211   3.341   5.333 -0.2529  0.5787 -2.9507
16227TIP3    H270097   5.160   3.482   5.354 -0.5367 -0.0557  1.4470
16228TIP3   OH270098   4.733   0.433  12.074 -0.0806 -0.2337  0.1824
16228TIP3    H170099   4.681   0.460  12.150  1.2106  1.8313  0.4217
16228TIP3    H270100   4.669   0.399  12.012 -1.5701  1.0120  0.9556
16229TIP3   OH270101   4.871   0.184   4.007 -0.1255  0.1418  0.3791
16229TIP3    H170102   4.865   0.096   4.045  1.1968 -0.0146  0.2805
16229TIP3    H270103   4.958   0.187   3.966 -0.9454  0.8083 -1.4138
16230TIP3   OH270104   3.035   5.786  10.980 -0.0958 -0.4437  0.0204
16230TIP3    H170105   3.030   5.869  11.028  0.8699 -0.9332  1.0021
16230TIP3    H270106   2.948   5.746  10.994 -0.1642 -0.1287  0.5462
16231TIP3   OH270107   3.450   6.580  12.168  0.1500  0.2176 -0.0477
16231TIP3    H170108   3.446   6.586  12.073 -1.8918  1.3292  0.0593
16231TIP3    H270109   3.372   6.529  12.192 -0.2426  1.3226  1.1075
16232TIP3   OH270110   5.163   0.968   4.638  0.1699 -0.2119 -0.1192
16232TIP3    H170111   5.067   0.967   4.646  0.1612  2.7923  1.3032
16232TIP3    H270112   5.181   1.046   4.585  1.8851 -0.2401  0.3914
16233TIP3   OH270113   6.301   5.128  16.441  0.2664 -0.0719  0.1590
16233TIP3    H170114   6.243   5.115  16.366  0.3808 -1.1413  0.2355
16233TIP3    H270115   6.334   5.217  16.432 -0.7967  0.2831 -0.3010
16234TIP3   OH270116   0.791   6.149  11.783 -0.3027  0.3695  0.0626
16234TIP3    H170117   0.863   6.090  11.764 -1.1122 -0.0331 -1.9948
16234TIP3    H270118   0.736   6.101  11.845  1.6471  1.1074  2.5408
16235TIP3   OH270119   2.697   6.077  12.888  0.1870  0.4279 -0.1432
16235TIP3    H170120   2.650   6.148  12.843 -0.1300  0.4667  0.2380
16235TIP3    H270121   2.663   6.080  12.978  0.6942  0.2509  0.0580
16236TIP3   OH270122   5.008   4.438   2.028 -0.5937 -0.0059 -0.2198
16236TIP3    H170123   5.039   4.349   2.047 -4.2443 -1.4549 -0.3342
16236TIP3    H270124   5.045   4.491   2.098  0.5963 -1.8554  0.6402
16237TIP3   OH270125   2.406   4.191  16.759 -0.2321  0.1805  0.0666
16237TIP3    H170126   2.316   4.221  16.743 -0.2693 -0.4245 -0.9587
16237TIP3    H270127   2.461   4.263  16.727 -0.3415  0.3055  0.1554
16238TIP3   OH270128   3.987   2.303   2.778  0.6593 -0.0943  0.2209
16238TIP3    H170129   3.939   2.228   2.816 -0.4269  0.9962  1.0848
16238TIP3    H270130   3.938   2.324   2.699 -0.1428  0.8305  0.9441
16239TIP3   OH270131   5.650   1.024   0.748 -0.3499  0.0086  0.0268
16239TIP3    H170132   5.705   1.034   0.825 -0.9559  0.7775  0.3747
16239TIP3    H270133   5.561   1.036   0.780 -0.7575 -1.4143 -0.4848
16240TIP3   OH270134   4.903   1.557  16.033  0.0572 -0.2985  0.3636
16240TIP3    H170135   4.961   1.616  16.082 -0.1615 -0.3338  0.6711
16240TIP3    H270136   4.837   1.615  15.995 -0.5877 -0.4082  1.2716
16241TIP3   OH270137   4.115   1.875  13.331  0.3397  0.4959 -0.5298
16241TIP3    H170138   4.047   1.851  13.394  0.7936  0.8093  0.0984
16241TIP3    H270139   4.082   1.844  13.247 -0.1923 -0.1065 -0.1097
16242TIP3   OH270140   4.276   2.264   1.588 -0.3204 -0.0982 -0.1373
16242TIP3    H170141   4.277   2.357   1.610 -0.4246  0.1323 -1.0335
16242TIP3    H270142   4.350   2.253   1.529  1.0419 -1.0619  1.6682
16243TIP3   OH270143   5.608   0.013  16.556 -0.5591  0.2371  0.5089
16243TIP3    H170144   5.563   0.034  16.638 -0.3374  2.1951  0.1841
16243TIP3    H270145   5.683   0.072  16.554 -1.8455  2.0226 -2.1569
16244TIP3   OH270146   6.127   2.984  12.609  0.0129  0.1299  0.8337
16244TIP3    H170147   6.193   2.918  12.588 -1.5120 -0.8893 -1.1025
16244TIP3    H270148   6.157   3.064  12.566  0.4730 -0.0573  0.8026
16245TIP3   OH270149   4.317   5.645  11.000 -0.1508 -0.0108 -0.0104
16245TIP3    H170150   4.407   5.655  10.968  0.1256 -0.8727  0.4567
16245TIP3    H270151   4.326   5.594  11.080 -0.9622  0.9556  0.7153
16246TIP3   OH270152   0.054   5.864  12.653 -0.1553 -0.5798 -0.3768
16246TIP3    H170153   0.018   5.884  12.740  0.0096  1.8053 -0.8074
16246TIP3    H270154   0.148   5.876  12.664 -0.2262  0.7259 -1.1172
16247TIP3   OH270155   0.377   3.256   1.569 -0.5554  0.4470  0.5700
16247TIP3    H170156   0.341   3.168   1.575  0.9197 -0.2322  0.0999
16247TIP3    H270157   0.441   3.260   1.640  0.5588  0.5339 -0.4099
16248TIP3   OH270158   4.427   6.498   5.372  0.0065  0.2451  0.3706
16248TIP3    H170159   4.363   6.509   5.442 -1.1713  1.3866 -0.8345
16248TIP3    H270160   4.374   6.491   5.292  1.3266 -0.5426 -0.4768
16249TIP3   OH270161   3.986   5.262   1.434 -0.4430 -0.0048 -0.6738
16249TIP3    H170162   3.961   5.343   1.479 -0.6327 -0.8547  0.8188
16249TIP3    H270163   4.067   5.235   1.477 -1.0282 -1.2439 -0.2973
16250TIP3   OH270164   0.996   4.484  11.857  0.3017 -0.0252  0.2719
16250TIP3    H170165   0.968   4.571  11.886 -2.2840 -0.7632  0.2505
16250TIP3    H270166   1.045   4.500  11.777  1.3185  1.4974  1.1333
16251TIP3   OH270167   5.106   2.821  12.016 -0.1878  0.2399  0.4835
16251TIP3    H170168   5.154   2.829  11.934 -1.1983 -0.5634 -0.2125
16251TIP3    H270169   5.118   2.906  12.059  0.6796  0.5359 -0.3011
16252TIP3   OH270170   4.472   3.661  14.825 -0.4656 -0.1144 -0.2357
16252TIP3    H170171   4.548   3.691  14.775  0.3073 -1.2764  0.2120
16252TIP3    H270172   4.500   3.579  14.866 -2.3234 -1.1701 -0.9547
16253TIP3   OH270173   0.426   0.827   4.649 -0.1274 -0.5426 -0.2154
16253TIP3    H170174   0.357   0.887   4.679  1.6416  0.4742  2.1287
16253TIP3    H270175   0.416   0.750   4.705  0.1173 -0.7291 -0.4283
16254TIP3   OH270176   5.506   1.248   2.910 -0.2882  0.3052  0.0862
16254TIP3    H170177   5.498   1.255   2.815  1.9276  0.5052 -0.1496
16254TIP3    H270178   5.417   1.237   2.941 -1.0133 -0.4829 -2.0710
16255TIP3   OH270179   6.612   0.787   5.591  1.1335 -0.4008 -0.1502
16255TIP3    H170180   6.687   0.752   5.543  0.6909 -0.3914 -0.8600
16255TIP3    H270181   6.624   0.755   5.680  2.1342 -0.1533 -0.1830
16256TIP3   OH270182   3.240   4.563  12.169  0.2081 -0.1512 -0.6390
16256TIP3    H170183   3.210   4.602  12.087  0.0946 -1.9610 -1.5148
16256TIP3    H270184   3.243   4.636  12.231 -0.5995  1.0926 -2.0015
16257TIP3   OH270185   2.579   3.388   1.441 -0.0410 -0.0144  0.0901
16257TIP3    H170186   2.560   3.357   1.352  1.9666  0.3648 -0.5160
16257TIP3    H270187   2.620   3.313   1.484 -0.2781  0.0616  0.4560
16258TIP3   OH270188   0.533   3.504  15.271 -0.2193  0.3850  0.5687
16258TIP3    H170189   0.609   3.554  15.303 -1.1058  1.2161  1.4418
16258TIP3    H270190   0.475   3.498  15.347 -1.6798  1.0226 -0.4599
16259TIP3   OH270191   1.959   5.607  14.697 -0.3703 -0.1064 -0.0143
16259TIP3    H170192   2.049   5.607  14.728 -0.2545 -1.5412 -0.2840
16259TIP3    H270193   1.964   5.638  14.606 -0.1273 -0.2639 -0.0553
16260TIP3   OH270194   2.124   0.377  14.145  0.1249  0.2641 -0.1206
16260TIP3    H170195   2.038   0.404  14.177 -0.0572 -0.5519  0.0992
16260TIP3    H270196   2.125   0.282  14.157  1.0869  0.2768 -0.0458
16261TIP3   OH270197   4.680   0.013  12.030  0.4966 -0.0198  0.5748
16261TIP3    H170198   4.644   0.050  11.950  2.4349 -2.8446 -1.8246
16261TIP3    H270199   4.667   0.082  12.096 -0.3691  2.8619 -2.3105
16262TIP3   OH270200   2.757   4.253  11.722 -0.0363  0.8984 -0.2699
16262TIP3    H170201   2.776   4.320  11.656  0.0140  1.0734 -0.0788
16262TIP3    H270202   2.794   4.288  11.803 -0.4402  0.8677 -0.0685
16263TIP3   OH270203   2.181   3.955  15.784  0.6184 -0.0628 -0.6583
16263TIP3    H170204   2.142   3.920  15.704 -0.6997 -2.0464  0.7872
16263TIP3    H270205   2.175   3.884  15.847 -0.8080  2.2380  2.0234
16264TIP3   OH270206   0.707   6.796  13.776 -0.3040 -0.0209 -0.4057
16264TIP3    H170207   0.784   6.797  13.719 -1.1711  3.5263 -1.7517
16264TIP3    H270208   0.741   6.766  13.861  2.1057 -0.5746 -1.4833
16265TIP3   OH270209   3.637   2.815  11.889  0.0388 -0.8810 -0.6599
16265TIP3    H170210   3.686   2.870  11.949  0.9495 -1.7651 -0.5673
16265TIP3    H270211   3.578   2.764  11.945  0.2464 -1.0595 -0.6046
16266TIP3   OH270212   3.583   0.526  10.947 -0.0244  0.1925  0.2102
16266TIP3    H170213   3.661   0.531  10.891  0.0427  1.9456  0.3808
16266TIP3    H270214   3.513   0.499  10.888  0.6190 -1.0680 -0.0205
16267TIP3   OH270215   4.566   5.115   2.672  0.1432  0.4522  0.0717
16267TIP3    H170216   4.617   5.047   2.716  0.3305  0.4906 -0.0861
16267TIP3    H270217   4.477   5.103   2.705 -0.0703 -0.5972 -0.7963
16268TIP3   OH270218   3.600   6.345   4.864  0.2203  0.3059 -0.2964
16268TIP3    H170219   3.663   6.407   4.901 -0.0586 -0.2299  1.1191
16268TIP3    H270220   3.538   6.329   4.935 -1.3341  0.5607 -1.5552
16269TIP3   OH270221   6.291   3.164   5.728 -0.3523  0.0183 -0.0163
16269TIP3    H170222   6.374   3.177   5.682 -0.3536  0.2038  0.0313
16269TIP3    H270223   6.313   3.165   5.821  0.0381 -2.9932  0.0073
16270TIP3   OH270224   1.945   5.607   1.337  0.9950 -0.3628 -0.3645
16270TIP3    H170225   1.901   5.661   1.403  1.1557 -1.2100  0.4538
16270TIP3    H270226   2.008   5.666   1.296  2.3330 -0.3136  1.6354
16271TIP3   OH270227   1.834   0.511  12.895 -0.0921 -0.5832  0.1462
16271TIP3    H170228   1.899   0.488  12.962  0.5602  2.3414  0.6761
16271TIP3    H270229   1.809   0.601  12.916 -1.1306 -0.1410 -2.5719
16272TIP3   OH270230   2.178   4.289  11.174  0.7722 -0.3542 -0.1906
16272TIP3    H170231   2.199   4.267  11.264  0.3588 -0.2851 -0.0784
16272TIP3    H270232   2.229   4.227  11.121 -0.7701 -1.9620  0.1227
16273TIP3   OH270233   2.940   4.316   3.789  0.5325 -0.1559 -0.0163
16273TIP3    H170234   3.010   4.338   3.850  0.2188 -0.4245  0.4487
16273TIP3    H270235   2.980   4.255   3.727  0.8098 -0.0129  0.0232
16274TIP3   OH270236   1.052   5.123   0.471  0.7380 -0.1085  0.0827
16274TIP3    H170237   1.069   5.032   0.449  1.2323  0.2658 -1.1498
16274TIP3    H270238   1.115   5.173   0.420 -0.2169  0.9904 -0.0757
16275TIP3   OH270239   0.698   6.667   6.520  0.8824  1.1664  0.0659
16275TIP3    H170240   0.726   6.652   6.610  0.0168 -1.2392  0.0172
16275TIP3    H270241   0.615   6.619   6.512  0.7696  1.5807 -1.9220
16276TIP3   OH270242   0.842   6.311  13.114 -0.0622  0.1267 -0.1059
16276TIP3    H170243   0.887   6.228  13.134 -0.5263 -0.3966 -1.1387
16276TIP3    H270244   0.765   6.284  13.065 -0.6153  1.1411  0.1866
16277TIP3   OH270245   6.002   2.300   1.651 -0.3248 -0.2007 -0.1185
16277TIP3    H170246   5.931   2.250   1.610  0.2160 -1.0157 -0.0686
16277TIP3    H270247   5.963   2.386   1.668 -1.0955 -0.4172 -0.7152
16278TIP3   OH270248   3.220   2.231   0.565  0.2606 -0.3148  0.5056
16278TIP3    H170249   3.316   2.226   0.566  0.3541  0.1043 -1.4936
16278TIP3    H270250   3.197   2.265   0.651  1.8094 -1.6243  1.4927
16279TIP3   OH270251   3.650   4.608   2.000  0.4777  0.5769 -0.0556
16279TIP3    H170252   3.576   4.621   2.058 -0.3007  0.3107 -0.9621
16279TIP3    H270253   3.620   4.640   1.915  1.5713  0.9171 -0.3332
16280TIP3   OH270254   1.519   4.287   0.633 -0.2558 -0.3422 -0.0758
16280TIP3    H170255   1.566   4.339   0.699 -0.2697  0.5595 -0.7490
16280TIP3    H270256   1.479   4.353   0.576  0.4274 -1.0838 -1.4672
16281TIP3   OH270257   2.025   3.769  14.934 -0.4257 -0.1589  0.2103
16281TIP3    H170258   2.105   3.739  14.892 -0.4995  2.2228 -1.8385
16281TIP3    H270259   2.055   3.823  15.007 -0.1701  0.6375 -0.4850
16282TIP3   OH270260   5.516   6.001   2.739 -0.0617  0.0834  0.1050
16282TIP3    H170261   5.457   5.927   2.732 -0.8633  0.6914  0.3401
16282TIP3    H270262   5.505   6.048   2.657 -2.0636  1.7589  1.2420
16283TIP3   OH270263   5.632   4.334  16.267  0.1446 -0.1460 -0.3643
16283TIP3    H170264   5.572   4.390  16.316  0.7192  0.2438 -0.1011
16283TIP3    H270265   5.642   4.378  16.182  0.5131  0.1017 -0.1951
16284TIP3   OH270266   6.113   6.431   1.027  0.0577 -0.0906  0.0373
16284TIP3    H170267   6.090   6.510   0.978  0.9563  0.6558  0.7658
16284TIP3    H270268   6.070   6.443   1.112  3.7727  1.9014  1.8722
16285TIP3   OH270269   0.696   1.912  13.820 -0.2735  0.1878  0.1273
16285TIP3    H170270   0.615   1.938  13.776 -0.8495  1.7769  1.9931
16285TIP3    H270271   0.674   1.910  13.913  1.2524 -1.7255  0.5248
16286TIP3   OH270272   0.851   1.654   4.380 -0.3889  0.6761 -0.2666
16286TIP3    H170273   0.825   1.669   4.471  1.9118  0.3267  0.5009
16286TIP3    H270274   0.833   1.738   4.337  2.1144  2.2105  1.4546
16287TIP3   OH270275   0.588   5.884  13.801 -0.4859 -0.4345  0.3411
16287TIP3    H170276   0.503   5.924  13.783 -0.9057 -1.6622 -0.5601
16287TIP3    H270277   0.629   5.941  13.866 -1.7219  0.5339  0.2934
16288TIP3   OH270278   2.490   0.466   4.409 -0.7959 -0.0302  0.6853
16288TIP3    H170279   2.418   0.461   4.472 -2.5562 -2.3010 -1.3180
16288TIP3    H270280   2.558   0.410   4.447 -1.1285  0.0218  1.3757
16289TIP3   OH270281   5.016   1.555   3.214  0.4384  0.6524  0.4331
16289TIP3    H170282   5.105   1.530   3.239 -0.1534 -0.4264  1.6043
16289TIP3    H270283   4.967   1.553   3.296 -0.7699  0.7720 -0.2598
16290TIP3   OH270284   6.079   0.886  14.032  0.9038 -0.2678  0.5613
16290TIP3    H170285   6.155   0.871  14.088  1.9150  0.2341 -0.6414
16290TIP3    H270286   6.007   0.842  14.078  1.3766  1.2438  2.9449
16291TIP3   OH270287   0.555   3.617   6.022  0.1810  0.2180  0.3335
16291TIP3    H170288   0.470   3.651   6.049  0.0961 -1.2222  2.0550
16291TIP3    H270289   0.616   3.650   6.088  0.7025  0.0070 -0.0351
16292TIP3   OH270290   0.421   3.660  11.972  0.5203 -0.4286 -0.1395
16292TIP3    H170291   0.515   3.672  11.987  0.6982 -2.3140  0.4961
16292TIP3    H270292   0.381   3.681  12.057  0.4846 -0.6329 -0.1038
16293TIP3   OH270293   1.391   2.508   0.871 -0.3805 -0.0559 -0.6796
16293TIP3    H170294   1.304   2.528   0.837 -0.5453  0.5573  0.0756
16293TIP3    H270295   1.376   2.438   0.935 -0.6337  1.4515  0.9726
16294TIP3   OH270296   6.097   3.664  12.140  0.3005  0.3825  0.2444
16294TIP3    H170297   6.127   3.644  12.229 -1.5702  0.3414  0.8992
16294TIP3    H270298   6.044   3.589  12.116  1.6792 -0.1278 -1.3856
16295TIP3   OH270299   2.446   1.300  15.590  0.0225  0.7297 -0.1081
16295TIP3    H170300   2.511   1.295  15.520 -0.2482 -1.0869 -0.2859
16295TIP3    H270301   2.495   1.324  15.668  0.8579 -0.1721 -0.3361
16296TIP3   OH270302   4.988   2.393   6.324 -0.1031 -0.5180 -0.8337
16296TIP3    H170303   5.064   2.450   6.334 -0.8066  0.0931  1.6617
16296TIP3    H270304   4.914   2.453   6.314 -0.7561 -0.9529  1.0718
16297TIP3   OH270305   4.126   6.495   5.500  0.8044 -0.1501 -0.0365
16297TIP3    H170306   4.042   6.507   5.457  0.4304  1.6545  1.0674
16297TIP3    H270307   4.129   6.402   5.524 -0.0593 -0.6236 -1.6629
16298TIP3   OH270308   6.415   2.824  13.821 -0.3133  0.1306  0.0849
16298TIP3    H170309   6.429   2.750  13.762 -3.3081  1.7266 -2.9944
16298TIP3    H270310   6.348   2.794  13.883 -1.1487  0.0652 -0.8331
16299TIP3   OH270311   0.998   0.457  10.641 -0.1777  0.3577 -0.8122
16299TIP3    H170312   0.941   0.514  10.694  0.6912  0.9175 -0.4530
16299TIP3    H270313   0.953   0.450  10.557 -0.1240  1.9267 -1.0099
16300TIP3   OH270314   1.702   5.432  14.568 -0.7736 -0.0857 -0.0551
16300TIP3    H170315   1.697   5.527  14.584  2.0411 -0.3065  3.3362
16300TIP3    H270316   1.649   5.394  14.638  0.9736 -1.0042  0.8197
16301TIP3   OH270317   3.670   5.145  12.676  0.2625  0.4936  0.3905
16301TIP3    H170318   3.736   5.084  12.708 -0.1757 -1.2695 -1.7735
16301TIP3    H270319   3.586   5.101  12.690  0.0099 -0.0403 -2.2640
16302TIP3   OH270320   5.488   4.825  12.129 -0.0756 -0.6388 -0.4290
16302TIP3    H170321   5.548   4.897  12.152 -3.3208  1.7150  1.6594
16302TIP3    H270322   5.456   4.848  12.042 -0.1107 -0.2399 -0.3157
16303TIP3   OH270323   3.528   3.950  15.686  0.0890  0.3445  0.2713
16303TIP3    H170324   3.480   3.962  15.604 -0.3739  0.7643  0.5913
16303TIP3    H270325   3.532   3.855  15.698  1.2343  0.2351 -0.8458
16304TIP3   OH270326   6.051   3.680   2.535  0.3261  0.3369 -0.3195
16304TIP3    H170327   5.982   3.698   2.472 -1.4306  0.8221  1.6596
16304TIP3    H270328   6.083   3.593   2.511 -0.7523  0.2203 -1.4503
16305TIP3   OH270329   1.793   6.015  11.838  0.5865  0.2405  0.1386
16305TIP3    H170330   1.827   6.104  11.827  0.2820  0.4325  0.7502
16305TIP3    H270331   1.700   6.026  11.856  0.0706 -0.2897 -1.8427
16306TIP3   OH270332   3.071   4.905   0.584 -0.0428 -0.9250  0.1451
16306TIP3    H170333   3.116   4.846   0.523 -1.0063 -2.6460  1.0060
16306TIP3    H270334   3.033   4.973   0.528  0.5533 -1.4800 -0.9686
16307TIP3   OH270335   6.193   2.347  14.820  0.0144 -1.0638 -0.4331
16307TIP3    H170336   6.100   2.365  14.839  0.9593  2.3141  1.9137
16307TIP3    H270337   6.211   2.401  14.743  0.0771 -1.6504 -0.8322
16308TIP3   OH270338   2.100   0.621   5.991  0.1251 -0.2418  0.4083
16308TIP3    H170339   2.177   0.570   5.965  0.5351  0.9577 -0.8586
16308TIP3    H270340   2.030   0.556   6.001  0.3831 -0.9950 -2.1064
16309TIP3   OH270341   6.035   3.494  10.500 -0.3066 -0.0240  0.6631
16309TIP3    H170342   6.044   3.405  10.465  0.8091  0.5365 -0.5564
16309TIP3    H270343   6.095   3.496  10.575  0.4101 -0.0140  0.0942
16310TIP3   OH270344   5.639   0.695  16.985  0.1685  0.0513 -0.2048
16310TIP3    H170345   5.695   0.636  17.035 -0.3164 -0.2951 -0.0614
16310TIP3    H270346   5.697   0.766  16.957  0.4515  0.2387  0.8248
16311TIP3   OH270347   6.436   6.283   2.493  0.4242  0.6667 -0.5519
16311TIP3    H170348   6.456   6.194   2.466 -0.8982  0.5871 -1.3661
16311TIP3    H270349   6.363   6.274   2.555 -0.5999  1.2311 -1.6323
16312TIP3   OH270350   5.721   6.181  15.205 -0.3269 -0.0960  0.5112
16312TIP3    H170351   5.709   6.095  15.164 -0.7049  1.2610 -2.4590
16312TIP3    H270352   5.816   6.191  15.212 -0.0934  0.4909 -2.2641
16313TIP3   OH270353   1.622   2.634   2.423 -0.1091 -0.3630  0.0483
16313TIP3    H170354   1.619   2.636   2.518  0.5501  2.8618  0.1139
16313TIP3    H270355   1.580   2.551   2.399 -1.5511 -0.6365  3.0812
16314TIP3   OH270356   4.214   6.211   3.766 -0.1345 -0.0753 -0.1728
16314TIP3    H170357   4.196   6.118   3.782  0.9494 -0.2004  0.4283
16314TIP3    H270358   4.180   6.227   3.678  0.5868 -1.3139 -0.7050
16315TIP3   OH270359   4.733   2.443  16.780  0.5171 -0.4294  0.5750
16315TIP3    H170360   4.815   2.478  16.745 -0.2307 -0.9580 -1.8537
16315TIP3    H270361   4.757   2.355  16.812  0.7918 -0.8410 -0.7223
16316TIP3   OH270362   4.795   2.360  12.510 -0.9838  0.0327  0.9092
16316TIP3    H170363   4.888   2.384  12.506 -1.0510  0.3123  0.9815
16316TIP3    H270364   4.789   2.304  12.588 -0.9224  0.2275  1.0554
16317TIP3   OH270365   0.059   2.494  15.082 -0.2345  0.0172  0.3562
16317TIP3    H170366   0.124   2.541  15.133 -0.7975  0.8243  0.3420
16317TIP3    H270367  -0.024   2.535  15.105 -0.5833 -0.1267 -0.6081
16318TIP3   OH270368   6.299   5.979  14.868  0.1360  0.1874  0.0304
16318TIP3    H170369   6.326   5.924  14.795 -0.1718  0.8462 -0.5988
16318TIP3    H270370   6.371   6.040  14.880 -0.5129  1.1584 -0.8454
16319TIP3   OH270371   6.655   1.114   1.978  0.1387 -0.4414  0.0470
16319TIP3    H170372   6.566   1.104   2.012  0.0809  3.1763  1.3962
16319TIP3    H270373   6.643   1.119   1.883 -1.0498 -0.3536  0.1814
16320TIP3   OH270374   1.499   1.847   4.702 -0.0333  0.1406 -0.3190
16320TIP3    H170375   1.490   1.775   4.764 -1.5971  1.0002  0.4830
16320TIP3    H270376   1.574   1.821   4.647 -0.9402 -2.4190 -0.5084
16321TIP3   OH270377   6.671   3.049  14.966 -0.1037 -1.0003  0.5757
16321TIP3    H170378   6.618   2.990  14.912 -0.7159 -2.3716  2.5473
16321TIP3    H270379   6.647   3.027  15.056 -0.6926  2.6205  1.4510
16322TIP3   OH270380   0.507   1.636  12.904  0.1065 -0.1657 -0.3848
16322TIP3    H170381   0.569   1.680  12.846  0.6395 -0.4192 -0.0175
16322TIP3    H270382   0.423   1.676  12.884  0.6717  1.5744  0.4459
16323TIP3   OH270383   6.792   1.791  15.694  0.3850  0.1486 -0.0880
16323TIP3    H170384   6.727   1.839  15.747  0.4700 -0.5735  0.6907
16323TIP3    H270385   6.870   1.788  15.749  0.1624 -1.4763  0.1877
16324TIP3   OH270386   5.367   1.734   4.952 -0.5754  0.4174 -0.1406
16324TIP3    H170387   5.316   1.786   5.015 -1.0591  0.0036 -0.1855
16324TIP3    H270388   5.442   1.704   5.002 -1.0916 -0.1260  0.3244
16325TIP3   OH270389   4.396   1.044  13.472  0.1972  0.6066  0.1750
16325TIP3    H170390   4.451   0.967  13.487 -0.1051 -0.1753 -2.3749
16325TIP3    H270391   4.317   1.027  13.523  0.1540 -0.7730 -0.3265
16326TIP3   OH270392   6.616   3.306   0.351  0.2730 -0.4419 -0.1549
16326TIP3    H170393   6.576   3.339   0.270  0.7186  1.2554  0.2947
16326TIP3    H270394   6.684   3.246   0.321 -0.1978 -0.5643 -1.0115
16327TIP3   OH270395   5.669   0.726   3.703 -0.1006 -0.1573  0.2060
16327TIP3    H170396   5.651   0.813   3.669 -0.5943 -0.0687  0.6760
16327TIP3    H270397   5.661   0.668   3.628 -1.8114 -0.0519  0.2642
16328TIP3   OH270398   4.198   4.742  12.276 -0.0797 -0.8410 -0.4259
16328TIP3    H170399   4.226   4.701  12.195  2.1874 -1.5378  0.6296
16328TIP3    H270400   4.278   4.779  12.313 -1.2537  0.4891  0.9444
16329TIP3   OH270401   4.585   5.385  11.619 -0.4515  0.1181  0.2175
16329TIP3    H170402   4.507   5.433  11.591  0.3049  1.3480  0.1735
16329TIP3    H270403   4.562   5.352  11.706 -0.5587  1.6124  0.7844
16330TIP3   OH270404   4.264   4.186   1.989 -0.6024  0.2380  0.0303
16330TIP3    H170405   4.248   4.173   2.082  1.3775 -1.0585  0.2538
16330TIP3    H270406   4.352   4.225   1.984  0.0086 -1.1589 -1.2933
16331TIP3   OH270407   4.612   4.861   5.299 -0.2714 -0.2097 -0.7165
16331TIP3    H170408   4.661   4.937   5.330  0.3964 -0.8357 -0.2027
16331TIP3    H270409   4.667   4.786   5.322 -1.1527 -0.8835 -0.7685
16332TIP3   OH270410   1.041   6.666  14.096 -0.3825 -0.3616 -0.3219
16332TIP3    H170411   1.004   6.610  14.027 -0.5665 -0.8997  0.2015
16332TIP3    H270412   1.058   6.606  14.168  1.6979 -0.1519 -0.5967
16333TIP3   OH270413   2.878   3.339  11.471 -0.5410  0.2325 -0.1111
16333TIP3    H170414   2.802   3.376  11.427 -0.3703  2.1247  1.0735
16333TIP3    H270415   2.951   3.394  11.442 -0.0282 -0.0419  0.6252
16334TIP3   OH270416   4.209   3.091  11.491 -0.1940  0.0452 -0.4537
16334TIP3    H170417   4.121   3.124  11.471 -1.2219 -1.9083  0.5224
16334TIP3    H270418   4.237   3.144  11.566 -0.9019  0.1334 -0.2376
16335TIP3   OH270419   2.891   5.089  12.812 -0.0677  0.0345 -0.1996
16335TIP3    H170420   2.861   5.156  12.750  0.1097 -0.2778 -0.6251
16335TIP3    H270421   2.910   5.013  12.758  0.0111 -0.2689  0.2503
16336TIP3   OH270422   0.812   4.396   2.084  0.7284 -0.8969 -0.3710
16336TIP3    H170423   0.723   4.397   2.047  0.4479 -0.6940  0.2939
16336TIP3    H270424   0.804   4.442   2.167  0.6701 -3.9060  1.4321
16337TIP3   OH270425   3.795   2.985   4.997 -0.0700  0.1876 -0.5991
16337TIP3    H170426   3.872   3.036   5.021 -1.1458  1.4312  0.3327
16337TIP3    H270427   3.751   3.038   4.931 -0.2659 -0.4111 -0.9586
16338TIP3   OH270428   5.833   6.601  12.014  0.4162  0.5610 -0.3970
16338TIP3    H170429   5.905   6.563  11.963 -0.1194  0.4640 -1.0935
16338TIP3    H270430   5.840   6.695  11.999  0.2348  0.5295 -0.6919
16339TIP3   OH270431   4.231   6.645  10.902 -0.0935  0.4328 -0.1419
16339TIP3    H170432   4.283   6.718  10.935 -0.9253  0.8392  0.3255
16339TIP3    H270433   4.284   6.568  10.919 -0.0867  0.7303  1.3232
16340TIP3   OH270434   3.416   0.267   4.367  0.1701  0.7743  0.6095
16340TIP3    H170435   3.479   0.324   4.323  1.1543 -1.4573 -1.0247
16340TIP3    H270436   3.419   0.294   4.459 -0.5746  4.3407 -0.2585
16341TIP3   OH270437   0.450   5.339   4.276 -0.0892  0.2761 -0.2189
16341TIP3    H170438   0.418   5.342   4.366  1.2035 -0.4330  0.2880
16341TIP3    H270439   0.404   5.411   4.232  0.5370  1.7641  1.4308
16342TIP3   OH270440   6.141   6.026   3.437  0.4865  0.1480 -0.3907
16342TIP3    H170441   6.074   6.071   3.488  0.3104 -1.8875  1.3266
16342TIP3    H270442   6.216   6.086   3.437  0.1540  0.6335  1.5197
16343TIP3   OH270443   0.776   2.106   3.906 -0.3771  0.1419  0.5092
16343TIP3    H170444   0.871   2.090   3.903 -0.1283  1.4312  0.8072
16343TIP3    H270445   0.738   2.021   3.923  0.6546 -0.6131 -0.7498
16344TIP3   OH270446   2.359   3.154   0.204 -0.0042 -0.3084  0.3638
16344TIP3    H170447   2.411   3.207   0.265 -0.3361  1.3804 -0.7624
16344TIP3    H270448   2.287   3.121   0.257 -0.8300  1.9232  0.7667
16345TIP3   OH270449   2.693   3.870  11.091 -0.1539 -0.5573 -0.3658
16345TIP3    H170450   2.718   3.962  11.097  0.2282 -0.7227  0.8897
16345TIP3    H270451   2.646   3.863  11.008 -1.0659  0.9794 -0.0191
16346TIP3   OH270452   5.647   6.107  15.703  0.9502 -0.6015  0.6688
16346TIP3    H170453   5.734   6.094  15.741  1.2744 -0.0265  0.1433
16346TIP3    H270454   5.663   6.159  15.625  0.1000 -0.2479  0.7215
16347TIP3   OH270455   0.140   1.899  12.115 -0.4666 -0.1879  0.0584
16347TIP3    H170456   0.056   1.900  12.161 -0.3971  1.8721  0.2385
16347TIP3    H270457   0.204   1.878  12.183 -0.6848 -0.2698  0.2408
16348TIP3   OH270458   0.700   1.847   3.693 -0.1235  0.0333  0.5995
16348TIP3    H170459   0.677   1.850   3.600  3.4870  0.2208 -0.4330
16348TIP3    H270460   0.722   1.756   3.709  0.1719  0.1747  1.0151
16349TIP3   OH270461   4.069   3.082   4.772 -0.3232 -0.2841 -0.3449
16349TIP3    H170462   4.036   2.994   4.751 -1.4022  0.1539 -0.5700
16349TIP3    H270463   3.991   3.130   4.800  0.1067  0.8438 -1.0400
16350TIP3   OH270464   5.900   0.391   3.828 -0.6326  0.1724 -0.7939
16350TIP3    H170465   5.935   0.384   3.917 -0.5261  2.1508 -0.6258
16350TIP3    H270466   5.948   0.326   3.778 -0.1287 -0.4328  0.4272
16351TIP3   OH270467   0.452   5.443  14.171  0.3708  0.3565 -0.2048
16351TIP3    H170468   0.413   5.514  14.120  0.8355  0.8848  0.1682
16351TIP3    H270469   0.379   5.408  14.223  0.2211  0.8164 -0.1030
16352TIP3   OH270470   6.669   3.730   3.821 -0.0040  0.2866  0.1141
16352TIP3    H170471   6.761   3.710   3.803 -0.1796  0.8273 -1.5980
16352TIP3    H270472   6.630   3.740   3.734 -1.4428  1.1349  0.8284
16353TIP3   OH270473   0.768   6.380   5.655 -0.6355  0.2708 -0.3523
16353TIP3    H170474   0.737   6.469   5.640 -1.6897  0.2656  1.5142
16353TIP3    H270475   0.840   6.369   5.593 -0.0380  2.6635 -0.1814
16354TIP3   OH270476   2.362   3.592  15.923 -0.3903 -0.0645 -0.0036
16354TIP3    H170477   2.342   3.601  16.016 -0.5064  0.8078 -0.1103
16354TIP3    H270478   2.385   3.499  15.913  0.6690  0.0498  1.0921
16355TIP3   OH270479   1.288   0.881   4.964 -0.4221 -0.1430  0.2588
16355TIP3    H170480   1.326   0.795   4.944  0.4750 -0.2069  1.9642
16355TIP3    H270481   1.357   0.944   4.942 -1.0991  0.1641 -1.0435
16356TIP3   OH270482   4.854   4.013   3.863  1.0487  0.3685  0.3040
16356TIP3    H170483   4.785   4.045   3.805  2.4371 -1.2981 -2.4480
16356TIP3    H270484   4.900   4.092   3.892 -1.3471  1.4366  1.4651
16357TIP3   OH270485   6.606   0.911  15.910 -0.0463 -0.5426  0.0418
16357TIP3    H170486   6.541   0.893  15.978  0.8607  0.9414  1.3695
16357TIP3    H270487   6.565   0.879  15.830 -1.7047 -1.1817  1.0748
16358TIP3   OH270488   3.997   2.729   4.310  0.0929  0.2575 -0.4563
16358TIP3    H170489   4.011   2.648   4.359  1.5836  0.9861  0.3978
16358TIP3    H270490   3.902   2.735   4.301 -0.1189 -0.8868  0.6863
16359TIP3   OH270491   6.203   3.450   2.848 -0.3452  0.6467 -0.6043
16359TIP3    H170492   6.208   3.361   2.883 -0.3268  0.6046 -0.7128
16359TIP3    H270493   6.282   3.493   2.880 -0.9965  1.0315  0.5619
16360TIP3   OH270494   3.975   4.449   5.929 -0.8834 -0.3800  0.0051
16360TIP3    H170495   4.022   4.366   5.934  1.9870  1.1691  1.3987
16360TIP3    H270496   4.017   4.496   5.856 -0.4425  0.8902  1.0266
16361TIP3   OH270497   1.550   2.727   1.634  0.0294  0.6099 -1.1719
16361TIP3    H170498   1.479   2.670   1.662  0.6470  0.2987 -0.2139
16361TIP3    H270499   1.515   2.815   1.643  0.3302  0.5581  1.0556
16362TIP3   OH270500   2.628   1.076   4.432  0.3354  0.4560 -0.0974
16362TIP3    H170501   2.699   1.012   4.442 -0.7611 -0.4661  3.0426
16362TIP3    H270502   2.673   1.158   4.412  2.1061 -0.4751 -0.2065
16363TIP3   OH270503   3.920   5.681  11.452  0.1566 -0.1677 -0.0699
16363TIP3    H170504   3.921   5.620  11.526 -0.4130 -0.4371 -0.2803
16363TIP3    H270505   3.838   5.729  11.460  0.5799  0.5474  0.0649
16364TIP3   OH270506   4.844   4.510  15.727 -0.1402 -0.0054  0.3878
16364TIP3    H170507   4.896   4.475  15.655  1.2729  1.6217  0.5568
16364TIP3    H270508   4.786   4.574  15.685 -2.0980 -1.8018  0.1998
16365TIP3   OH270509   6.630   5.400  10.921 -0.1202  0.5620  0.1635
16365TIP3    H170510   6.645   5.495  10.913  0.1395  0.4225 -1.2470
16365TIP3    H270511   6.535   5.392  10.925 -0.1394  0.8835  0.5496
16366TIP3   OH270512   0.678   3.686   4.011  0.2535 -0.2507 -0.9746
16366TIP3    H170513   0.701   3.631   4.086  0.1827  0.5512 -0.3561
16366TIP3    H270514   0.659   3.771   4.048 -1.0788 -0.1689 -1.7670
16367TIP3   OH270515   5.581   6.303  16.790 -0.1912  0.2904  0.0880
16367TIP3    H170516   5.623   6.247  16.725 -0.4786  0.7728 -0.5261
16367TIP3    H270517   5.506   6.341  16.744 -0.7583  0.1678  0.8889
16368TIP3   OH270518   6.200   0.891   3.832  0.5217  0.2476  1.0662
16368TIP3    H170519   6.284   0.896   3.785 -0.0745  1.9164  0.0858
16368TIP3    H270520   6.219   0.839   3.909  1.6617 -2.3853 -0.8204
16369TIP3   OH270521   0.109   1.278  15.916 -0.4085 -0.0808 -0.2967
16369TIP3    H170522   0.170   1.211  15.949  1.1474  2.3077  2.1696
16369TIP3    H270523   0.165   1.339  15.868 -1.0783  1.2962  0.6025
16370TIP3   OH270524   5.743   5.389  14.301 -0.1161 -0.4583 -0.9300
16370TIP3    H170525   5.681   5.462  14.295 -0.1485 -0.1994  1.4488
16370TIP3    H270526   5.688   5.313  14.321  0.2642 -0.1271  1.7503
16371TIP3   OH270527   4.913   0.427   4.514  0.1610  0.2900  0.6953
16371TIP3    H170528   4.916   0.522   4.503  0.0452  0.3968  1.4982
16371TIP3    H270529   4.934   0.392   4.428  0.4573  1.0463  0.4494
16372TIP3   OH270530   3.238   5.428   4.519 -0.2693  0.2486 -0.5459
16372TIP3    H170531   3.269   5.502   4.572  0.6856 -0.8732  0.5226
16372TIP3    H270532   3.304   5.360   4.532 -1.4729 -1.0415 -0.9713
16373TIP3   OH270533   0.541   4.935  15.864 -0.1586 -0.5828 -0.1182
16373TIP3    H170534   0.528   5.028  15.846 -1.1864 -0.6136  0.3854
16373TIP3    H270535   0.591   4.903  15.789  2.6711  0.9105  1.0193
16374TIP3   OH270536   1.551   1.121  13.065 -0.6309  0.3320 -0.5573
16374TIP3    H170537   1.554   1.211  13.034 -0.2260 -0.0358 -1.6174
16374TIP3    H270538   1.474   1.084  13.022 -1.1024  0.3078  0.2870
16375TIP3   OH270539   0.191   4.110  14.455 -0.4717 -0.4163  0.6198
16375TIP3    H170540   0.165   4.055  14.381 -0.3149  1.2027 -0.7021
16375TIP3    H270541   0.232   4.187  14.414  2.0940 -0.6814  2.4612
16376TIP3   OH270542   0.081   3.713  13.389 -0.3066  0.5040 -0.4375
16376TIP3    H170543   0.049   3.628  13.417 -0.0677  0.5099 -0.1334
16376TIP3    H270544   0.171   3.717  13.422  0.1479  0.3365 -1.5894
16377TIP3   OH270545   1.006   6.325  17.138 -0.2787  0.0877 -0.7616
16377TIP3    H170546   0.919   6.362  17.151 -0.3261  0.2484 -1.4715
16377TIP3    H270547   1.058   6.396  17.100  0.5342  0.3817  0.8416
16378TIP3   OH270548   1.756   4.928   2.415 -0.2269 -0.2309  0.1831
16378TIP3    H170549   1.691   4.999   2.421  0.5287  0.4728  0.1562
16378TIP3    H270550   1.803   4.945   2.334 -0.3579 -1.0577 -0.0742
16379TIP3   OH270551   5.497   2.583   0.951 -0.3612 -0.2672 -0.3226
16379TIP3    H170552   5.423   2.606   0.894 -0.7102  0.5262  0.4223
16379TIP3    H270553   5.574   2.592   0.895 -0.7349  0.0551 -0.7933
16380TIP3   OH270554   4.330   3.675   4.639 -0.1628 -0.6697  0.8293
16380TIP3    H170555   4.405   3.672   4.580 -1.4635 -1.1555 -0.8508
16380TIP3    H270556   4.368   3.655   4.725  1.9466  1.1278  0.4227
16381TIP3   OH270557   4.344   3.111   6.122  0.4357 -0.5429  0.3383
16381TIP3    H170558   4.426   3.076   6.158  0.6569  0.8383  1.2462
16381TIP3    H270559   4.372   3.161   6.046  0.5838  0.7537  1.2170
16382TIP3   OH270560   3.173   3.158  13.035 -0.0587 -0.3107 -0.2381
16382TIP3    H170561   3.149   3.066  13.026 -1.2393 -0.0557  0.0939
16382TIP3    H270562   3.146   3.181  13.124 -3.3426  1.2912 -1.4627
16383TIP3   OH270563   1.843   5.000   3.762  0.1665  0.0731  0.0880
16383TIP3    H170564   1.863   5.055   3.837 -0.1376 -0.2204  0.3895
16383TIP3    H270565   1.770   4.945   3.791 -0.6174  0.6486 -0.7480
16384TIP3   OH270566   3.357   4.544   1.066  0.3929  0.2919  0.0916
16384TIP3    H170567   3.395   4.507   0.986 -0.2031  0.6565 -0.3718
16384TIP3    H270568   3.321   4.628   1.038  0.7892  0.7434  0.9006
16385TIP3   OH270569   2.421   6.370   4.093  0.0345 -0.0769  0.2100
16385TIP3    H170570   2.469   6.419   4.160  0.7723 -2.6747  1.7439
16385TIP3    H270571   2.429   6.279   4.121 -0.4500 -1.1987 -2.9554
16386TIP3   OH270572   1.327   6.419  16.339 -0.4020 -0.3099 -0.9070
16386TIP3    H170573   1.403   6.444  16.392 -1.3482  2.0436 -0.5591
16386TIP3    H270574   1.297   6.337  16.379  0.2668  0.2010  0.7508
16387TIP3   OH270575   1.387   5.203   0.957  0.4108  0.8895  0.4068
16387TIP3    H170576   1.449   5.133   0.977  0.3471  1.4227  2.9108
16387TIP3    H270577   1.356   5.185   0.869  2.1597 -0.8727  0.1012
16388TIP3   OH270578   3.529   4.803  12.132 -0.4258  0.4163 -0.1209
16388TIP3    H170579   3.532   4.809  12.227 -1.2272 -0.2717 -0.0445
16388TIP3    H270580   3.547   4.711  12.113 -0.5777  0.4853 -0.6179
16389TIP3   OH270581   1.248   0.638   3.240  0.4101 -0.1333 -0.0045
16389TIP3    H170582   1.199   0.557   3.247 -0.2558  0.1277 -1.2987
16389TIP3    H270583   1.289   0.634   3.153 -0.1519  1.1695 -0.3605
16390TIP3   OH270584   0.405   3.820  15.089  0.3882 -0.4045  0.2171
16390TIP3    H170585   0.325   3.771  15.108 -0.2212 -0.0261 -1.2395
16390TIP3    H270586   0.470   3.753  15.067 -0.1921 -0.6231 -0.8877
16391TIP3   OH270587   5.154   1.687   1.212  0.1112  1.1215  0.0719
16391TIP3    H170588   5.083   1.715   1.154  0.8560  0.5376 -1.1798
16391TIP3    H270589   5.145   1.591   1.216  0.6072  1.0772  0.1892
16392TIP3   OH270590   1.557   4.664   2.678  0.3574  0.0590  0.4263
16392TIP3    H170591   1.478   4.716   2.689  1.8415  2.7230 -0.6431
16392TIP3    H270592   1.598   4.663   2.764  0.9667  1.8698  0.1889
16393TIP3   OH270593   6.116   4.224  15.221 -0.1070  0.1689 -0.3068
16393TIP3    H170594   6.210   4.242  15.217 -0.2053  0.7396 -0.2078
16393TIP3    H270595   6.081   4.258  15.139 -0.4464  1.3855  0.3160
16394TIP3   OH270596   2.467   4.602  15.297  0.0603  0.1370  0.3690
16394TIP3    H170597   2.425   4.679  15.335  0.1037 -0.8299  2.5211
16394TIP3    H270598   2.517   4.636  15.223 -0.6550  2.0331  0.7020
16395TIP3   OH270599   3.185   0.668  14.074  0.0405 -0.1762  0.6647
16395TIP3    H170600   3.254   0.661  14.007 -0.3221  0.0704  0.2589
16395TIP3    H270601   3.211   0.744  14.126 -0.1879  0.2236  0.2015
16396TIP3   OH270602   5.301   5.842  12.003  0.3426 -0.0847  0.3050
16396TIP3    H170603   5.313   5.848  11.908  0.6170 -0.9572  0.2759
16396TIP3    H270604   5.263   5.755  12.017 -0.2217  0.2627  0.9467
16397TIP3   OH270605   6.311   6.706  16.299  0.4849  0.3387  0.3438
16397TIP3    H170606   6.242   6.707  16.365 -0.1404 -1.1169 -0.2205
16397TIP3    H270607   6.280   6.765  16.230 -1.0346 -1.4538 -0.6227
16398TIP3   OH270608   2.955   3.598   3.311  0.0502 -0.0001 -0.0788
16398TIP3    H170609   2.862   3.604   3.334  0.8123  1.1668  3.2271
16398TIP3    H270610   2.976   3.683   3.273 -0.3264 -0.5136 -1.5045
16399TIP3   OH270611   1.048   5.569  17.007 -0.5729  0.2637 -0.8722
16399TIP3    H170612   1.095   5.646  17.038  0.3786  0.1058 -1.8868
16399TIP3    H270613   1.115   5.514  16.966 -1.3976 -0.6505 -1.0472
16400TIP3   OH270614   2.797   1.092   0.404 -0.5387 -0.2798 -0.6086
16400TIP3    H170615   2.804   1.185   0.422  1.2027 -0.3573 -0.6642
16400TIP3    H270616   2.816   1.084   0.310  0.2612 -0.7613 -0.4168
16401TIP3   OH270617   2.577   5.876   3.741  0.1636  0.8991 -0.4149
16401TIP3    H170618   2.547   5.787   3.718 -1.9555  1.1499  1.0392
16401TIP3    H270619   2.567   5.926   3.661  1.9576 -0.2504 -1.4289
16402TIP3   OH270620   1.278   3.271  11.620 -0.1729 -0.5432 -0.1075
16402TIP3    H170621   1.316   3.353  11.586  1.3252 -1.4804 -0.7905
16402TIP3    H270622   1.305   3.269  11.711  0.4814 -0.6596 -0.2998
16403TIP3   OH270623   0.345   5.562   0.494  0.5509 -0.1402 -0.1591
16403TIP3    H170624   0.286   5.637   0.486 -1.7156 -1.8951 -1.5246
16403TIP3    H270625   0.381   5.551   0.405 -0.1859 -1.4034 -0.3207
16404TIP3   OH270626   3.050   4.985   2.287  0.1374  0.1547  0.0180
16404TIP3    H170627   3.102   4.979   2.367  1.2327  2.7800 -0.4115
16404TIP3    H270628   2.984   4.916   2.297  2.3782 -1.9445  1.5358
16405TIP3   OH270629   3.390   3.939  12.180 -0.2274  0.1393 -0.3892
16405TIP3    H170630   3.326   3.933  12.110 -1.3245 -1.4956  0.6956
16405TIP3    H270631   3.372   4.023  12.222 -1.1609  0.0354 -0.5694
16406TIP3   OH270632   3.896   6.124   1.236 -0.1287 -0.2446 -0.2311
16406TIP3    H170633   3.965   6.172   1.190  0.8493  0.7166  2.0571
16406TIP3    H270634   3.942   6.062   1.292 -1.2296 -0.9832 -0.0982
16407TIP3   OH270635   4.636   0.404  11.359 -0.0212  0.2745  0.0210
16407TIP3    H170636   4.555   0.441  11.395  0.5634  0.2409  1.4303
16407TIP3    H270637   4.628   0.417  11.265 -2.7292 -1.8032 -0.1564
16408TIP3   OH270638   0.252   6.346  11.605 -0.2007 -0.5994 -0.2738
16408TIP3    H170639   0.257   6.430  11.651  2.4492 -1.0515  0.4544
16408TIP3    H270640   0.230   6.283  11.673 -1.1953 -0.6506 -0.6284
16409TIP3   OH270641   0.048   4.247   0.600 -0.2543  0.1171  0.1734
16409TIP3    H170642   0.041   4.302   0.522 -0.7415  1.2935  1.0307
16409TIP3    H270643  -0.026   4.272   0.654 -0.0810 -0.8920  0.9053
16410TIP3   OH270644   1.329   6.740  13.358  0.3317 -0.1798 -0.4017
16410TIP3    H170645   1.423   6.723  13.360  0.2889 -0.5502 -1.0244
16410TIP3    H270646   1.322   6.835  13.349  0.6667 -0.2098 -1.0607
16411TIP3   OH270647   2.481   6.246  14.889  0.0228  0.2836 -0.5089
16411TIP3    H170648   2.462   6.286  14.805  1.7594 -2.0348 -2.1088
16411TIP3    H270649   2.556   6.295  14.923 -0.8935  1.4430 -0.0814
16412TIP3   OH270650   6.597   5.215   5.600 -0.1258  0.9316 -0.0570
16412TIP3    H170651   6.629   5.138   5.647  1.6866  1.6345 -0.0829
16412TIP3    H270652   6.547   5.264   5.665 -2.1857 -0.6885 -0.2825
16413TIP3   OH270653   4.227   4.565   3.949  0.0109  0.1600  0.0025
16413TIP3    H170654   4.267   4.595   3.868  1.4983  0.0156  0.6547
16413TIP3    H270655   4.144   4.526   3.921  0.0445  0.9653 -1.3255
16414TIP3   OH270656   5.621   6.033  13.926 -0.4101 -0.6530  0.7210
16414TIP3    H170657   5.702   6.010  13.972 -0.4956  0.1921  1.3347
16414TIP3    H270658   5.582   6.102  13.981 -0.4146  0.5335 -0.7225
16415TIP3   OH270659   1.019   4.162   2.485 -0.5299 -0.1231 -0.5451
16415TIP3    H170660   1.111   4.137   2.473 -0.8784 -1.2950 -0.9081
16415TIP3    H270661   0.979   4.085   2.525 -1.4633  0.1912 -0.8559
16416TIP3   OH270662   4.720   4.320  13.779 -0.1250 -0.0780 -0.2656
16416TIP3    H170663   4.688   4.246  13.727  1.3673 -1.8666  1.2377
16416TIP3    H270664   4.715   4.291  13.869  0.5016  1.6784  0.3787
16417TIP3   OH270665   3.112   1.213   1.808 -0.2234 -0.5854 -0.5216
16417TIP3    H170666   3.084   1.180   1.723 -0.7120 -0.4849 -0.4040
16417TIP3    H270667   3.182   1.155   1.835 -1.3894 -1.8370 -0.0940
16418TIP3   OH270668   1.476   1.657  12.273  0.6488  0.5160 -0.4370
16418TIP3    H170669   1.450   1.619  12.357  2.1166 -0.1496 -0.2512
16418TIP3    H270670   1.514   1.584  12.224  0.4769  1.0510 -1.3999
16419TIP3   OH270671   1.044   3.488  11.305 -0.6279  0.4828  0.1837
16419TIP3    H170672   1.104   3.558  11.282  1.3101  0.1173  3.4203
16419TIP3    H270673   0.962   3.532  11.328 -0.8150  1.2318 -1.7606
16420TIP3   OH270674   4.036   3.107  10.966 -0.6295  0.4336 -0.5332
16420TIP3    H170675   3.987   3.046  10.911  0.3774  0.4726 -1.5024
16420TIP3    H270676   4.058   3.055  11.044  0.2025 -0.4567 -1.3376
16421TIP3   OH270677   5.129   5.067  16.918  0.7309  0.2807 -0.0643
16421TIP3    H170678   5.110   5.082  16.825  1.2014  0.2345 -0.1702
16421TIP3    H270679   5.065   5.121  16.964  2.1148  2.3751 -0.4417
16422TIP3   OH270680   2.195   0.088   4.035 -0.0180 -0.2497 -0.3886
16422TIP3    H170681   2.117   0.138   4.060  0.8362 -0.1269  2.3219
16422TIP3    H270682   2.225   0.130   3.954 -1.3930  1.2436 -0.1779
16423TIP3   OH270683   5.519   6.123  15.972  0.0147 -1.0221  0.6812
16423TIP3    H170684   5.450   6.189  15.962 -1.9599 -2.8345  1.5875
16423TIP3    H270685   5.552   6.109  15.884  0.0126  0.6816  0.3835
16424TIP3   OH270686   2.816   4.408   1.548  0.3530  0.4620 -0.4764
16424TIP3    H170687   2.880   4.419   1.477 -1.0569  0.5360 -1.8017
16424TIP3    H270688   2.776   4.495   1.558 -1.1050 -0.0732 -1.2798
16425TIP3   OH270689   2.919   5.774  16.653  0.6430 -0.1208 -0.4550
16425TIP3    H170690   2.848   5.785  16.590 -1.5077  0.3802  1.8662
16425TIP3    H270691   2.898   5.692  16.698  1.6677 -0.0903  0.1029
16426TIP3   OH270692   5.045   3.253   4.884  0.0848  0.7423 -0.3280
16426TIP3    H170693   5.028   3.168   4.924  2.3435  1.1282  1.6574
16426TIP3    H270694   5.125   3.284   4.926 -0.1518  3.4508 -1.6565
16427TIP3   OH270695   5.971   4.945   2.661 -0.3044 -0.1882 -0.2123
16427TIP3    H170696   5.915   5.023   2.668 -2.1333 -1.5785  2.4927
16427TIP3    H270697   5.967   4.922   2.568 -1.5329  1.6747 -0.6922
16428TIP3   OH270698   5.998   4.270   2.360  0.3020 -0.2371  0.4665
16428TIP3    H170699   5.985   4.288   2.267  1.2720 -0.6370  0.2476
16428TIP3    H270700   6.093   4.268   2.372  0.1987  1.0885  1.7248
16429TIP3   OH270701   5.555   3.293  15.711 -0.1129  0.4029 -0.0112
16429TIP3    H170702   5.594   3.332  15.632 -1.0990 -0.2141 -0.8113
16429TIP3    H270703   5.519   3.368  15.759  1.1454  0.8715  0.2590
16430TIP3   OH270704   2.078   3.386   0.990 -0.5418 -0.0108 -0.4388
16430TIP3    H170705   2.101   3.463   0.938  1.2567  0.4875  0.9852
16430TIP3    H270706   1.997   3.410   1.034 -1.9421 -0.3269 -2.6472
16431TIP3   OH270707   3.100   3.170   4.653 -0.2909  0.2591  1.1540
16431TIP3    H170708   3.053   3.113   4.592  0.2571  0.7248  0.2797
16431TIP3    H270709   3.168   3.115   4.690  0.5728  0.4485 -0.0834
16432TIP3   OH270710   1.460   4.905   6.284  0.5079  0.2677 -0.4550
16432TIP3    H170711   1.368   4.898   6.260  0.1284  1.5340  0.5178
16432TIP3    H270712   1.483   4.996   6.265  1.4943  0.0448 -0.4126
16433TIP3   OH270713   3.592   4.534  12.106  0.6398 -0.0792  0.2366
16433TIP3    H170714   3.530   4.466  12.082  0.7846  0.1629 -0.8651
16433TIP3    H270715   3.673   4.488  12.125  0.5028 -0.2822  0.3260
16434TIP3   OH270716   3.979   4.464  15.909 -0.0789 -0.5684  0.2200
16434TIP3    H170717   3.893   4.442  15.872  0.7110 -1.0832 -1.4059
16434TIP3    H270718   4.042   4.423  15.850  1.2965 -0.8320  1.7913
16435TIP3   OH270719   6.759   5.914   4.254  0.0192  0.2139 -0.0726
16435TIP3    H170720   6.779   5.988   4.196 -0.3542 -0.7531 -1.4976
16435TIP3    H270721   6.769   5.949   4.342  1.9945  1.3903 -0.6959
16436TIP3   OH270722   0.776   4.646  14.457 -0.2218  0.1459 -0.6215
16436TIP3    H170723   0.715   4.576  14.431 -0.0953 -1.0237  1.9093
16436TIP3    H270724   0.854   4.599  14.487  0.1823  1.4132  0.3897
16437TIP3   OH270725   1.256   4.437   0.238  0.0577  0.2762 -0.4476
16437TIP3    H170726   1.222   4.416   0.325  0.7970 -0.7622 -0.3903
16437TIP3    H270727   1.180   4.469   0.189 -0.2184  1.6666  0.8100
16438TIP3   OH270728   2.791   3.806  17.129  0.4571  0.5631  0.2161
16438TIP3    H170729   2.803   3.901  17.126 -2.8368  1.1166  0.7810
16438TIP3    H270730   2.697   3.794  17.142  0.5322 -2.8275 -1.2646
16439TIP3   OH270731   2.825   5.169  12.022  0.3010 -0.2254 -0.0085
16439TIP3    H170732   2.757   5.198  12.083  0.5393  0.4218 -0.0437
16439TIP3    H270733   2.788   5.188  11.935  0.3819 -0.2065 -0.0381
16440TIP3   OH270734   2.310   2.383   2.660  0.8282  0.1545 -0.0294
16440TIP3    H170735   2.227   2.386   2.614  0.7954 -1.0488 -0.0995
16440TIP3    H270736   2.302   2.447   2.731 -1.2172 -1.8025  1.6444
16441TIP3   OH270737   2.892   1.301  14.027 -0.1156 -0.8678 -0.1841
16441TIP3    H170738   2.849   1.239  13.968 -0.6288  0.4023 -1.1915
16441TIP3    H270739   2.844   1.383  14.015  1.2250  0.0264  0.2960
16442TIP3   OH270740   4.005   5.454   5.161 -0.6590  0.0492 -0.0635
16442TIP3    H170741   4.065   5.392   5.202 -0.2108 -1.7156 -3.0986
16442TIP3    H270742   3.932   5.461   5.223  0.9554 -0.6499  2.0112
16443TIP3   OH270743   2.640   5.686  12.533  0.3841 -0.0817  0.4625
16443TIP3    H170744   2.617   5.593  12.535 -2.9392  0.6304  2.0766
16443TIP3    H270745   2.643   5.712  12.625 -0.2218  1.6796  0.0307
16444TIP3   OH270746   3.821   0.415   5.227  0.1015 -0.3874  0.7427
16444TIP3    H170747   3.733   0.430   5.191 -0.3118 -0.5764  1.6393
16444TIP3    H270748   3.834   0.320   5.218  0.9857 -0.1366 -1.0647
16445TIP3   OH270749   5.798   0.240   3.163  0.4967 -0.1230 -0.5985
16445TIP3    H170750   5.833   0.178   3.227  1.0515  1.5950  0.8541
16445TIP3    H270751   5.855   0.232   3.087  1.5815 -0.2200  0.2086
16446TIP3   OH270752   1.147   0.344  14.176 -0.5021  0.6670  0.2128
16446TIP3    H170753   1.159   0.249  14.185 -0.8394  0.7285  1.3968
16446TIP3    H270754   1.225   0.382  14.218 -0.9314  0.9325  0.7720
16447TIP3   OH270755   2.672   0.132  16.742  0.4038 -0.4782 -0.3975
16447TIP3    H170756   2.665   0.226  16.726  0.9790 -0.9231 -4.3745
16447TIP3    H270757   2.587   0.096  16.715  0.2321 -1.1453  0.9494
16448TIP3   OH270758   5.438   2.275   0.985 -0.6101  0.1415  0.7983
16448TIP3    H170759   5.484   2.317   0.912  0.3073 -0.6808  0.8742
16448TIP3    H270760   5.504   2.219   1.026 -2.0315 -2.4084 -0.1065
16449TIP3   OH270761   2.476   0.691  16.623  0.2452 -0.4236  0.7378
16449TIP3    H170762   2.391   0.689  16.579 -0.7500 -1.2991  2.6020
16449TIP3    H270763   2.534   0.736  16.561 -1.5672  0.2192 -0.5640
16450TIP3   OH270764   0.061   4.724   4.263 -0.1612 -0.2475  0.1635
16450TIP3    H170765   0.090   4.728   4.172  0.5826  1.9741  0.4610
16450TIP3    H270766   0.141   4.718   4.314 -0.5782 -1.6022  0.7163
16451TIP3   OH270767   2.787   3.305  16.531  0.1802  0.4126 -0.8059
16451TIP3    H170768   2.709   3.309  16.587  0.3969  0.1800 -0.4838
16451TIP3    H270769   2.848   3.249  16.579  1.0603  1.6840 -0.4177
16452TIP3   OH270770   6.024   5.643   2.476 -0.3298 -0.2771  0.1039
16452TIP3    H170771   5.970   5.722   2.471 -0.2972 -0.2408  0.2996
16452TIP3    H270772   6.047   5.623   2.385 -0.6921 -0.3064  0.0165
16453TIP3   OH270773   0.907   3.965   0.148  0.0994  0.1754 -0.3406
16453TIP3    H170774   0.873   3.977   0.059 -2.1407 -0.2867  0.3827
16453TIP3    H270775   0.875   4.041   0.196 -1.4956 -1.1302  0.7743
16454TIP3   OH270776   4.576   2.306  16.408  0.2250  0.0900  0.1712
16454TIP3    H170777   4.527   2.388  16.402  1.3718  0.8535  0.8347
16454TIP3    H270778   4.509   2.238  16.398 -0.6500  1.0820 -1.1897
16455TIP3   OH270779   2.925   5.951   2.091 -0.0466  0.1198  0.1549
16455TIP3    H170780   2.933   6.041   2.058  1.3535  0.0544  0.2689
16455TIP3    H270781   2.930   5.960   2.186 -1.4300  0.0505  0.2511
16456TIP3   OH270782   4.459   6.461   4.750 -0.3485  0.4107  0.3411
16456TIP3    H170783   4.413   6.384   4.717  2.9603 -2.5904  2.0316
16456TIP3    H270784   4.510   6.492   4.675  2.8008 -2.8974  0.8500
16457TIP3   OH270785   1.196   1.946  16.972  0.1289 -0.6293  0.2464
16457TIP3    H170786   1.174   1.936  17.065  1.4601 -2.0160  0.4438
16457TIP3    H270787   1.228   1.860  16.945  0.5903 -0.0133 -1.2740
16458TIP3   OH270788   6.094   4.328   3.975 -0.0846 -0.1399 -0.1742
16458TIP3    H170789   6.137   4.356   4.055 -2.5989 -1.0495  1.6174
16458TIP3    H270790   6.106   4.233   3.973 -2.7450 -0.5943  0.9812
16459TIP3   OH270791   4.937   6.788  16.539 -0.5280 -0.3936  0.5828
16459TIP3    H170792   4.874   6.718  16.555 -0.6812 -0.0685  1.4830
16459TIP3    H270793   4.883   6.867  16.532 -0.2917 -0.2472  0.4092
16460TIP3   OH270794   5.200   0.300   1.116  0.2619  0.1646  0.0867
16460TIP3    H170795   5.239   0.230   1.168  1.0056  0.1575 -0.4649
16460TIP3    H270796   5.248   0.298   1.033  0.6451  1.6456  0.2449
16461TIP3   OH270797   4.986   4.507   3.391 -0.2247 -0.0219 -0.2180
16461TIP3    H170798   4.916   4.442   3.400 -0.9659  0.5955 -1.2405
16461TIP3    H270799   5.061   4.457   3.360 -1.0069 -0.3111 -1.7524
16462TIP3   OH270800   3.044   5.251   6.135 -0.5183 -0.5977  0.2603
16462TIP3    H170801   3.078   5.163   6.151 -0.2909 -0.4992  0.3211
16462TIP3    H270802   3.077   5.303   6.209  0.3724 -0.1814 -0.4141
16463TIP3   OH270803   1.107   4.475   0.790  0.7867  0.4683 -0.5511
16463TIP3    H170804   1.127   4.424   0.869  0.2182 -0.9953 -1.3269
16463TIP3    H270805   1.071   4.557   0.824 -0.9401 -0.7333  0.7619
16464TIP3   OH270806   6.580   5.117  11.963 -0.7403 -0.1742  0.5358
16464TIP3    H170807   6.619   5.118  11.876  0.5360 -0.4483  1.0762
16464TIP3    H270808   6.520   5.042  11.962 -2.3707  1.0664 -0.7464
16465TIP3   OH270809   1.192   2.510   3.732 -0.1703 -0.2485 -0.2582
16465TIP3    H170810   1.122   2.569   3.705 -0.7026 -1.7453 -2.3538
16465TIP3    H270811   1.208   2.455   3.656  1.7389 -1.4565  0.9321
16466TIP3   OH270812   6.367   5.469   4.174 -0.3791  0.2605 -0.2692
16466TIP3    H170813   6.447   5.430   4.137  0.3315  2.0865 -0.8223
16466TIP3    H270814   6.351   5.420   4.254  0.7235 -0.8040 -0.6619
16467TIP3   OH270815   2.475   0.677  10.733 -0.2979  0.2159 -0.6213
16467TIP3    H170816   2.478   0.689  10.828  0.3826  0.8897 -0.7210
16467TIP3    H270817   2.382   0.676  10.712 -0.4492  0.1538  0.0445
16468TIP3   OH270818   3.947   0.361   0.642 -0.0308  0.1427  0.7682
16468TIP3    H170819   3.862   0.317   0.642 -0.9364  1.6347 -2.0578
16468TIP3    H270820   4.010   0.291   0.659 -1.6059 -1.6989 -0.5552
16469TIP3   OH270821   3.805   3.369   5.454  0.7890 -0.0371  0.1794
16469TIP3    H170822   3.822   3.455   5.415  1.4974  0.1246  0.8291
16469TIP3    H270823   3.868   3.362   5.526 -0.9959 -0.0034  1.8193
16470TIP3   OH270824   6.633   0.783   3.380 -0.4616  0.1787  0.5422
16470TIP3    H170825   6.544   0.749   3.371 -0.8510  1.3457 -0.2042
16470TIP3    H270826   6.626   0.850   3.448 -0.5655  1.5624 -0.7800
16471TIP3   OH270827   2.077   6.192   3.855  0.6214 -0.0806 -0.1298
16471TIP3    H170828   2.149   6.140   3.892  0.4309  0.0489  0.4307
16471TIP3    H270829   2.117   6.276   3.834  0.5352  0.1521  0.6140
16472TIP3   OH270830   2.061   1.167  15.087  0.1840 -0.1598 -0.1864
16472TIP3    H170831   1.981   1.207  15.119  1.0494  0.7129  0.9643
16472TIP3    H270832   2.052   1.074  15.109 -1.0938 -0.3377 -1.3444
16473TIP3   OH270833   5.030   4.025  16.704  0.2467 -0.5268 -0.4727
16473TIP3    H170834   5.026   3.952  16.766 -0.2138 -0.1287 -0.0262
16473TIP3    H270835   4.951   4.017  16.651  0.7866 -1.0427 -1.2282
16474TIP3   OH270836   0.181   3.743   5.280 -0.3996  0.1152  0.0375
16474TIP3    H170837   0.156   3.748   5.187  1.6883 -0.3436 -0.6079
16474TIP3    H270838   0.127   3.672   5.315  0.6017 -1.5071 -1.5274
16475TIP3   OH270839   3.562   2.869  13.663  0.2991 -0.1205 -0.2425
16475TIP3    H170840   3.554   2.963  13.644 -1.1471 -0.8582 -4.3915
16475TIP3    H270841   3.477   2.846  13.701 -0.8741 -0.2743 -2.7598
16476TIP3   OH270842   5.669   5.589  13.994 -0.4678  0.1560 -0.1742
16476TIP3    H170843   5.678   5.652  14.065 -0.0810 -0.6780  0.5281
16476TIP3    H270844   5.631   5.640  13.922  1.5799  1.6679 -0.2769
16477TIP3   OH270845   1.167   6.434  14.587 -0.1390  0.0482  0.3930
16477TIP3    H170846   1.093   6.412  14.644  0.3629  2.4072  2.0981
16477TIP3    H270847   1.244   6.415  14.641  0.4592 -0.6798 -0.7010
16478TIP3   OH270848   4.148   3.086  15.923  0.2265  0.7209  0.1645
16478TIP3    H170849   4.073   3.042  15.882  1.3524 -0.8405 -0.3108
16478TIP3    H270850   4.150   3.172  15.882 -0.8696  0.5162 -0.3576
16479TIP3   OH270851   4.985   5.356   3.537 -0.4701 -0.0775  0.5584
16479TIP3    H170852   4.900   5.318   3.515 -1.6506  1.8013  1.6140
16479TIP3    H270853   4.977   5.448   3.513  0.9149  0.3524  1.6248
16480TIP3   OH270854   6.237   5.116   0.661  0.3203  0.4523  0.2135
16480TIP3    H170855   6.195   5.105   0.576 -1.3589  1.0286  0.9343
16480TIP3    H270856   6.196   5.051   0.717  1.8800 -0.3645  0.4555
16481TIP3   OH270857   5.846   4.837   0.191  0.3471  0.2064  0.0424
16481TIP3    H170858   5.776   4.900   0.202 -1.0177 -1.4630  1.5065
16481TIP3    H270859   5.858   4.830   0.096 -1.4278  0.6011 -0.2438
16482TIP3   OH270860   3.506   2.041  15.173  0.0203  0.2880 -0.2749
16482TIP3    H170861   3.526   1.948  15.187 -0.3288  0.3729  0.8804
16482TIP3    H270862   3.415   2.041  15.143  0.2128  0.2302 -0.8862
16483TIP3   OH270863   5.682   2.365   2.902 -0.1605 -0.7421 -0.3132
16483TIP3    H170864   5.617   2.395   2.964  0.6819  1.0144 -0.2124
16483TIP3    H270865   5.725   2.445   2.871  1.6170 -1.7857 -0.7252
16484TIP3   OH270866   2.253   3.667  14.768  0.3290  0.0918  0.4114
16484TIP3    H170867   2.192   3.624  14.708 -1.4705  1.8901  0.8176
16484TIP3    H270868   2.314   3.598  14.794 -1.7771 -1.9588  0.2757
16485TIP3   OH270869   3.019   6.008  11.297  0.2630 -0.9298 -0.2172
16485TIP3    H170870   2.923   6.016  11.300  0.3278  0.3112 -0.7731
16485TIP3    H270871   3.043   6.036  11.209  1.0885 -2.0916 -0.3837
16486TIP3   OH270872   1.318   4.143  16.359  0.5011 -0.3830  0.0216
16486TIP3    H170873   1.400   4.193  16.364 -0.0070  0.6384 -1.1808
16486TIP3    H270874   1.343   4.060  16.318  0.6672  0.6864 -2.1818
16487TIP3   OH270875   6.632   2.962  15.214  0.1520 -0.2543 -0.4533
16487TIP3    H170876   6.670   2.874  15.211  0.9972  0.0285  0.9588
16487TIP3    H270877   6.555   2.953  15.270  1.7080  0.3427  1.9575
16488TIP3   OH270878   3.844   1.252   3.055 -0.4874  0.2413  0.6240
16488TIP3    H170879   3.858   1.312   3.128 -0.5856  1.5527 -0.3900
16488TIP3    H270880   3.763   1.282   3.014 -1.7851 -1.9798  1.3804
16489TIP3   OH270881   1.061   2.680   4.393  0.4839  0.2463  1.2145
16489TIP3    H170882   1.122   2.739   4.437 -1.4735  1.4119  2.5406
16489TIP3    H270883   0.977   2.726   4.396 -0.2486 -0.7106 -1.6987
16490TIP3   OH270884   6.420   3.222   1.588  0.3348 -0.4284 -0.4574
16490TIP3    H170885   6.452   3.252   1.673  0.3731 -1.5280 -0.0590
16490TIP3    H270886   6.332   3.258   1.581  0.1199 -0.7896  0.3077
16491TIP3   OH270887   2.762   4.247   3.409  0.5683  0.0584 -0.1981
16491TIP3    H170888   2.714   4.184   3.463  0.8333  0.9601  1.1476
16491TIP3    H270889   2.697   4.314   3.388  0.5008 -0.2224 -0.9264
16492TIP3   OH270890   0.500   3.926   2.823 -0.2902 -0.0037 -0.1264
16492TIP3    H170891   0.556   3.954   2.896 -0.3620 -0.5207  0.1293
16492TIP3    H270892   0.448   4.004   2.803  0.8098  0.6143 -0.6547
16493TIP3   OH270893   4.446   1.862   1.943  0.1121 -0.0337 -0.4366
16493TIP3    H170894   4.417   1.930   1.883 -1.0440 -0.4146 -0.3432
16493TIP3    H270895   4.376   1.796   1.940  0.4978 -0.5132  0.5893
16494TIP3   OH270896   2.939   2.498  15.515  0.2902  0.7468  0.0026
16494TIP3    H170897   3.033   2.491  15.532  0.1681  0.0033  0.4251
16494TIP3    H270898   2.933   2.522  15.423  0.8851 -0.7396 -0.4625
16495TIP3   OH270899   1.990   6.519  14.610  0.0171  0.1258 -0.3365
16495TIP3    H170900   1.918   6.478  14.564 -0.0284  0.9934 -1.0733
16495TIP3    H270901   1.969   6.509  14.703 -0.4208 -0.7084 -0.5235
16496TIP3   OH270902   4.485   6.482   4.344  0.2050  0.4249 -0.0683
16496TIP3    H170903   4.479   6.387   4.333 -0.2030  0.5163 -0.6382
16496TIP3    H270904   4.394   6.511   4.353  0.2854  0.8505 -0.6381
16497TIP3   OH270905   0.598   4.059  15.914 -0.3593 -0.1203  0.1466
16497TIP3    H170906   0.692   4.054  15.932 -0.2669 -1.4586 -0.5777
16497TIP3    H270907   0.561   3.981  15.954 -1.5296  1.3916  2.2063
16498TIP3   OH270908   4.634   2.869   0.497 -0.0974  0.3011 -0.1932
16498TIP3    H170909   4.698   2.818   0.449  1.2110  0.9646  0.7757
16498TIP3    H270910   4.563   2.885   0.435  0.6804 -0.4474 -1.2903
16499TIP3   OH270911   0.873   1.854  13.594  0.1601  0.4948 -0.1969
16499TIP3    H170912   0.802   1.878  13.655  0.3802 -0.0846  0.2980
16499TIP3    H270913   0.831   1.851  13.508 -0.8141 -1.4892  0.3018
16500TIP3   OH270914   2.013   4.029  14.504  0.0552 -0.0788  0.1827
16500TIP3    H170915   1.942   4.073  14.551 -1.3055 -2.2569  0.2876
16500TIP3    H270916   1.986   3.938  14.498  2.2677 -0.7485 -0.9482
16501TIP3   OH270917   0.965   6.292   6.143  0.4715 -0.1800 -0.0672
16501TIP3    H170918   0.891   6.325   6.092 -0.5798 -2.0231  0.1666
16501TIP3    H270919   0.943   6.314   6.234  0.0464 -0.9115  0.0261
16502TIP3   OH270920   2.504   5.013  13.457 -0.6924 -0.3553 -0.7521
16502TIP3    H170921   2.416   5.048  13.442 -0.2703  0.2378 -2.0008
16502TIP3    H270922   2.541   5.004  13.369  0.0349 -1.8516 -0.3234
16503TIP3   OH270923   2.947   4.746   2.829 -0.1314 -0.1697 -0.1649
16503TIP3    H170924   2.973   4.654   2.837 -1.1369 -0.5195 -0.7514
16503TIP3    H270925   2.873   4.755   2.888  1.4378  0.9050  1.7426
16504TIP3   OH270926   0.944   6.219   0.671  0.4277  0.3116 -0.1870
16504TIP3    H170927   0.921   6.268   0.750  0.8800  1.6280 -0.8542
16504TIP3    H270928   1.031   6.185   0.688  0.9537  1.4618 -0.4988
16505TIP3   OH270929   5.205   6.413  11.864  0.0117 -0.5473  0.5674
16505TIP3    H170930   5.286   6.396  11.816 -0.0710  1.6433 -0.4627
16505TIP3    H270931   5.222   6.378  11.952  2.4127  0.5689  0.6230
16506TIP3   OH270932   1.319   6.481   6.178  0.0114  0.2287  0.6894
16506TIP3    H170933   1.409   6.474   6.148  0.1360 -1.0240  1.2853
16506TIP3    H270934   1.286   6.391   6.176 -1.2059  0.6583  0.5381
16507TIP3   OH270935   0.758   4.535  11.554  0.1851 -0.0477 -0.5508
16507TIP3    H170936   0.752   4.519  11.459 -0.8307  0.9049 -0.6745
16507TIP3    H270937   0.814   4.613  11.561  1.5954 -1.0486 -0.2368
16508TIP3   OH270938   6.020   0.614   4.191 -0.2087  0.2893 -0.2852
16508TIP3    H170939   5.986   0.524   4.197  0.1412  0.0856 -1.2652
16508TIP3    H270940   5.942   0.667   4.178 -0.5670  0.3013  1.6101
16509TIP3   OH270941   5.756   0.812   4.255  0.2041  0.1479 -0.5499
16509TIP3    H170942   5.707   0.889   4.285  1.3560  0.3001  1.0262
16509TIP3    H270943   5.769   0.759   4.333  1.0078 -0.7682 -1.2798
16510TIP3   OH270944   3.473   1.503  10.868 -0.1280  0.0428 -0.1753
16510TIP3    H170945   3.531   1.427  10.861 -0.7799 -0.3129 -2.3025
16510TIP3    H270946   3.421   1.485  10.946  0.7815 -0.9415  0.2320
16511TIP3   OH270947   0.055   5.616   1.686  0.1420 -0.3136 -0.0491
16511TIP3    H170948   0.057   5.601   1.780  1.1387 -1.3728 -0.2193
16511TIP3    H270949   0.124   5.680   1.670 -0.1007 -0.0515 -0.0453
16512TIP3   OH270950   2.359   4.502  13.232 -0.8923 -0.2406  0.3996
16512TIP3    H170951   2.279   4.464  13.267 -1.0548 -0.8655 -0.5968
16512TIP3    H270952   2.337   4.594  13.218 -1.8180 -0.6127 -0.8384
16513TIP3   OH270953   3.780   6.749  15.772 -0.6342 -0.1643  0.1998
16513TIP3    H170954   3.707   6.713  15.823  0.0628 -1.7518  0.1446
16513TIP3    H270955   3.846   6.773  15.837 -1.4011  1.8508  0.2940
16514TIP3   OH270956   1.477   3.658   2.719 -0.0030 -0.1284  0.1393
16514TIP3    H170957   1.403   3.715   2.739  1.1036  0.5133  2.9005
16514TIP3    H270958   1.452   3.573   2.753  0.1444 -0.1699  0.1442
16515TIP3   OH270959   5.048   4.619  16.308 -0.0633  0.0447  0.6672
16515TIP3    H170960   4.984   4.683  16.278  0.5095  0.7779  0.9856
16515TIP3    H270961   5.128   4.641  16.261  0.5468  0.5048  1.8828
16516TIP3   OH270962   1.930   4.043   0.669 -0.2943 -0.1551  0.1853
16516TIP3    H170963   1.848   4.076   0.705 -0.8755  1.7489 -2.5785
16516TIP3    H270964   1.998   4.091   0.716 -0.9204  0.6583  0.2854
16517TIP3   OH270965   3.840   0.950  12.701 -0.3599 -0.7022  0.4454
16517TIP3    H170966   3.904   0.947  12.772  0.7642 -2.0161 -0.5886
16517TIP3    H270967   3.772   0.887  12.727 -0.7419 -0.0556  1.0547
16518TIP3   OH270968   1.770   4.501  16.824 -0.4986 -0.0604  0.2587
16518TIP3    H170969   1.847   4.458  16.860 -1.9537 -1.6760  1.6478
16518TIP3    H270970   1.802   4.547  16.746  1.7332 -1.1203  0.4671
16519TIP3   OH270971   5.516   0.850  16.620  0.6141 -0.0361 -0.6246
16519TIP3    H170972   5.547   0.891  16.540  1.4729  0.6329  0.0359
16519TIP3    H270973   5.529   0.756  16.606 -1.0581 -0.1163 -2.0186
16520TIP3   OH270974   3.225   6.190  14.600  0.2276 -0.1027 -0.3495
16520TIP3    H170975   3.213   6.271  14.650 -1.0338 -0.1517 -0.5356
16520TIP3    H270976   3.160   6.130  14.635 -0.7184 -0.1260 -2.0201
16521TIP3   OH270977   0.434   1.249  16.723  0.3179 -0.0958 -0.4965
16521TIP3    H170978   0.423   1.251  16.628 -0.0002 -3.1131 -0.6279
16521TIP3    H270979   0.348   1.223  16.757  0.3690  1.1469  0.6740
16522TIP3   OH270980   3.577   5.837   5.666 -0.0103 -0.5615 -0.6183
16522TIP3    H170981   3.629   5.817   5.743 -1.2236 -0.9823  0.1147
16522TIP3    H270982   3.501   5.885   5.699 -1.4029 -2.1721 -1.2969
16523TIP3   OH270983   5.357   1.645   4.616 -0.4843 -0.5281  0.6485
16523TIP3    H170984   5.283   1.698   4.645 -2.1688 -1.3937 -1.7844
16523TIP3    H270985   5.377   1.588   4.690 -0.6626  1.3100  2.1863
16524TIP3   OH270986   3.832   5.356  11.354 -0.5771  0.9447  0.2907
16524TIP3    H170987   3.869   5.363  11.266  1.3458  0.5564  1.0176
16524TIP3    H270988   3.737   5.360  11.340 -0.4156 -0.8507 -1.9772
16525TIP3   OH270989   0.317   2.586   0.520  0.2498  0.0107 -0.5359
16525TIP3    H170990   0.334   2.501   0.561 -0.4768  0.3768  0.5710
16525TIP3    H270991   0.400   2.610   0.480  0.3237 -1.4737 -1.3543
16526TIP3   OH270992   2.350   2.869   5.019 -0.7835  0.4534 -0.2091
16526TIP3    H170993   2.417   2.916   4.969 -0.9575  2.3123  1.2365
16526TIP3    H270994   2.392   2.848   5.102 -0.8081 -1.7866 -0.6923
16527TIP3   OH270995   3.993   6.495  11.697  0.5281 -0.6925  0.3068
16527TIP3    H170996   3.965   6.585  11.712  1.7435 -0.2276 -0.0476
16527TIP3    H270997   3.912   6.445  11.689 -0.3660 -0.5200  5.0601
16528TIP3   OH270998   2.987   0.303   5.432  0.4502  0.3347 -0.5963
16528TIP3    H170999   3.029   0.288   5.347 -0.2638 -0.1504 -0.8852
16528TIP3    H271000   3.020   0.232   5.487 -0.5309 -0.5231 -1.0493
16529TIP3   OH271001   4.421   6.640  13.174  0.2579  0.3371  0.2086
16529TIP3    H171002   4.405   6.725  13.215  0.8585  0.3445  0.4446
16529TIP3    H271003   4.509   6.616  13.204  0.3056 -0.1146 -0.2926
16530TIP3   OH271004   6.797   3.656   3.317  0.1657 -0.0543 -0.2575
16530TIP3    H171005   6.872   3.679   3.373  0.7317 -0.8968 -0.6446
16530TIP3    H271006   6.722   3.695   3.361  0.4442 -1.5346  1.6826
16531TIP3   OH271007   1.007   6.176   1.720 -0.4723 -0.2532 -0.2675
16531TIP3    H171008   0.959   6.176   1.637  0.0585 -0.3948 -0.5790
16531TIP3    H271009   1.064   6.099   1.715  0.0885  0.1403 -0.0805
16532TIP3   OH271010   6.052   6.328  13.414  0.2942 -0.6451 -0.1210
16532TIP3    H171011   6.015   6.264  13.353  1.8524 -0.5346 -1.2705
16532TIP3    H271012   6.074   6.403  13.358  1.7757 -0.5387  0.5628
16533TIP3   OH271013   5.723   5.778  11.200 -0.4692 -0.0786 -0.0174
16533TIP3    H171014   5.730   5.747  11.109 -1.8490 -0.3856 -0.0394
16533TIP3    H271015   5.739   5.872  11.195 -0.4761 -0.1038 -0.5684
16534TIP3   OH271016   0.569   1.810  16.033 -0.1528 -0.1122 -0.4376
16534TIP3    H171017   0.596   1.725  16.068 -1.6522 -0.1677  0.6549
16534TIP3    H271018   0.642   1.836  15.976  1.8054 -0.6729  1.6438
16535TIP3   OH271019   5.002   3.881   0.886  0.3750  0.2096 -0.0647
16535TIP3    H171020   4.963   3.806   0.933 -1.2862 -0.8381 -2.8762
16535TIP3    H271021   4.973   3.957   0.936  1.6685 -0.8980  2.5779
16536TIP3   OH271022   2.014   0.911  11.484 -0.4473 -0.0526 -0.4253
16536TIP3    H171023   2.069   0.932  11.408 -1.8986  1.4030 -1.1343
16536TIP3    H271024   2.067   0.850  11.536  2.4236  2.1990 -0.4103
16537TIP3   OH271025   0.285   5.026   0.279  0.2169  0.1838 -0.3668
16537TIP3    H171026   0.378   5.041   0.295 -0.2084  1.2294  1.4015
16537TIP3    H271027   0.277   5.024   0.184  1.9570  0.7021 -0.5531
16538TIP3   OH271028   5.724   6.135  13.671  0.2769 -0.3071  0.6943
16538TIP3    H171029   5.694   6.089  13.749 -1.4692  0.0257  0.2444
16538TIP3    H271030   5.750   6.222  13.702 -0.6118 -0.1062  0.8758
16539TIP3   OH271031   6.785   3.546   4.118 -0.4805  0.1957  0.1984
16539TIP3    H171032   6.836   3.607   4.171 -2.1142  2.1611 -0.3691
16539TIP3    H271033   6.696   3.580   4.121 -1.3764 -1.9170 -0.5656
16540TIP3   OH271034   1.948   0.251   0.120 -0.0056 -0.3067  0.2496
16540TIP3    H171035   1.855   0.237   0.138 -0.0595  0.0183  0.2453
16540TIP3    H271036   1.969   0.332   0.166  0.4383 -0.7241  0.7877
16541TIP3   OH271037   1.699   1.349   2.680  0.5191  0.0971 -0.1774
16541TIP3    H171038   1.610   1.315   2.686  0.5582 -0.0629 -0.5192
16541TIP3    H271039   1.744   1.309   2.755  0.0969  0.8236  0.4836
16542TIP3   OH271040   0.452   1.271  12.531 -0.2467 -0.1095  0.4414
16542TIP3    H171041   0.444   1.178  12.554 -0.1836 -0.3249 -0.3638
16542TIP3    H271042   0.414   1.277  12.444 -0.2197  0.6216  0.4750
16543TIP3   OH271043   2.678   2.704  15.325 -0.0185 -0.0935 -0.5021
16543TIP3    H171044   2.761   2.667  15.298 -0.4850 -0.5810 -1.3163
16543TIP3    H271045   2.661   2.774  15.262 -1.1068 -1.2187 -1.4907
16544TIP3   OH271046   3.748   4.327  14.719 -0.0191 -0.5993  0.2867
16544TIP3    H171047   3.707   4.344  14.635  1.3013  0.7923 -0.1214
16544TIP3    H271048   3.828   4.279  14.698 -0.2359 -1.2285  0.8568
16545TIP3   OH271049   4.843   5.884  15.146 -0.5748  0.2283  0.1898
16545TIP3    H171050   4.785   5.811  15.125 -0.9142  0.7303 -0.6810
16545TIP3    H271051   4.915   5.876  15.084  1.0195 -1.1413  2.0807
16546TIP3   OH271052   1.672   2.807  15.463 -0.1959  0.2153  0.0314
16546TIP3    H171053   1.648   2.723  15.502  0.6972 -0.6730 -1.2163
16546TIP3    H271054   1.614   2.816  15.388 -0.9854  1.2435  0.7438
16547TIP3   OH271055   3.134   2.465   5.209 -0.0098 -0.0746  0.5411
16547TIP3    H171056   3.041   2.467   5.230 -0.4034 -1.6264 -0.8230
16547TIP3    H271057   3.138   2.427   5.121  2.0207 -2.0744  1.3991
16548TIP3   OH271058   1.968   0.910   4.802 -0.5694 -0.0990  0.2547
16548TIP3    H171059   2.004   0.826   4.831 -2.4690 -0.7353  0.9405
16548TIP3    H271060   2.043   0.970   4.804  0.6525 -1.5649  0.5758
16549TIP3   OH271061   4.975   6.412  14.517  0.2743  0.4239  0.6175
16549TIP3    H171062   5.023   6.388  14.438  0.3149  0.3015  0.6793
16549TIP3    H271063   4.923   6.335  14.538 -0.4273  0.7763  0.1985
16550TIP3   OH271064   0.631   4.394   4.289  0.4589  0.5751  0.0714
16550TIP3    H171065   0.582   4.425   4.364  2.4414  1.3979  1.1018
16550TIP3    H271066   0.682   4.470   4.260  1.4546 -0.3357 -0.6524
16551TIP3   OH271067   3.449   6.055   3.766 -0.0644  0.4271  0.4248
16551TIP3    H171068   3.445   5.968   3.725  0.6430  0.5055  0.1759
16551TIP3    H271069   3.362   6.067   3.805 -0.7189  0.3115 -0.9636
16552TIP3   OH271070   4.516   1.704  15.224 -0.7723 -0.0078 -0.4367
16552TIP3    H171071   4.492   1.742  15.309  0.9326  0.7250 -0.2572
16552TIP3    H271072   4.575   1.632  15.246  0.8548  1.0962 -1.0236
16553TIP3   OH271073   3.516   3.590   0.515 -0.1892  0.0568  0.2140
16553TIP3    H171074   3.505   3.551   0.428 -1.4237  0.1723  0.3093
16553TIP3    H271075   3.434   3.636   0.532  0.7104  1.5489  0.6973
16554TIP3   OH271076   1.797   2.285   3.853  0.2111 -0.1112  0.0014
16554TIP3    H171077   1.823   2.322   3.768  0.2294 -2.9828 -1.3477
16554TIP3    H271078   1.702   2.280   3.849  0.1739  0.2227  0.3838
16555TIP3   OH271079   1.570   1.235   3.942  0.4489 -0.3915 -0.2433
16555TIP3    H171080   1.506   1.213   4.009  1.6333  0.5344  1.2729
16555TIP3    H271081   1.655   1.211   3.981  1.1785  0.3365 -1.3219
16556TIP3   OH271082   4.912   4.909  13.930  0.2299  0.4901 -0.8457
16556TIP3    H171083   4.865   4.989  13.908 -2.1198 -0.5073  0.2446
16556TIP3    H271084   4.847   4.839  13.923  1.3904 -0.9162  1.2286
16557TIP3   OH271085   4.177   5.589  13.409 -1.1377  0.5211  0.1948
16557TIP3    H171086   4.155   5.674  13.370 -1.2389  0.6377  0.4985
16557TIP3    H271087   4.196   5.610  13.501  1.2949  0.6021 -0.2565
16558TIP3   OH271088   2.865   4.502  11.819 -0.1692  0.3577 -0.4555
16558TIP3    H171089   2.775   4.487  11.846 -0.2921  1.2748 -0.3134
16558TIP3    H271090   2.897   4.570  11.879  0.2286  0.8859 -1.2486
16559TIP3   OH271091   2.564   1.983  14.722 -0.4618  0.1887  0.3802
16559TIP3    H171092   2.590   1.928  14.796  0.4663 -1.2898 -1.0070
16559TIP3    H271093   2.548   2.069  14.762 -0.5635 -0.6909  2.3849
16560TIP3   OH271094   4.077   5.183  14.686 -0.2433 -0.1955  0.3489
16560TIP3    H171095   3.999   5.142  14.648  0.5563 -0.1970 -1.4290
16560TIP3    H271096   4.150   5.144  14.638  0.7679  0.8001  1.0116
16561TIP3   OH271097   6.773   0.559   1.902  0.4563  0.1863  0.4133
16561TIP3    H171098   6.800   0.649   1.887  1.9329 -0.3579 -0.3741
16561TIP3    H271099   6.833   0.506   1.849 -2.5553 -1.1224 -2.0943
16562TIP3   OH271100   1.337   5.887  13.566 -0.1181 -0.0240  0.5673
16562TIP3    H171101   1.254   5.840  13.561 -0.3347  0.4049  0.0204
16562TIP3    H271102   1.333   5.951  13.494  1.6271 -1.4785 -0.9079
16563TIP3   OH271103   1.478   1.897   3.772  0.0738  0.8160 -0.4243
16563TIP3    H171104   1.526   1.829   3.820  0.1540  1.0068 -0.2296
16563TIP3    H271105   1.538   1.971   3.770 -0.5195  1.3462  0.5531
16564TIP3   OH271106   5.836   3.309   0.658 -0.4232 -0.0588  0.0976
16564TIP3    H171107   5.858   3.400   0.678 -2.6245  0.3424  0.9353
16564TIP3    H271108   5.779   3.314   0.581 -0.4940 -0.7591  0.0937
16565TIP3   OH271109   3.669   2.172  13.551 -0.5549  0.0691 -0.2000
16565TIP3    H171110   3.658   2.078  13.569 -0.2606 -0.3160 -1.8448
16565TIP3    H271111   3.586   2.199  13.512 -0.0279  0.0179 -1.4290
16566TIP3   OH271112   0.118   4.402   4.581 -0.4170  0.2142 -0.3181
16566TIP3    H171113   0.070   4.336   4.531 -1.3014  1.6011 -1.3677
16566TIP3    H271114   0.055   4.472   4.596  0.2307  0.4528  1.5953
16567TIP3   OH271115   3.969   6.629   5.154 -0.1838 -0.5756  0.0310
16567TIP3    H171116   3.889   6.619   5.206  0.1271  0.7577  0.8224
16567TIP3    H271117   4.040   6.630   5.219  0.4418 -1.2397 -0.6198
16568TIP3   OH271118   6.690   3.217   0.802 -0.3965 -0.0967  0.0181
16568TIP3    H171119   6.723   3.150   0.862  0.9132  1.0007  0.5807
16568TIP3    H271120   6.738   3.296   0.826 -0.7332  0.6708 -1.6816
16569TIP3   OH271121   1.754   1.188   6.228 -0.0475  0.1465 -0.3414
16569TIP3    H171122   1.792   1.101   6.217 -2.5211 -1.4037  2.0729
16569TIP3    H271123   1.679   1.189   6.168 -0.4561  0.2940  0.1620
16570TIP3   OH271124   4.731   2.083  16.180 -0.6954 -0.1922 -0.0035
16570TIP3    H171125   4.731   2.129  16.263 -1.2533 -0.4740  0.1522
16570TIP3    H271126   4.644   2.045  16.172 -0.0008 -1.9367  0.2654
16571TIP3   OH271127   5.669   5.757   5.292  0.1093 -0.4582  0.0015
16571TIP3    H171128   5.596   5.757   5.354 -0.4577  1.9684 -0.5444
16571TIP3    H271129   5.743   5.792   5.342 -0.1549  0.7805 -0.4322
16572TIP3   OH271130   0.124   3.566   5.536 -0.1546 -0.5152 -0.3441
16572TIP3    H171131   0.080   3.488   5.571 -1.2387 -0.7453 -2.0941
16572TIP3    H271132   0.216   3.553   5.557 -0.6935 -0.5976  2.3918
16573TIP3   OH271133   0.192   6.494  10.504 -0.1648 -0.1184 -0.2891
16573TIP3    H171134   0.243   6.572  10.525  0.9621 -1.0190  0.5134
16573TIP3    H271135   0.251   6.440  10.451 -1.9327  0.7864 -3.4272
16574TIP3   OH271136   2.118   2.122  16.954 -0.1744 -0.3347 -0.2863
16574TIP3    H171137   2.198   2.172  16.972  0.0116  1.0745 -4.0077
16574TIP3    H271138   2.052   2.189  16.934 -1.0142 -1.4946 -1.5660
16575TIP3   OH271139   6.422   6.061  13.848 -0.3917 -0.5299  0.3245
16575TIP3    H171140   6.419   6.078  13.942 -0.2011 -1.5225  0.5193
16575TIP3    H271141   6.438   6.147  13.809 -1.6635  0.0918  1.1149
16576TIP3   OH271142   6.121   5.173  16.007  1.0423 -0.3604  0.3649
16576TIP3    H171143   6.072   5.098  15.974  0.2141  0.8634 -1.3299
16576TIP3    H271144   6.213   5.147  15.996  0.7802 -1.4682  0.6570
16577TIP3   OH271145   0.190   0.922   0.134  0.1010  0.0839 -0.5873
16577TIP3    H171146   0.162   0.856   0.197 -0.9588 -0.7498 -1.8652
16577TIP3    H271147   0.267   0.963   0.173  0.7994 -1.9188  0.2386
16578TIP3   OH271148   5.984   1.508  11.157  0.1334  0.1895  1.0246
16578TIP3    H171149   6.065   1.539  11.116  1.3510 -2.8289  0.9322
16578TIP3    H271150   5.919   1.510  11.087  1.1572 -1.0124 -0.0015
16579TIP3   OH271151   3.324   2.743  16.974  0.4696 -0.1387  0.5535
16579TIP3    H171152   3.248   2.782  17.017 -0.0223  1.0919 -1.3248
16579TIP3    H271153   3.353   2.675  17.035 -1.3786  0.1671  1.8761
16580TIP3   OH271154   5.314   3.509   5.588 -0.3208  0.4100  0.3573
16580TIP3    H171155   5.298   3.470   5.502  0.8039  1.2515 -0.2688
16580TIP3    H271156   5.227   3.528   5.623 -0.8498  2.4661 -1.7658
16581TIP3   OH271157   3.301   6.043  12.296 -0.3943 -0.8277  0.6622
16581TIP3    H171158   3.246   6.116  12.327  0.0421 -0.4316  0.5216
16581TIP3    H271159   3.338   6.006  12.376 -0.7382 -0.9971  0.7463
16582TIP3   OH271160   1.192   5.618   1.252  0.2569 -0.4456 -0.1174
16582TIP3    H171161   1.233   5.532   1.242 -0.7016 -0.9835  0.4785
16582TIP3    H271162   1.233   5.656   1.330  3.3132  1.2093 -2.3216
16583TIP3   OH271163   6.347   0.421   3.884 -0.7370  0.3783  0.1941
16583TIP3    H171164   6.380   0.464   3.805 -2.0617  1.8946  0.4112
16583TIP3    H271165   6.360   0.486   3.953  2.1919 -1.6025  1.7240
16584TIP3   OH271166   3.194   0.197  15.203  0.4108  0.1351  0.0836
16584TIP3    H171167   3.172   0.290  15.199  1.0072  0.2833  0.1259
16584TIP3    H271168   3.233   0.178  15.117  1.3254  0.2012  0.4732
16585TIP3   OH271169   2.692   2.424  12.755 -0.7288 -0.0896  0.0617
16585TIP3    H171170   2.786   2.414  12.773 -0.4273 -0.4094 -1.5259
16585TIP3    H271171   2.682   2.515  12.728 -0.9943  0.1116  0.8214
16586TIP3   OH271172   5.897   6.087   5.379  0.1039  0.4140 -0.4581
16586TIP3    H171173   5.882   6.143   5.303 -0.3129  0.1700 -0.5588
16586TIP3    H271174   5.825   6.108   5.438 -0.3445 -0.3776 -0.7105
16587TIP3   OH271175   1.424   3.085   3.868  0.1308 -0.0246 -0.4545
16587TIP3    H171176   1.342   3.131   3.848  0.6988  0.5250 -1.6361
16587TIP3    H271177   1.492   3.152   3.858  0.7940 -0.6478 -0.2122
16588TIP3   OH271178   4.242   4.464   0.118 -0.0285  0.2346 -0.2729
16588TIP3    H171179   4.293   4.422   0.187 -1.5002 -1.3625 -0.0796
16588TIP3    H271180   4.226   4.552   0.150  0.3582 -0.0888  0.8480
16589TIP3   OH271181   6.782   1.278   5.347  0.4315  0.0708  0.1430
16589TIP3    H171182   6.839   1.343   5.306 -0.4704  2.1668  2.0304
16589TIP3    H271183   6.814   1.194   5.313  3.1245  1.2988 -0.6624
16590TIP3   OH271184   2.026   5.116   0.293 -0.7182 -0.1001  0.2759
16590TIP3    H171185   2.015   5.027   0.260  0.1868  0.9534 -3.2522
16590TIP3    H271186   1.938   5.154   0.288 -0.2649  0.7799 -3.7009
16591TIP3   OH271187   5.233   1.153  15.530  0.0724 -0.1223 -0.4324
16591TIP3    H171188   5.269   1.201  15.605  0.2569 -0.5193 -0.2678
16591TIP3    H271189   5.308   1.114  15.487 -0.0054  0.3542 -1.0036
16592TIP3   OH271190   1.731   3.212  10.954  0.3496  0.1362 -0.1568
16592TIP3    H171191   1.669   3.263  10.901 -0.0374  0.9094  1.0040
16592TIP3    H271192   1.677   3.142  10.992  0.4250  0.1302 -0.0595
16593TIP3   OH271193   5.560   2.484  10.417  0.4797  0.0813 -0.4915
16593TIP3    H171194   5.486   2.474  10.477  1.3370  0.8857  0.7500
16593TIP3    H271195   5.576   2.396  10.383 -0.3583 -0.2919  0.0555
16594TIP3   OH271196   5.730   6.741  14.437 -0.2695  0.1277  0.7743
16594TIP3    H171197   5.746   6.703  14.523  1.6652  0.3134  0.5420
16594TIP3    H271198   5.645   6.785  14.445 -0.8143 -1.1096  2.1221
16595TIP3   OH271199   2.486   0.176   2.739  0.3255 -0.1259 -0.0038
16595TIP3    H171200   2.518   0.264   2.759 -1.2843  0.3980  0.4445
16595TIP3    H271201   2.462   0.179   2.647 -1.4060  0.4991  0.4289
16596TIP3   OH271202   6.202   6.270   5.625 -0.3659  0.0517  0.3894
16596TIP3    H171203   6.248   6.279   5.709 -1.0635  0.2029  0.7605
16596TIP3    H271204   6.125   6.216   5.646 -1.1522  1.0397  0.0840
16597TIP3   OH271205   1.980   2.988  10.510  0.0344 -0.0796 -0.0033
16597TIP3    H171206   2.003   2.921  10.446  0.7720  0.1893 -0.0313
16597TIP3    H271207   1.894   2.962  10.543  0.4157 -1.1598  0.1614
16598TIP3   OH271208   4.484   0.581  16.107  0.3156  0.3158 -0.1905
16598TIP3    H171209   4.569   0.622  16.124  0.1650  0.4465  0.2610
16598TIP3    H271210   4.502   0.487  16.107  0.8476  0.3815 -2.2198
16599TIP3   OH271211   5.846   2.535  13.586  0.1883  0.0339 -0.7018
16599TIP3    H171212   5.858   2.551  13.680  1.8277  1.0905 -1.0546
16599TIP3    H271213   5.753   2.552  13.571  0.0947  0.8005  0.5576
16600TIP3   OH271214   2.178   5.978  13.136  0.9918 -0.5593  0.5648
16600TIP3    H171215   2.190   6.066  13.172  2.0647 -0.9631  1.2486
16600TIP3    H271216   2.157   5.923  13.212  1.3729 -1.0876  0.2982
16601TIP3   OH271217   1.188   1.651   0.261  0.3204  0.2238 -0.0276
16601TIP3    H171218   1.262   1.642   0.201  0.5941  1.4389  0.0910
16601TIP3    H271219   1.111   1.655   0.205  0.6985  3.0013 -0.4929
16602TIP3   OH271220   2.686   3.885   0.706 -0.0840 -0.2846 -0.1242
16602TIP3    H171221   2.649   3.827   0.772 -1.0925 -1.6263 -1.8101
16602TIP3    H271222   2.629   3.962   0.707 -1.4899 -1.2739 -0.9713
16603TIP3   OH271223   2.423   6.023  12.779  0.2343  0.0080 -0.4670
16603TIP3    H171224   2.467   5.976  12.850 -0.7244 -0.9005 -0.4472
16603TIP3    H271225   2.336   6.041  12.812 -0.3600 -0.7681 -1.5354
16604TIP3   OH271226   2.821   5.342   0.982 -0.0058  0.7540 -0.4095
16604TIP3    H171227   2.885   5.411   1.001 -2.0241  2.4416  0.7549
16604TIP3    H271228   2.868   5.280   0.926  3.0323  1.1517  1.4555
16605TIP3   OH271229   4.178   0.870   0.698  0.0084  0.4202  0.3101
16605TIP3    H171230   4.269   0.899   0.688  0.3793 -1.2613 -2.1935
16605TIP3    H271231   4.185   0.774   0.706 -1.5170  0.3314  0.8018
16606TIP3   OH271232   2.393   3.286   4.785  0.2594  0.2025  0.0104
16606TIP3    H171233   2.354   3.356   4.732  1.8193 -0.4685 -2.1310
16606TIP3    H271234   2.335   3.211   4.771  0.1751  0.2696 -0.0046
16607TIP3   OH271235   0.470   4.587  13.545  0.0783  0.3693 -0.0717
16607TIP3    H171236   0.502   4.573  13.634  0.4199 -2.8903 -0.5514
16607TIP3    H271237   0.509   4.669  13.517  0.6670  1.0290  2.4487
16608TIP3   OH271238   5.049   5.448   4.106  0.2400 -0.6179  0.3283
16608TIP3    H171239   5.143   5.428   4.109  0.4557  0.4103  2.3780
16608TIP3    H271240   5.036   5.510   4.178 -1.4806  1.6127 -1.7527
16609TIP3   OH271241   2.253   2.250   5.004 -0.4765 -0.7388 -0.2323
16609TIP3    H171242   2.167   2.228   4.968 -1.3172  1.9413 -0.0359
16609TIP3    H271243   2.242   2.241   5.099 -1.4753  2.2096  0.0301
16610TIP3   OH271244   2.187   0.973   3.706  0.4549 -0.0751  0.2852
16610TIP3    H171245   2.093   0.963   3.719  0.3448 -0.6727 -0.8667
16610TIP3    H271246   2.202   1.068   3.709 -0.0794 -0.0094  1.0760
16611TIP3   OH271247   4.906   5.524   5.281  0.0668  0.5745  0.0846
16611TIP3    H171248   4.936   5.466   5.351  0.9915 -0.8712 -1.4477
16611TIP3    H271249   4.986   5.555   5.239 -0.4842  0.3509 -1.1638
16612TIP3   OH271250   5.749   4.548  13.639  0.0892 -0.0408 -0.1028
16612TIP3    H171251   5.832   4.596  13.645 -0.0528  0.2734 -0.6073
16612TIP3    H271252   5.724   4.532  13.730  0.8750 -0.4365  0.0503
16613TIP3   OH271253   1.185   5.702   0.039  0.7350 -0.7334 -0.3595
16613TIP3    H171254   1.219   5.613   0.042 -1.4824 -1.6551 -0.3109
16613TIP3    H271255   1.238   5.751   0.102  1.4128 -2.2295  0.2779
16614TIP3   OH271256   6.799   1.225   4.335  0.4373  0.3366  0.0418
16614TIP3    H171257   6.826   1.164   4.267  0.2932  0.3394 -0.0166
16614TIP3    H271258   6.858   1.300   4.324 -0.4402  0.9056 -0.9234
16615TIP3   OH271259   2.060   0.483  13.846 -0.2800  0.0247 -0.0840
16615TIP3    H171260   1.983   0.532  13.873 -0.3341  0.2990 -0.7220
16615TIP3    H271261   2.101   0.454  13.928 -1.7075 -1.1443  0.2591
16616TIP3   OH271262   2.014   0.394  15.528 -0.2556  0.4295 -0.8097
16616TIP3    H171263   2.019   0.376  15.434  0.0090 -0.1365 -0.6974
16616TIP3    H271264   2.099   0.364  15.562 -0.7003 -0.2441 -0.2568
16617TIP3   OH271265   5.741   1.542   2.375  0.1578 -0.0263 -0.0455
16617TIP3    H171266   5.714   1.455   2.344  1.8111 -1.5391  2.3331
16617TIP3    H271267   5.817   1.565   2.321 -0.4008  0.0400 -0.8092
16618TIP3   OH271268   3.994   4.927  12.226  0.2530  0.1420 -0.2142
16618TIP3    H171269   3.962   4.900  12.140 -1.1206 -0.9280  0.5892
16618TIP3    H271270   4.047   4.854  12.257 -0.8555 -0.3360  0.6352
16619TIP3   OH271271   6.352   6.784  15.072  0.0833 -0.1497 -0.3603
16619TIP3    H171272   6.276   6.776  15.014  1.1019  0.0802 -1.8090
16619TIP3    H271273   6.368   6.694  15.102  0.0117 -0.4246 -1.1115
16620TIP3   OH271274   2.629   3.636   4.779 -0.6590  0.1913  0.1799
16620TIP3    H171275   2.713   3.594   4.799 -1.4311 -1.2199  0.5561
16620TIP3    H271276   2.563   3.579   4.817 -1.8097  1.3588  0.0297
16621TIP3   OH271277   3.408   2.100  16.831  0.1689 -0.4856  0.5473
16621TIP3    H171278   3.453   2.179  16.799 -0.8089 -0.0421  0.2306
16621TIP3    H271279   3.319   2.130  16.850 -0.3447 -1.6112 -0.0135
16622TIP3   OH271280   5.434   2.154  16.339 -0.0429  0.3364  0.3897
16622TIP3    H171281   5.462   2.151  16.430  0.0444 -0.4920  0.3449
16622TIP3    H271282   5.342   2.130  16.341 -0.5869  2.2172  0.4444
16623TIP3   OH271283   0.414   4.305   0.773  0.3429  0.2475 -0.1469
16623TIP3    H171284   0.318   4.297   0.772  0.2521  0.7177  1.2687
16623TIP3    H271285   0.446   4.215   0.772 -0.2266 -0.0395  1.8270
16624TIP3   OH271286   5.069   4.255   1.308  1.1169  0.2902  0.1273
16624TIP3    H171287   5.084   4.229   1.399 -0.8980 -0.3185  0.3364
16624TIP3    H271288   5.156   4.275   1.274  2.0488 -0.6910  1.8109
16625TIP3   OH271289   3.265   0.585  14.734 -0.0329 -0.1626 -0.1314
16625TIP3    H171290   3.312   0.655  14.780 -0.7026  0.4056 -0.2970
16625TIP3    H271291   3.212   0.543  14.802 -0.4762  0.2158 -0.2357
16626TIP3   OH271292   4.932   3.482  11.356  0.5481  0.1853  0.0926
16626TIP3    H171293   4.999   3.415  11.346  0.7812  0.3087  0.7875
16626TIP3    H271294   4.866   3.443  11.413 -0.8188 -0.5439 -1.8580
16627TIP3   OH271295   4.358   0.611   1.571 -0.2345 -0.1169  0.5382
16627TIP3    H171296   4.445   0.628   1.535  0.0848 -0.6132  1.0404
16627TIP3    H271297   4.314   0.560   1.504 -0.8515  1.7489 -0.5548
16628TIP3   OH271298   2.747   3.917   1.578 -0.5026  0.1038 -0.1287
16628TIP3    H171299   2.765   4.011   1.573 -0.1626  0.0204 -0.5917
16628TIP3    H271300   2.711   3.895   1.492  0.2431 -0.3464 -0.3359
16629TIP3   OH271301   6.460   5.594  15.774 -0.2163  0.4746  0.0131
16629TIP3    H171302   6.369   5.618  15.757  0.4391  2.6307 -0.7549
16629TIP3    H271303   6.461   5.567  15.866 -1.7169 -0.1283 -0.1186
16630TIP3   OH271304   3.548   4.202  15.798 -0.3717 -0.5346 -0.2469
16630TIP3    H171305   3.472   4.211  15.855 -0.6551 -1.4558 -0.4607
16630TIP3    H271306   3.546   4.110  15.769  1.5357 -0.9476  0.7601
16631TIP3   OH271307   5.383   1.710  11.195 -0.5072 -0.1953 -0.0203
16631TIP3    H171308   5.462   1.659  11.179  0.1774 -0.2454  2.9037
16631TIP3    H271309   5.415   1.796  11.221 -1.3472 -0.2641  1.3730
16632TIP3   OH271310   5.668   0.360  13.473  0.5234 -0.1880 -0.0367
16632TIP3    H171311   5.673   0.444  13.519  0.2362 -0.5853  0.7399
16632TIP3    H271312   5.758   0.326  13.476  0.3284 -0.6393  1.0683
16633TIP3   OH271313   6.097   2.897   0.104  0.2273 -0.1940  0.1270
16633TIP3    H171314   6.188   2.911   0.129  0.4476 -1.6405  0.1954
16633TIP3    H271315   6.101   2.878   0.010 -0.1145  0.5968 -0.0603
16634TIP3   OH271316   0.329   2.991   1.791  0.7870 -0.1308 -0.1448
16634TIP3    H171317   0.344   2.913   1.739  0.3276 -0.1276 -0.2864
16634TIP3    H271318   0.407   2.998   1.847  0.1801 -1.5122  0.9349
16635TIP3   OH271319   5.569   0.640   1.176 -0.0828 -0.1692  0.0939
16635TIP3    H171320   5.558   0.636   1.271 -1.6953  0.7931 -0.0156
16635TIP3    H271321   5.554   0.550   1.147  0.3235 -0.4532  0.7307
16636TIP3   OH271322   3.991   6.284   3.987  0.7115 -0.0466  0.5409
16636TIP3    H171323   4.052   6.357   3.972  0.8376 -0.4825 -1.2875
16636TIP3    H271324   3.964   6.258   3.899  1.2574 -2.7151  1.0886
16637TIP3   OH271325   4.773   2.678   2.030  0.9492 -0.2177  0.7824
16637TIP3    H171326   4.703   2.744   2.026  0.9570 -0.2248  0.5199
16637TIP3    H271327   4.852   2.725   2.004  0.9314 -0.3610  0.4658
16638TIP3   OH271328   5.830   4.216  16.571 -0.0508 -0.5190  0.3596
16638TIP3    H171329   5.746   4.253  16.542  0.3235  0.1712  0.1357
16638TIP3    H271330   5.896   4.274  16.534  0.5291 -0.9983  0.6229
16639TIP3   OH271331   0.667   2.694   3.800  0.4914  0.0387 -0.2959
16639TIP3    H171332   0.607   2.678   3.872 -0.1721 -1.7270 -1.1998
16639TIP3    H271333   0.649   2.785   3.774 -0.3933  0.1623  0.6810
16640TIP3   OH271334   4.623   2.611   4.643 -0.0315  0.0904  0.2296
16640TIP3    H171335   4.663   2.601   4.557  2.3375  0.7505  1.1748
16640TIP3    H271336   4.641   2.528   4.688 -0.9480 -0.1164  0.2526
16641TIP3   OH271337   2.790   1.521   0.887  0.8587 -0.1966  0.6729
16641TIP3    H171338   2.858   1.539   0.953 -0.0699  2.1649  1.0811
16641TIP3    H271339   2.800   1.591   0.823 -0.5510 -0.4074  0.2015
16642TIP3   OH271340   5.273   6.539  16.418 -0.0569  0.4317 -0.1086
16642TIP3    H171341   5.301   6.505  16.333 -1.5132 -0.4896 -0.2519
16642TIP3    H271342   5.185   6.505  16.430 -0.0066  0.8055  1.6440
16643TIP3   OH271343   1.618   5.678  17.058 -0.0017 -0.2267 -0.1634
16643TIP3    H171344   1.592   5.719  17.141  0.0228 -0.5729  0.0166
16643TIP3    H271345   1.661   5.596  17.084  0.8586  0.1141 -0.4807
16644TIP3   OH271346   2.574   2.765  16.736 -0.5245  0.3257 -0.4528
16644TIP3    H171347   2.590   2.719  16.654  2.3726 -0.2530  0.3190
16644TIP3    H271348   2.624   2.846  16.729  2.2289 -1.0055  1.6774
16645TIP3   OH271349   1.885   1.341  16.090  0.3611  0.0844 -0.7196
16645TIP3    H171350   1.820   1.329  16.159  0.8999 -1.4191 -0.4459
16645TIP3    H271351   1.941   1.264  16.095  0.9856  0.3965 -2.2312
16646TIP3   OH271352   1.482   6.063   4.006  0.7270  0.4087 -0.3550
16646TIP3    H171353   1.529   6.111   4.074  0.8654 -1.6781  1.1246
16646TIP3    H271354   1.513   5.972   4.015  0.9237  0.0817 -3.3997
16647TIP3   OH271355   4.329   0.773  15.004 -0.3595 -0.5409 -0.0352
16647TIP3    H171356   4.321   0.691  15.053  0.4528 -0.0725  0.9277
16647TIP3    H271357   4.299   0.751  14.916  0.0918 -1.9424  0.1239
16648TIP3   OH271358   3.850   1.682   3.010 -0.8180 -0.1836  0.7730
16648TIP3    H171359   3.938   1.706   3.039 -0.4007 -1.2145  0.3758
16648TIP3    H271360   3.797   1.688   3.089  0.4762 -3.9381  2.1479
16649TIP3   OH271361   4.770   4.004   0.190  0.7670 -0.6334  0.2336
16649TIP3    H171362   4.777   3.948   0.268 -0.4401 -0.6770  0.3275
16649TIP3    H271363   4.840   4.069   0.201  0.2010 -0.2287  1.7040
16650TIP3   OH271364   6.675   4.613  11.530 -0.3510 -0.3151 -0.8600
16650TIP3    H171365   6.602   4.669  11.555 -1.0659 -2.2539  1.7858
16650TIP3    H271366   6.750   4.649  11.579 -1.1732 -2.4646  2.3011
16651TIP3   OH271367   1.959   4.176   0.021  0.3729 -0.1536 -0.1518
16651TIP3    H171368   1.912   4.200  -0.059  0.8251  0.4858 -0.2299
16651TIP3    H271369   1.907   4.105   0.059 -0.3791  0.2047 -0.5002
16652TIP3   OH271370   5.240   0.670  11.195 -0.5654 -0.1410  0.2407
16652TIP3    H171371   5.330   0.642  11.213 -0.9385 -0.7775  1.1555
16652TIP3    H271372   5.212   0.613  11.122  0.1456  0.8496 -0.8459
16653TIP3   OH271373   4.981   2.933   4.323 -0.1158  0.3459 -0.0693
16653TIP3    H171374   4.998   2.902   4.412  0.0907 -0.7210 -0.4632
16653TIP3    H271375   5.044   2.884   4.268 -0.1210  1.1099 -0.7791
16654TIP3   OH271376   3.391   6.143   5.712 -0.3188 -0.4539 -0.3175
16654TIP3    H171377   3.386   6.055   5.749 -1.4840  0.3451  1.6053
16654TIP3    H271378   3.394   6.129   5.618  0.4050 -2.5639 -0.0459
16655TIP3   OH271379   2.169   3.692   0.575 -0.2254 -0.4853  0.2210
16655TIP3    H171380   2.132   3.775   0.546  0.1335 -0.2588  0.4014
16655TIP3    H271381   2.246   3.680   0.518  0.1549 -0.3214  0.6982
16656TIP3   OH271382   3.400   3.765   5.283  0.0409  0.2970  0.4759
16656TIP3    H171383   3.331   3.701   5.268 -0.5363  0.5284  1.9696
16656TIP3    H271384   3.482   3.716   5.272 -0.3589 -0.2192 -0.2850
16657TIP3   OH271385   1.245   3.902   3.910  0.3069 -0.0576 -0.2343
16657TIP3    H171386   1.330   3.884   3.950 -0.2589  0.9519  1.5486
16657TIP3    H271387   1.266   3.949   3.829  1.4814  2.2226  1.2654
16658TIP3   OH271388   4.682   3.636  12.694  0.3219  0.5608  0.5883
16658TIP3    H171389   4.661   3.711  12.750  0.2677 -0.7057  2.3596
16658TIP3    H271390   4.738   3.580  12.749 -0.4410 -1.1624 -0.3021
16659TIP3   OH271391   1.191   1.622   6.334  0.3216 -0.6530 -0.7435
16659TIP3    H171392   1.174   1.591   6.423 -2.6233 -2.7984 -1.8804
16659TIP3    H271393   1.262   1.567   6.302  1.3572  0.0957  0.2185
16660TIP3   OH271394   5.207   4.205   5.461 -0.4411 -0.4835  0.6267
16660TIP3    H171395   5.293   4.244   5.450  0.3555 -2.3021 -0.0523
16660TIP3    H271396   5.182   4.224   5.551  0.4010  0.5381  0.6556
16661TIP3   OH271397   2.684   0.858  14.058 -0.0847  0.1615 -0.0471
16661TIP3    H171398   2.630   0.796  14.009  0.3554  0.4094 -0.8789
16661TIP3    H271399   2.635   0.875  14.139 -0.0701 -1.4914  0.3427
16662TIP3   OH271400   2.358   1.799  13.501 -0.0418 -0.0629  0.4220
16662TIP3    H171401   2.390   1.716  13.465 -0.0702  0.1643 -0.1396
16662TIP3    H271402   2.268   1.806  13.470  0.0642  0.3313  0.1919
16663TIP3   OH271403   3.450   4.119   0.060 -0.3669 -0.3868  0.4988
16663TIP3    H171404   3.537   4.111   0.020 -0.6417 -1.2763  0.0551
16663TIP3    H271405   3.402   4.043   0.028 -2.2233  1.4800 -1.4749
16664TIP3   OH271406   4.996   5.002  11.788 -0.1386  0.1758 -0.3346
16664TIP3    H171407   5.029   5.072  11.732 -0.3122  2.0645  1.8012
16664TIP3    H271408   4.948   5.047  11.857  2.0178 -1.8266  2.6865
16665TIP3   OH271409   3.009   6.736   0.417  0.3653 -0.1667  0.3011
16665TIP3    H171410   2.969   6.816   0.382 -1.2645 -1.7229 -1.5881
16665TIP3    H271411   3.042   6.690   0.340 -0.2363 -2.1017  1.1533
16666TIP3   OH271412   3.069   3.601  14.575  0.6644  0.3708 -0.0575
16666TIP3    H171413   3.041   3.613  14.666  2.3785  1.3418  0.3839
16666TIP3    H271414   3.162   3.577  14.582  0.5580 -0.5678 -1.5227
16667TIP3   OH271415   1.146   2.237  14.451 -0.4721 -0.8712 -0.4533
16667TIP3    H171416   1.054   2.219  14.472 -0.3268 -1.6844 -0.4965
16667TIP3    H271417   1.172   2.165  14.394 -0.1096 -0.0746 -1.3348
16668TIP3   OH271418   3.135   5.289  14.053 -0.1625  0.2840 -0.3134
16668TIP3    H171419   3.085   5.265  14.131 -0.0936 -1.3798 -0.7298
16668TIP3    H271420   3.075   5.271  13.980  1.0851 -2.1544 -0.8526
16669TIP3   OH271421   2.086   1.314   3.186 -0.5639  0.1206 -0.1102
16669TIP3    H171422   2.001   1.345   3.217 -0.8757 -0.4962 -0.3111
16669TIP3    H271423   2.127   1.391   3.147 -0.4866  0.7179  1.1221
16670TIP3   OH271424   2.047   4.969  11.059 -0.0545  0.1458  0.7921
16670TIP3    H171425   2.104   4.979  10.982  1.4630  0.6812  1.9310
16670TIP3    H271426   1.984   4.901  11.033  1.7222 -1.2329 -0.1959
16671TIP3   OH271427   2.362   6.719   4.168 -0.3837  0.5472 -0.0335
16671TIP3    H171428   2.278   6.765   4.165 -1.2524 -0.9420  0.4154
16671TIP3    H271429   2.354   6.660   4.243  0.1725 -1.2936 -1.3675
16672TIP3   OH271430   5.265   3.391   0.018 -0.1815 -0.0423  0.1125
16672TIP3    H171431   5.267   3.297   0.000 -0.6505  0.1314 -0.9482
16672TIP3    H271432   5.357   3.417   0.018 -0.1048  0.1100 -3.2958
16673TIP3   OH271433   1.809   6.601  16.525  0.6757  0.1822  0.1360
16673TIP3    H171434   1.830   6.516  16.565 -1.1103 -1.2972 -1.8679
16673TIP3    H271435   1.893   6.633  16.493  1.1935 -1.5247 -0.3163
16674TIP3   OH271436   4.360   1.945   1.622 -0.9403 -0.5883 -0.4148
16674TIP3    H171437   4.388   2.010   1.687 -0.8072  0.2668 -1.3001
16674TIP3    H271438   4.430   1.880   1.621  0.3315  0.7213 -1.4960
16675TIP3   OH271439   6.311   1.362   3.323 -0.4541 -0.5421 -0.2476
16675TIP3    H171440   6.239   1.409   3.363  0.6279 -0.1648  1.3358
16675TIP3    H271441   6.357   1.428   3.270  0.0044 -0.2276  0.5239
16676TIP3   OH271442   6.251   2.531  15.616  0.2042 -0.0702 -0.8010
16676TIP3    H171443   6.214   2.617  15.597 -1.3410  0.4333  3.3044
16676TIP3    H271444   6.298   2.544  15.699  1.1012 -2.9075 -0.7675
16677TIP3   OH271445   3.357   4.375   5.186  0.5098  0.2603  0.2190
16677TIP3    H171446   3.302   4.301   5.213  0.2226  0.4054  0.0215
16677TIP3    H271447   3.300   4.451   5.192  0.1539  0.1812 -1.7091
16678TIP3   OH271448   3.501   0.139  14.223  0.0723  0.0622  0.6766
16678TIP3    H171449   3.477   0.230  14.236 -0.8858 -0.2597  1.2732
16678TIP3    H271450   3.595   0.136  14.237 -0.0171  0.8140  1.4728
16679TIP3   OH271451   0.357   4.678   2.864 -0.1234  0.0279  0.1053
16679TIP3    H171452   0.295   4.625   2.816  1.6004 -0.5938 -1.5519
16679TIP3    H271453   0.331   4.769   2.845  0.4485 -0.1927 -2.0253
16680TIP3   OH271454   4.249   1.959  16.721 -0.2440 -0.7019 -0.7075
16680TIP3    H171455   4.218   1.941  16.632 -0.7309  1.4094 -1.0108
16680TIP3    H271456   4.233   2.052  16.734  0.1025 -0.8934  1.5053
16681TIP3   OH271457   4.858   5.407  15.434  0.2643  0.3689  0.5892
16681TIP3    H171458   4.803   5.396  15.511 -0.3503  1.6242  0.3526
16681TIP3    H271459   4.913   5.329  15.432 -1.8208 -1.1720  0.5706
16682TIP3   OH271460   2.510   0.525   1.899 -0.3538  0.0169  0.4958
16682TIP3    H171461   2.477   0.436   1.898 -0.9722  0.2318  1.1960
16682TIP3    H271462   2.604   0.516   1.914 -0.2165 -0.5511 -0.5937
16683TIP3   OH271463   6.624   1.767  13.060  0.0460  0.2059  0.1355
16683TIP3    H171464   6.680   1.797  12.989  1.2113 -0.7125  0.6428
16683TIP3    H271465   6.555   1.717  13.016  1.6945 -1.8083 -0.2934
16684TIP3   OH271466   2.568   4.446  13.621  0.5344 -0.3113 -0.2083
16684TIP3    H171467   2.565   4.452  13.526  1.4817 -0.7393 -0.2674
16684TIP3    H271468   2.569   4.538  13.651 -0.0341 -0.1743 -0.5832
16685TIP3   OH271469   5.113   1.761   4.705  0.7710 -0.3982 -0.2010
16685TIP3    H171470   5.070   1.676   4.713  4.5865 -2.4658  1.1031
16685TIP3    H271471   5.099   1.803   4.790 -2.1365  0.9980 -1.2393
16686TIP3   OH271472   5.046   4.156   2.027 -0.0692 -0.8878  0.4473
16686TIP3    H171473   5.067   4.098   2.100 -0.7428 -0.4438  1.0102
16686TIP3    H271474   4.951   4.151   2.019 -0.1110 -0.0847  0.3239
16687TIP3   OH271475   0.757   4.520   0.307 -0.1572 -0.5528 -0.1690
16687TIP3    H171476   0.690   4.493   0.244 -0.1496  1.7074 -1.2335
16687TIP3    H271477   0.772   4.442   0.360 -1.0424 -2.1831 -2.1752
16688TIP3   OH271478   6.041   0.068   5.615 -0.2124 -0.0920  0.2829
16688TIP3    H171479   6.040   0.141   5.553  1.0748  0.3314  0.7301
16688TIP3    H271480   6.108   0.092   5.680  0.4027 -1.7621  0.3142
16689TIP3   OH271481   2.759   5.536   5.264  0.0345  0.2943 -0.0852
16689TIP3    H171482   2.744   5.455   5.312 -1.2747  0.7534  0.3073
16689TIP3    H271483   2.805   5.592   5.326 -1.1922  0.6976  0.4975
16690TIP3   OH271484   4.115   0.305   4.653  0.4124  0.1230  0.2422
16690TIP3    H171485   4.200   0.276   4.620  1.1527  1.2457  1.0809
16690TIP3    H271486   4.118   0.401   4.646 -0.6098  0.2011  0.7038
16691TIP3   OH271487   1.840   6.527  12.499 -0.2176  0.2816  0.0713
16691TIP3    H171488   1.898   6.517  12.574 -0.2931  1.5700  0.3300
16691TIP3    H271489   1.796   6.611  12.513 -2.4004 -0.7896  0.0390
16692TIP3   OH271490   1.188   4.181  14.985 -0.4062 -0.5368 -0.0828
16692TIP3    H171491   1.234   4.214  14.908 -0.8156 -0.7396 -0.4192
16692TIP3    H271492   1.235   4.100  15.009  1.2244  0.7472  1.3431
16693TIP3   OH271493   5.404   2.751   3.881 -0.3377 -0.6399  0.0077
16693TIP3    H171494   5.470   2.734   3.813 -1.4915 -1.5162 -0.9459
16693TIP3    H271495   5.450   2.736   3.963  0.8710 -0.4218 -0.6018
16694TIP3   OH271496   3.733   1.536  12.348 -0.7381  0.1187  0.1500
16694TIP3    H171497   3.657   1.560  12.295 -0.7620 -0.2427  0.0208
16694TIP3    H271498   3.698   1.524  12.436 -0.5513  1.6215  0.4563
16695TIP3   OH271499   4.430   4.732  15.968  0.1365 -0.4083  0.1616
16695TIP3    H171500   4.351   4.677  15.969  0.5801 -1.0798  1.8879
16695TIP3    H271501   4.502   4.670  15.955  0.5801 -0.1674  1.3292
16696TIP3   OH271502   1.086   4.296   1.486 -0.4634 -0.0528 -0.0685
16696TIP3    H171503   1.094   4.378   1.438  1.1319  0.0387  0.2987
16696TIP3    H271504   1.105   4.320   1.577  2.2453 -1.1186 -0.2528
16697TIP3   OH271505   5.464   1.770   3.334  0.3997  0.5318  0.0670
16697TIP3    H171506   5.431   1.855   3.305  1.5073  1.0133  0.1657
16697TIP3    H271507   5.549   1.761   3.291  0.9845  0.1733  1.2431
16698TIP3   OH271508   3.146   5.024   5.291 -0.5091 -0.5465  0.4160
16698TIP3    H171509   3.190   4.953   5.337 -0.1401 -0.2085  0.5868
16698TIP3    H271510   3.102   5.074   5.359  0.8472  0.5311  0.5414
16699TIP3   OH271511   3.149   0.151  12.940  1.0479 -0.4317 -0.5931
16699TIP3    H171512   3.076   0.090  12.931  0.1371  0.5014  0.1174
16699TIP3    H271513   3.212   0.107  12.997  0.0311 -0.4038  0.5940
16700TIP3   OH271514   1.124   5.942   2.005  0.3439  0.4426  0.7129
16700TIP3    H171515   1.101   6.035   2.002 -1.3339  0.0720  1.0417
16700TIP3    H271516   1.040   5.896   2.001  1.1711 -1.0839 -0.0929
16701TIP3   OH271517   0.544   5.198  11.440 -0.0546  0.2701  0.0568
16701TIP3    H171518   0.557   5.268  11.505  1.2762  0.5101 -0.4385
16701TIP3    H271519   0.453   5.206  11.414  0.7443  3.9176 -2.3094
16702TIP3   OH271520   4.341   1.202   2.797 -0.6287  0.8421  0.1893
16702TIP3    H171521   4.356   1.220   2.704 -1.0609 -0.3780 -0.1342
16702TIP3    H271522   4.405   1.257   2.843  0.1168  0.8768 -0.8597
16703TIP3   OH271523   3.216   6.342  11.689  0.0259 -0.3383  1.0650
16703TIP3    H171524   3.145   6.381  11.639  0.6317 -1.2330 -0.6075
16703TIP3    H271525   3.199   6.247  11.684  2.5044 -0.8035 -1.4913
16704TIP3   OH271526   0.911   1.584   6.144 -0.0827 -0.1101 -0.8718
16704TIP3    H171527   0.893   1.639   6.068  1.8851  0.7174 -0.7929
16704TIP3    H271528   0.941   1.644   6.211  0.0453 -1.0529 -0.0594
16705TIP3   OH271529   2.278   0.251  15.652 -0.3292  0.4895  0.4327
16705TIP3    H171530   2.335   0.326  15.666 -1.8241  1.9357 -0.9734
16705TIP3    H271531   2.330   0.191  15.598  0.5077  0.9385  0.7250
16706TIP3   OH271532   5.201   3.457   3.481 -0.1578 -0.1733  0.0895
16706TIP3    H171533   5.214   3.547   3.513  1.2386 -0.2525 -0.2007
16706TIP3    H271534   5.194   3.404   3.560 -1.4844  0.2378  0.2697
16707TIP3   OH271535   0.565   6.143  11.421 -0.0988 -0.9812  0.4013
16707TIP3    H171536   0.496   6.080  11.441 -1.9382  0.6115 -0.5990
16707TIP3    H271537   0.532   6.192  11.346  3.0225 -1.4532 -1.4528
16708TIP3   OH271538   3.699   0.215  10.959  0.5568  0.3191  0.3524
16708TIP3    H171539   3.680   0.246  10.870  1.0868  0.7075  0.3669
16708TIP3    H271540   3.615   0.182  10.992  0.1635  0.9879  0.0342
16709TIP3   OH271541   5.301   2.860   0.959  0.7177 -0.3108  0.3875
16709TIP3    H171542   5.276   2.952   0.952  2.4725  0.1351 -0.4678
16709TIP3    H271543   5.264   2.831   1.043 -0.3350  0.9956  0.4034
16710TIP3   OH271544   2.058   3.205  10.973  0.3073 -0.3361  0.2085
16710TIP3    H171545   2.120   3.277  10.985  1.1042 -1.1349  0.9516
16710TIP3    H271546   2.017   3.223  10.888  2.8493 -0.7607 -1.1912
16711TIP3   OH271547   5.618   0.737  12.065 -0.3132  0.5783 -0.1444
16711TIP3    H171548   5.541   0.794  12.068 -0.4068  0.4195  2.1853
16711TIP3    H271549   5.689   0.789  12.102  1.2090  1.2766 -3.6500
16712TIP3   OH271550   2.471   3.258  16.462 -0.7944 -0.4429  0.0172
16712TIP3    H171551   2.422   3.341  16.470  1.0068  0.5334  1.8782
16712TIP3    H271552   2.411   3.199  16.416 -2.4902  1.6129 -0.5677
16713TIP3   OH271553   5.546   1.066   4.113  0.0884  0.6436  0.4290
16713TIP3    H171554   5.550   1.119   4.034 -0.8890  0.0540 -0.0348
16713TIP3    H271555   5.566   1.127   4.184 -2.2985  1.9963  0.0407
16714TIP3   OH271556   5.186   3.846   5.541  0.0408 -0.5622 -0.3509
16714TIP3    H171557   5.220   3.764   5.578  2.5540  0.0711 -1.0337
16714TIP3    H271558   5.176   3.904   5.617 -2.4993 -1.6357  0.2458
16715TIP3   OH271559   1.912   5.107  12.846 -0.5805 -0.1920 -0.2036
16715TIP3    H171560   1.894   5.161  12.769  1.1283  0.7740  0.0100
16715TIP3    H271561   1.907   5.169  12.919 -0.6811 -0.7842  0.2948
16716TIP3   OH271562   0.843   1.136   2.633 -0.5668  0.2143  0.3702
16716TIP3    H171563   0.846   1.209   2.694 -0.1025 -0.8041  1.6077
16716TIP3    H271564   0.934   1.108   2.623 -0.9063 -1.4869  1.5732
16717TIP3   OH271565   2.483   2.770  12.302  0.7027  0.1484  0.4795
16717TIP3    H171566   2.524   2.832  12.363 -0.1374  1.8485 -0.6069
16717TIP3    H271567   2.395   2.805  12.287 -0.2121 -1.9198  0.6412
16718TIP3   OH271568   6.119   1.727   4.519  0.2802 -0.7244  0.2803
16718TIP3    H171569   6.040   1.750   4.567  0.7593  2.2962 -0.1545
16718TIP3    H271570   6.174   1.806   4.524  2.2706 -1.8870 -1.3939
16719TIP3   OH271571   3.522   2.958   1.774 -0.0540  0.5488  0.2000
16719TIP3    H171572   3.517   3.030   1.712  0.2376  0.1114 -0.3417
16719TIP3    H271573   3.593   2.903   1.741 -0.5289 -0.1873  0.3913
16720TIP3   OH271574   1.121   3.159  12.164  0.4669 -0.0969 -0.0654
16720TIP3    H171575   1.116   3.065  12.147  2.2248 -0.1551 -0.4444
16720TIP3    H271576   1.187   3.167  12.232  0.3971  0.8823 -0.1039
16721TIP3   OH271577   3.268   3.602   5.896  1.2678  0.3475  0.2214
16721TIP3    H171578   3.283   3.696   5.886  2.7081  0.0348 -0.8864
16721TIP3    H271579   3.186   3.586   5.850  1.4472  0.9438 -0.3157
16722TIP3   OH271580   3.201   1.137  13.304 -0.9916  0.3259 -0.8527
16722TIP3    H171581   3.158   1.055  13.328 -0.2425  0.1827  0.0380
16722TIP3    H271582   3.135   1.184  13.253 -2.6797  0.6184  1.4278
16723TIP3   OH271583   2.238   5.657   5.593  0.1472 -0.3717  0.4026
16723TIP3    H171584   2.267   5.579   5.546 -2.7645 -0.5178 -1.4133
16723TIP3    H271585   2.163   5.627   5.645  0.7508  0.6731  1.9705
16724TIP3   OH271586   5.179   5.957  17.113  0.2863  0.1200 -0.2483
16724TIP3    H171587   5.118   5.885  17.099 -1.3417  1.3674  0.1520
16724TIP3    H271588   5.220   5.971  17.028 -2.2179  1.1804 -1.3680
16725TIP3   OH271589   0.678   0.382  16.157 -0.1675  0.5680 -0.6799
16725TIP3    H171590   0.620   0.309  16.178 -2.6435  2.1566 -1.6252
16725TIP3    H271591   0.687   0.430  16.239  0.0496  0.1553 -0.4606
16726TIP3   OH271592   0.018   3.148  15.534  0.1126  0.2661  0.3294
16726TIP3    H171593  -0.069   3.175  15.563 -1.0442 -1.2899 -1.4267
16726TIP3    H271594   0.055   3.225  15.492 -0.3466  0.9878  1.2278
16727TIP3   OH271595   2.818   4.030  11.421  0.0700 -0.4201  0.1422
16727TIP3    H171596   2.739   3.978  11.407  0.4273 -1.2121  0.9380
16727TIP3    H271597   2.844   4.010  11.511  1.0728 -0.0319 -0.0492
16728TIP3   OH271598   1.414   0.142  11.199  0.0222  0.5606  0.4566
16728TIP3    H171599   1.438   0.204  11.269 -0.8192  0.1789  1.0980
16728TIP3    H271600   1.359   0.077  11.242 -0.8094  0.5086 -0.6396
16729TIP3   OH271601   6.667   4.745  16.323 -0.1264 -0.3615 -0.3382
16729TIP3    H171602   6.578   4.779  16.324 -0.2427 -0.6462 -0.6847
16729TIP3    H271603   6.682   4.714  16.413  0.0419  0.7278  0.0191
16730TIP3   OH271604   4.498   6.704   1.659 -0.0843 -0.4344  0.3725
16730TIP3    H171605   4.450   6.750   1.590 -1.1230  0.3821  1.5789
16730TIP3    H271606   4.578   6.755   1.671  1.1316 -1.7881 -1.6396
16731TIP3   OH271607   4.891   0.076  12.443 -0.5285 -0.4701 -0.2839
16731TIP3    H171608   4.963   0.019  12.470 -1.0553 -0.9602  0.1052
16731TIP3    H271609   4.875   0.053  12.352  0.9124  0.8276 -0.9167
16732TIP3   OH271610   6.030   6.089   3.130  0.3680  0.2868  0.7447
16732TIP3    H171611   6.055   6.076   3.221  1.3226 -0.2526  0.4194
16732TIP3    H271612   5.941   6.055   3.125  0.7425 -0.8230  1.2180
16733TIP3   OH271613   6.348   0.095   6.412  0.3135  0.1273  0.4746
16733TIP3    H171614   6.298   0.174   6.435 -0.0799 -0.1123  0.4572
16733TIP3    H271615   6.440   0.121   6.422  0.1966  0.6726  0.1995
16734TIP3   OH271616   4.475   6.753  16.255  0.4996 -0.2014  0.3580
16734TIP3    H171617   4.516   6.826  16.303 -0.6214 -0.3779  1.6476
16734TIP3    H271618   4.393   6.790  16.221  0.5353 -0.5119 -0.0673
16735TIP3   OH271619   2.860   1.529  15.615  0.4950 -0.0705 -0.2425
16735TIP3    H171620   2.918   1.556  15.686 -1.5601  1.2965  1.0260
16735TIP3    H271621   2.906   1.456  15.573  1.8699 -0.8678  2.4059
16736TIP3   OH271622   1.100   2.708   1.236 -0.2829  0.1423 -0.6074
16736TIP3    H171623   1.175   2.681   1.290 -0.7128 -0.7068 -0.4114
16736TIP3    H271624   1.121   2.797   1.209  1.1205 -0.3145 -1.1226
16737TIP3   OH271625   2.084   2.406  12.133 -0.1039  0.5484 -0.3137
16737TIP3    H171626   2.175   2.434  12.123  0.8609 -1.9068  0.7559
16737TIP3    H271627   2.061   2.367  12.049  0.1688  0.2645 -0.2549
16738TIP3   OH271628   4.506   0.565  11.760  0.5220 -0.0855  0.1767
16738TIP3    H171629   4.563   0.620  11.814 -0.0842 -0.3995  1.1747
16738TIP3    H271630   4.500   0.483  11.808 -0.4164 -0.2074 -0.1269
16739TIP3   OH271631   5.246   4.183  16.086 -0.0497 -0.0661 -0.3598
16739TIP3    H171632   5.284   4.106  16.128  1.3892  0.3121 -0.9020
16739TIP3    H271633   5.187   4.148  16.019 -0.0849 -0.6886 -0.0075
16740TIP3   OH271634   1.984   5.236  16.966  0.0165  0.0022 -0.1189
16740TIP3    H171635   2.028   5.154  16.989  0.2482 -0.0245 -0.6497
16740TIP3    H271636   2.038   5.305  17.005  1.5710  0.0925 -2.2484
16741TIP3   OH271637   5.879   2.613   3.754 -0.2331  0.6509  0.5629
16741TIP3    H171638   5.875   2.590   3.846 -0.5027 -0.6201  0.2498
16741TIP3    H271639   5.940   2.687   3.750 -0.9492  1.3253  1.8569
16742TIP3   OH271640   0.822   0.992   4.234 -0.4903  0.0649  0.1189
16742TIP3    H171641   0.768   1.069   4.254  1.4591  1.2774  0.9456
16742TIP3    H271642   0.879   0.982   4.310 -0.9299 -2.4726  0.2105
16743TIP3   OH271643   4.242   5.956  15.070  0.1740 -0.2420 -0.4528
16743TIP3    H171644   4.335   5.972  15.087 -0.3671  1.2627  1.5717
16743TIP3    H271645   4.213   5.906  15.146 -0.8514  0.1472 -0.5739
16744TIP3   OH271646   3.800   0.292   5.550 -0.0598 -1.0050  0.0736
16744TIP3    H171647   3.881   0.240   5.557  0.0289 -0.7741  0.8994
16744TIP3    H271648   3.779   0.315   5.641  2.1532  3.8566 -0.2832
16745TIP3   OH271649   3.535   3.420  13.831  0.5542 -0.3679  0.2904
16745TIP3    H171650   3.527   3.514  13.848  1.5568 -0.4966  1.6350
16745TIP3    H271651   3.626   3.408  13.803 -0.0882 -0.6993 -1.8375
16746TIP3   OH271652   4.209   6.527   4.498 -0.0861  0.4595 -0.1456
16746TIP3    H171653   4.194   6.433   4.490 -2.7799  0.8198 -0.3844
16746TIP3    H271654   4.181   6.548   4.587 -2.0432  1.3560 -0.9039
16747TIP3   OH271655   0.146   0.326  16.033 -0.2778  0.2738  0.3229
16747TIP3    H171656   0.063   0.298  15.996  0.7899 -0.3167 -1.7654
16747TIP3    H271657   0.206   0.330  15.959  1.2913  1.8104  1.5697
16748TIP3   OH271658   4.910   5.049  12.163 -0.1036  0.1487  0.3985
16748TIP3    H171659   5.005   5.043  12.172 -0.0699 -0.7363 -0.3552
16748TIP3    H271660   4.897   5.097  12.081 -0.2163 -3.0757 -1.6234
16749TIP3   OH271661   0.970   5.508   3.936 -0.3294  0.2889  0.0479
16749TIP3    H171662   0.995   5.508   4.028 -1.2108  0.0435  0.2958
16749TIP3    H271663   1.045   5.547   3.891  0.9291 -1.2862  0.6485
16750TIP3   OH271664   3.489   1.188   2.712 -0.0532 -0.4851 -0.6052
16750TIP3    H171665   3.516   1.155   2.797 -0.4633  0.9300  0.1015
16750TIP3    H271666   3.413   1.134   2.688  0.6187 -1.4959 -0.5313
16751TIP3   OH271667   2.299   4.438   0.023 -0.2702  0.4312 -0.1274
16751TIP3    H171668   2.310   4.358  -0.028 -0.6430 -0.1529  0.6878
16751TIP3    H271669   2.275   4.408   0.110 -3.5331  1.4314 -0.5089
16752TIP3   OH271670   4.281   3.358   4.052  0.5138  0.0811  0.3223
16752TIP3    H171671   4.358   3.353   3.995 -1.1320  0.6105 -2.0910
16752TIP3    H271672   4.257   3.266   4.068  0.7510 -0.0766 -0.2042
16753TIP3   OH271673   3.957   1.996   2.368  0.0705 -0.5096  0.4099
16753TIP3    H171674   3.998   2.081   2.387 -1.4743  0.8238 -1.7982
16753TIP3    H271675   4.001   1.935   2.428  2.3328  1.5342  1.0215
16754TIP3   OH271676   4.673   4.753  12.118 -0.1952 -0.4106 -0.3323
16754TIP3    H171677   4.743   4.710  12.069 -1.1883 -0.0677 -2.1488
16754TIP3    H271678   4.677   4.845  12.090 -0.3535 -0.0524  0.7799
16755TIP3   OH271679   0.534   1.119   2.916  0.0523  0.1109  0.0113
16755TIP3    H171680   0.555   1.039   2.964  0.8220  2.2293  3.5712
16755TIP3    H271681   0.444   1.106   2.886 -0.5805 -1.3444  2.2592
16756TIP3   OH271682   4.570   2.879   4.432 -0.0477  0.0748  0.6949
16756TIP3    H171683   4.629   2.804   4.441  0.3973  0.5698  2.0944
16756TIP3    H271684   4.500   2.862   4.495  0.5125  1.2317  1.6598
16757TIP3   OH271685   3.351   6.275  13.744  0.2958  0.6574  0.3349
16757TIP3    H171686   3.259   6.298  13.736  0.1666  0.8427  1.9227
16757TIP3    H271687   3.365   6.264  13.839  1.5492 -0.8365  0.0357
16758TIP3   OH271688   1.964   3.798   1.017 -0.1224  0.2978  0.2247
16758TIP3    H171689   1.870   3.779   1.023 -0.2094  0.8682  0.7045
16758TIP3    H271690   2.005   3.726   1.064 -0.3231  0.0895  0.0861
16759TIP3   OH271691   4.790   1.440   0.577 -0.0078  0.0014  0.0518
16759TIP3    H171692   4.719   1.492   0.540  0.2141 -0.4278 -1.0060
16759TIP3    H271693   4.794   1.467   0.669  0.5877  2.3555 -0.6118
16760TIP3   OH271694   6.408   5.997  11.996 -0.0145 -0.1658  0.6310
16760TIP3    H171695   6.429   6.090  11.992 -0.3929 -0.0887  0.4442
16760TIP3    H271696   6.450   5.959  11.919  0.5569 -0.2358  0.9690
16761TIP3   OH271697   1.250   1.480  10.950 -0.0418 -0.0449  0.0742
16761TIP3    H171698   1.248   1.574  10.933 -0.0197 -0.0597 -0.0127
16761TIP3    H271699   1.333   1.465  10.996 -0.8317  0.2342  1.6599
16762TIP3   OH271700   1.906   0.574  17.032 -0.0314  0.1346  0.4592
16762TIP3    H171701   1.968   0.570  17.105  1.8762  1.7873 -0.9351
16762TIP3    H271702   1.931   0.653  16.984 -0.7118 -1.2137 -2.3656
16763TIP3   OH271703   2.877   2.078  12.289  0.1697  0.0428 -0.2124
16763TIP3    H171704   2.923   2.068  12.206 -0.5031 -1.1673 -0.4561
16763TIP3    H271705   2.792   2.113  12.266  0.3719  0.7342  0.0800
16764TIP3   OH271706   2.114   3.669  15.802 -0.5861  0.6703  0.1325
16764TIP3    H171707   2.205   3.668  15.833 -0.2000  2.1346 -0.8689
16764TIP3    H271708   2.069   3.607  15.860  0.4762  1.9058  2.4300
16765TIP3   OH271709   5.488   6.216   2.925  0.3886  0.5166  0.3188
16765TIP3    H171710   5.518   6.194   3.014  0.2492  0.0340  0.2497
16765TIP3    H271711   5.462   6.132   2.887  1.9982  0.4845 -0.7707
16766TIP3   OH271712   4.193   2.795  16.410 -0.2869 -0.1979  0.1755
16766TIP3    H171713   4.282   2.797  16.446  0.1549 -2.6355 -0.5556
16766TIP3    H271714   4.185   2.876  16.360  1.8442 -0.2651 -0.3841
16767TIP3   OH271715   3.626   6.555  12.822 -0.1059  0.3667  0.1951
16767TIP3    H171716   3.575   6.528  12.745  0.1162  1.8162 -0.5102
16767TIP3    H271717   3.564   6.555  12.894 -0.7208  0.5312 -0.3270
16768TIP3   OH271718   1.906   2.697   0.436 -0.2572 -0.2511  0.0977
16768TIP3    H171719   1.998   2.686   0.412 -0.0438  0.1172  0.7212
16768TIP3    H271720   1.887   2.622   0.494  0.0349  0.3770  1.0333
16769TIP3   OH271721   2.368   5.600   4.470  0.0829  0.1850  0.1584
16769TIP3    H171722   2.375   5.505   4.472  0.0130  0.1963  1.2597
16769TIP3    H271723   2.374   5.622   4.377 -1.1022 -0.9799 -0.2204
16770TIP3   OH271724   6.232   1.500   3.719  0.0166 -0.2323 -0.1496
16770TIP3    H171725   6.204   1.588   3.694 -1.0673 -0.3449  0.6117
16770TIP3    H271726   6.154   1.446   3.708  0.3969 -0.9010  0.3594
16771TIP3   OH271727   1.719   6.401   2.910 -0.1760  0.5671 -0.2188
16771TIP3    H171728   1.656   6.398   2.838 -0.9990 -0.6689  0.5074
16771TIP3    H271729   1.669   6.373   2.987  0.9761  0.6998  0.6103
16772TIP3   OH271730   3.873   2.431   4.402  0.4749 -0.4259 -0.4107
16772TIP3    H171731   3.865   2.402   4.311  0.0710 -0.1602 -0.4638
16772TIP3    H271732   3.831   2.362   4.453 -0.4699  0.0282 -0.5364
16773TIP3   OH271733   3.047   6.782  11.461  0.4282 -0.3732  0.2119
16773TIP3    H171734   3.070   6.706  11.406 -2.2552 -1.0282 -0.1782
16773TIP3    H271735   2.957   6.802  11.436  0.7695  2.4519  0.9475
16774TIP3   OH271736   6.616   6.680   4.783 -0.6869 -0.3746 -0.1652
16774TIP3    H171737   6.678   6.672   4.710 -0.9711  1.3900 -0.6488
16774TIP3    H271738   6.589   6.590   4.801  1.1547 -1.0917 -0.6750
16775TIP3   OH271739   6.365   5.381   4.689  0.0701  0.1738  0.0048
16775TIP3    H171740   6.450   5.410   4.722 -0.5329  1.0983  0.7847
16775TIP3    H271741   6.301   5.426   4.744 -0.9625 -2.7870  1.4321
16776TIP3   OH271742   2.970   1.488  16.709  0.2171  0.0814 -0.2368
16776TIP3    H171743   2.953   1.575  16.673 -0.6701 -0.9785 -2.5924
16776TIP3    H271744   2.884   1.454  16.732  0.2359 -1.1011 -1.7524
16777TIP3   OH271745   0.205   5.896   0.872 -0.0999  0.6379  0.1093
16777TIP3    H171746   0.223   5.840   0.947 -0.8078 -0.7652 -0.7203
16777TIP3    H271747   0.123   5.940   0.895 -0.2938  0.2459  0.1798
16778TIP3   OH271748   4.048   2.534  11.902 -0.1477  0.8344 -0.1106
16778TIP3    H171749   4.131   2.503  11.865 -0.6765 -0.2561 -0.4150
16778TIP3    H271750   4.073   2.610  11.954  1.3785 -0.7041  1.5460
16779TIP3   OH271751   1.676   1.518   2.463  0.3328 -0.0751 -0.3273
16779TIP3    H171752   1.696   1.486   2.551 -0.6467  1.1460  0.3755
16779TIP3    H271753   1.737   1.590   2.448  2.0565 -1.7075 -1.6208
16780TIP3   OH271754   6.055   4.191   5.055 -0.3779 -0.4137 -0.1748
16780TIP3    H171755   6.056   4.211   5.149  0.4662  0.1052 -0.2870
16780TIP3    H271756   5.999   4.259   5.017  2.2106  1.6879 -0.5105
16781TIP3   OH271757   5.147   6.748  17.013  0.2392  0.0528  0.3940
16781TIP3    H171758   5.168   6.719  17.101  0.8193  0.7385  0.4904
16781TIP3    H271759   5.177   6.839  17.009 -0.0185  0.1170 -0.4222
16782TIP3   OH271760   5.590   2.059   3.742  0.1892 -0.0391 -0.2201
16782TIP3    H171761   5.669   2.092   3.700 -0.0067  1.2623  0.3982
16782TIP3    H271762   5.615   1.972   3.775  0.6066 -0.7089 -2.1863
16783TIP3   OH271763   6.469   0.515   5.938 -0.3132  0.3337 -0.4037
16783TIP3    H171764   6.526   0.585   5.906  0.4983  0.4969  1.2460
16783TIP3    H271765   6.521   0.435   5.925 -0.5771  0.2265 -0.8102
16784TIP3   OH271766   2.355   6.435   3.032 -0.4889 -0.0567 -0.2412
16784TIP3    H171767   2.399   6.361   2.991 -0.7880 -1.1637  1.3876
16784TIP3    H271768   2.388   6.512   2.984 -0.0227 -1.1946 -1.8115
16785TIP3   OH271769   6.552   6.136  16.450  0.0693  0.0405 -0.1261
16785TIP3    H171770   6.642   6.157  16.426  0.1356  1.2953  1.0653
16785TIP3    H271771   6.502   6.144  16.369  0.6705  1.6569 -0.3678
16786TIP3   OH271772   2.922   1.905   3.439  0.6693  0.6132  0.0402
16786TIP3    H171773   2.921   1.935   3.530  1.3652  2.0332 -0.3882
16786TIP3    H271774   2.933   1.810   3.445  1.8291  0.7924  1.4367
16787TIP3   OH271775   4.658   5.592  11.318  0.2074 -0.5094 -0.4753
16787TIP3    H171776   4.673   5.561  11.228 -0.0109 -0.7113 -0.4419
16787TIP3    H271777   4.565   5.576  11.334 -0.2675  1.5207 -0.9774
16788TIP3   OH271778   1.086   2.211  15.474 -0.7073 -0.0640 -0.0127
16788TIP3    H171779   1.074   2.299  15.437  1.5819 -0.1652 -1.1942
16788TIP3    H271780   1.095   2.226  15.568 -0.1402  1.0278 -0.2150
16789TIP3   OH271781   1.703   2.081  13.841  0.5286  0.9491 -0.4784
16789TIP3    H171782   1.696   2.009  13.904 -0.8079  1.7905  0.3987
16789TIP3    H271783   1.715   2.159  13.895 -2.2521  1.9158 -1.0622
16790TIP3   OH271784   1.925   5.506   4.057 -0.3101 -0.0662 -0.0537
16790TIP3    H171785   1.897   5.550   3.976 -0.2198  0.8140  0.3839
16790TIP3    H271786   2.003   5.457   4.031 -0.6630 -0.3262 -0.6544
16791TIP3   OH271787   6.502   0.896   3.641 -0.2631  0.1172 -0.0535
16791TIP3    H171788   6.590   0.894   3.680 -0.3683 -2.1342  0.2307
16791TIP3    H271789   6.462   0.975   3.676  1.5849  1.1093 -0.0674
16792TIP3   OH271790   5.209   5.776   5.276 -0.3462 -0.1540  0.6727
16792TIP3    H171791   5.158   5.697   5.257 -2.4012  0.7767  1.9282
16792TIP3    H271792   5.276   5.747   5.338  0.2352 -1.2777 -0.4515
16793TIP3   OH271793   3.176   1.673   0.661 -0.0998 -0.3012 -0.1170
16793TIP3    H171794   3.161   1.767   0.650  2.3385  0.0121 -1.6874
16793TIP3    H271795   3.157   1.636   0.574  1.7338 -0.7529 -0.3734
16794TIP3   OH271796   0.130   4.031   4.234  0.1197 -0.0616 -0.1590
16794TIP3    H171797   0.224   4.021   4.245  0.3662  2.2484  0.3004
16794TIP3    H271798   0.119   4.069   4.146 -0.3765 -0.2963 -0.2032
16795TIP3   OH271799   3.472   0.425   3.046 -0.8957  0.3745 -0.2272
16795TIP3    H171800   3.479   0.385   2.959  1.2029  0.0968  0.0090
16795TIP3    H271801   3.542   0.384   3.097 -0.5344  2.2402  0.8941
16796TIP3   OH271802   2.994   1.306   5.375 -0.0263  0.2019  0.3323
16796TIP3    H171803   2.957   1.392   5.357  0.5528  0.3519 -0.2148
16796TIP3    H271804   3.034   1.314   5.461  1.4870  1.0150 -0.4019
16797TIP3   OH271805   0.460   1.943   4.112 -0.1787  0.1989  0.4750
16797TIP3    H171806   0.428   2.007   4.175  1.2564 -0.7713  2.2649
16797TIP3    H271807   0.412   1.963   4.032  0.3479  3.6434  0.8500
16798TIP3   OH271808   6.513   4.605  16.647  0.0942 -0.0038 -0.4924
16798TIP3    H171809   6.604   4.587  16.625  0.0833 -1.7819  0.6884
16798TIP3    H271810   6.462   4.564  16.578  0.1700  0.9041 -1.0983
16799TIP3   OH271811   1.471   0.096  11.765  0.0281  0.5577  0.3063
16799TIP3    H171812   1.516   0.177  11.789  0.4118  0.8095 -1.1629
16799TIP3    H271813   1.498   0.079  11.675 -2.3857  0.4062 -0.4651
16800TIP3   OH271814   4.039   4.197   2.480 -0.2377  0.2499 -0.4844
16800TIP3    H171815   4.069   4.277   2.525  0.2235 -0.1800 -0.0190
16800TIP3    H271816   3.970   4.228   2.422 -0.2093  0.9644 -0.1581
16801TIP3   OH271817   4.530   1.700   2.212  0.2446 -0.5388 -0.1463
16801TIP3    H171818   4.577   1.779   2.238 -0.5257  0.3147 -1.2572
16801TIP3    H271819   4.581   1.665   2.139  0.0607 -0.5454 -0.2706
16802TIP3   OH271820   4.127   4.694   3.574 -0.3367 -0.4462  0.0767
16802TIP3    H171821   4.158   4.784   3.582 -2.4372  0.2633  1.1704
16802TIP3    H271822   4.194   4.641   3.617  2.0522  0.2639 -2.5417
16803TIP3   OH271823   1.102   6.213  16.059  0.5476 -0.6904 -0.9917
16803TIP3    H171824   1.120   6.280  15.994 -0.5773 -1.2416 -1.8978
16803TIP3    H271825   1.174   6.150  16.049 -0.0956 -1.2399 -2.3576
16804TIP3   OH271826   6.614   3.421  11.707  0.5722 -0.3487  0.1747
16804TIP3    H171827   6.588   3.421  11.614  0.6828  0.1404  0.1388
16804TIP3    H271828   6.542   3.376  11.752  0.4624 -0.4865 -0.1350
16805TIP3   OH271829   2.669   4.169  13.980 -0.6384 -0.1259  0.2192
16805TIP3    H171830   2.599   4.228  14.008 -0.5433  0.4686 -0.7407
16805TIP3    H271831   2.669   4.176  13.885  0.7924 -0.0405  0.2114
16806TIP3   OH271832   0.016   5.118  13.416  0.2340  0.0018  0.0323
16806TIP3    H171833   0.101   5.156  13.394  0.2927  0.3179  0.7734
16806TIP3    H271834  -0.026   5.101  13.331  1.4077 -1.0212 -0.3809
16807TIP3   OH271835   1.768   1.798   4.126  0.2460 -0.2970 -0.1346
16807TIP3    H171836   1.862   1.796   4.110  0.4794 -1.2751  1.2296
16807TIP3    H271837   1.753   1.732   4.194 -1.1037  1.4384  1.3607
16808TIP3   OH271838   0.548   4.580   2.277 -0.1793  0.7413  0.1762
16808TIP3    H171839   0.624   4.638   2.263  1.5102 -1.4928 -0.5614
16808TIP3    H271840   0.533   4.540   2.191 -0.9999 -0.2277  0.7575
16809TIP3   OH271841   0.078   1.230  13.729  0.2143  0.1583  0.0706
16809TIP3    H171842   0.164   1.250  13.766  0.5308 -1.1349  0.0581
16809TIP3    H271843   0.027   1.199  13.804 -0.4070  1.3250  0.1675
16810TIP3   OH271844   3.591   2.944  12.829 -0.4380  0.7247 -0.5386
16810TIP3    H171845   3.550   3.023  12.863  1.1835  1.2528  0.3239
16810TIP3    H271846   3.558   2.935  12.739 -1.0440  2.0731 -0.4607
16811TIP3   OH271847   5.659   2.415   5.194 -0.1258 -0.3762  0.1758
16811TIP3    H171848   5.648   2.411   5.099 -0.5685  0.4592  0.1826
16811TIP3    H271849   5.633   2.328   5.225 -1.6987 -0.1207 -0.3215
16812TIP3   OH271850   1.581   1.551  13.612 -0.5508 -0.3889 -0.0376
16812TIP3    H171851   1.562   1.598  13.531 -0.1271 -0.2669 -0.0623
16812TIP3    H271852   1.676   1.551  13.619 -0.5783 -0.5702  0.3603
16813TIP3   OH271853   2.401   5.136  15.894 -0.2626 -0.6308 -0.1327
16813TIP3    H171854   2.450   5.212  15.925 -0.4857 -0.1836 -0.8496
16813TIP3    H271855   2.325   5.131  15.952  0.0264 -0.6141  0.2418
16814TIP3   OH271856   5.127   4.537   2.232 -0.0332 -0.2949  0.0565
16814TIP3    H171857   5.221   4.524   2.219 -0.1215 -3.1288  1.6022
16814TIP3    H271858   5.120   4.571   2.321 -0.5268 -1.2363  0.3831
16815TIP3   OH271859   4.023   5.255   5.376 -0.1611  0.2149 -0.4424
16815TIP3    H171860   4.020   5.174   5.326 -0.6432  0.0348 -0.1380
16815TIP3    H271861   3.949   5.248   5.437 -0.2130  0.8846 -0.4166
16816TIP3   OH271862   4.879   5.827   1.540 -0.0554  0.7634 -0.4900
16816TIP3    H171863   4.818   5.886   1.585 -0.7867  0.1916 -0.7039
16816TIP3    H271864   4.926   5.883   1.479 -1.1438  1.0524 -1.1001
16817TIP3   OH271865   2.728   6.719  16.331  0.5659 -0.1941 -0.3347
16817TIP3    H171866   2.754   6.732  16.422  2.2296  1.6485 -1.0191
16817TIP3    H271867   2.655   6.780  16.317 -0.2697 -1.0968 -0.0388
16818TIP3   OH271868   5.519   5.677   3.051  0.8334  0.2192  0.3902
16818TIP3    H171869   5.440   5.726   3.074  0.2252  0.1314 -1.3380
16818TIP3    H271870   5.590   5.738   3.069  0.1151  1.7101 -1.3844
16819TIP3   OH271871   5.958   6.509   0.635  0.3256 -0.0329 -0.2978
16819TIP3    H171872   6.036   6.506   0.578 -0.4448  0.9419 -1.4593
16819TIP3    H271873   5.913   6.427   0.618  0.0350  0.3064 -1.2283
16820TIP3   OH271874   2.156   0.703   4.873  0.5428  0.1921 -0.5214
16820TIP3    H171875   2.204   0.721   4.953  0.9053  0.3536 -0.7696
16820TIP3    H271876   2.086   0.644   4.899  0.1420  0.9066  0.0638
16821TIP3   OH271877   5.384   0.217  10.793 -0.5750 -0.1349  0.5836
16821TIP3    H171878   5.328   0.294  10.808 -0.1856  0.2672  0.0052
16821TIP3    H271879   5.322   0.145  10.784 -1.0419  0.3692 -0.4566
16822TIP3   OH271880   2.618   2.417  13.530 -0.1538 -0.6214  0.0470
16822TIP3    H171881   2.584   2.461  13.452  0.4953  0.7892  0.5157
16822TIP3    H271882   2.665   2.486  13.577 -1.3098 -1.1943  2.1568
16823TIP3   OH271883   1.216   0.788  15.637  0.0916  0.5790  0.3310
16823TIP3    H171884   1.242   0.820  15.723  0.5074 -0.3715  0.5665
16823TIP3    H271885   1.278   0.719  15.617 -1.1870 -0.5656  0.1404
16824TIP3   OH271886   6.100   5.711  16.731  0.3696 -0.3465  0.5509
16824TIP3    H171887   6.069   5.763  16.805  0.6735  1.7398 -0.7180
16824TIP3    H271888   6.110   5.774  16.660 -0.7483 -2.4203 -1.5425
16825TIP3   OH271889   5.890   5.221   3.841 -0.2824 -0.3128  0.6555
16825TIP3    H171890   5.867   5.258   3.756 -0.8722 -0.9211  0.5401
16825TIP3    H271891   5.981   5.192   3.832 -0.4707 -0.7386  0.1055
16826TIP3   OH271892   4.184   0.315  14.578 -0.4075  0.1631  0.0372
16826TIP3    H171893   4.261   0.347  14.625 -0.8866  2.3551 -0.5686
16826TIP3    H271894   4.173   0.376  14.506 -2.5395 -0.2753 -0.0676
16827TIP3   OH271895   3.640   1.440  12.898  0.3654 -0.0032  0.0027
16827TIP3    H171896   3.713   1.478  12.946 -0.2288  0.8425  0.2458
16827TIP3    H271897   3.614   1.508  12.835 -0.5505 -0.0886  0.2777
16828TIP3   OH271898   2.974   1.937   3.894 -0.1715  0.2517  0.0219
16828TIP3    H171899   2.962   1.936   3.989 -1.9838 -1.2512 -0.1771
16828TIP3    H271900   2.886   1.947   3.858  0.4287  0.2990 -1.5247
16829TIP3   OH271901   2.208   3.753  12.211  0.2386  0.6131  0.2841
16829TIP3    H171902   2.237   3.752  12.120  1.5662 -1.1262  0.6689
16829TIP3    H271903   2.212   3.846  12.236 -0.8490  1.2223 -1.5961
16830TIP3   OH271904   0.972   6.597  11.583 -0.1670 -0.3885  0.2378
16830TIP3    H171905   0.974   6.520  11.640  0.4121 -0.5130  0.0558
16830TIP3    H271906   0.880   6.607  11.559 -0.1226 -1.6460 -0.5762
16831TIP3   OH271907   0.445   1.935   5.604  0.0786 -0.0670 -0.3891
16831TIP3    H171908   0.352   1.912   5.599  0.2044 -0.3535 -1.7940
16831TIP3    H271909   0.452   2.018   5.558  0.2807  0.8177  1.1639
16832TIP3   OH271910   5.271   3.017   0.403 -0.5866  0.6146 -0.7283
16832TIP3    H171911   5.315   2.959   0.342 -1.4709  0.0518 -0.8411
16832TIP3    H271912   5.305   2.991   0.489 -1.5701 -0.6471 -0.6902
16833TIP3   OH271913   0.981   0.616   1.230  0.2923 -0.4414 -0.3452
16833TIP3    H171914   0.982   0.710   1.213 -0.0568 -0.1869  0.9199
16833TIP3    H271915   0.927   0.606   1.309  0.7635 -1.6467 -0.1457
16834TIP3   OH271916   5.990   4.324  14.341 -0.0069 -0.0963  0.0035
16834TIP3    H171917   5.898   4.329  14.315  0.0888  1.6780 -0.1346
16834TIP3    H271918   6.012   4.231  14.336 -1.8346 -0.5742  0.2112
16835TIP3   OH271919   6.307   4.905  13.489  0.4907  0.0975 -0.5050
16835TIP3    H171920   6.259   4.933  13.411 -0.3306  0.4004  0.0887
16835TIP3    H271921   6.399   4.916  13.467  0.2293  2.5579 -0.5591
16836TIP3   OH271922   3.609   0.714   1.312 -0.6136 -0.6720 -0.7798
16836TIP3    H171923   3.548   0.759   1.253  0.0367 -1.3564 -2.0168
16836TIP3    H271924   3.687   0.770   1.313 -1.0656 -0.0131  0.4721
16837TIP3   OH271925   3.504   0.730   4.688  0.3393 -0.7654 -0.5133
16837TIP3    H171926   3.482   0.651   4.638 -0.9604 -0.8428  0.1275
16837TIP3    H271927   3.421   0.778   4.694  1.0662  0.5385 -0.6980
16838TIP3   OH271928   3.645   3.216   5.252  0.5642  0.5553  0.5467
16838TIP3    H171929   3.646   3.134   5.301  2.8104 -1.1589 -2.0733
16838TIP3    H271930   3.696   3.277   5.305  1.4374 -0.6913  1.1712
16839TIP3   OH271931   0.417   4.857   2.194 -0.2668  0.2714 -0.2663
16839TIP3    H171932   0.498   4.832   2.238 -0.4934 -2.3079 -1.1307
16839TIP3    H271933   0.435   4.844   2.101 -1.8303 -1.0669 -0.4321
16840TIP3   OH271934   6.188   2.862  12.948  0.7150  0.2494  0.2551
16840TIP3    H171935   6.215   2.809  13.024  1.5080  1.0167  0.5283
16840TIP3    H271936   6.270   2.880  12.902  0.3849  0.8005 -0.1213
16841TIP3   OH271937   1.966   5.160   0.579 -0.0962  0.1124 -0.4823
16841TIP3    H171938   1.986   5.116   0.496  1.3016 -1.7992  0.7840
16841TIP3    H271939   2.004   5.247   0.570 -0.3710  0.0927 -2.0071
16842TIP3   OH271940   4.678   1.940   2.359  0.1453  0.8724 -0.0385
16842TIP3    H171941   4.610   1.980   2.306  0.2091  0.2071 -0.6405
16842TIP3    H271942   4.680   1.992   2.440 -1.0317  0.9257 -0.0325
16843TIP3   OH271943   1.875   5.537  13.581  0.0202  0.0208 -0.0551
16843TIP3    H171944   1.915   5.526  13.494 -2.2515  1.3222 -1.3614
16843TIP3    H271945   1.812   5.466  13.587 -1.5536  1.3113 -0.5812
16844TIP3   OH271946   0.414   0.759   1.604 -0.0414 -0.4824  0.2562
16844TIP3    H171947   0.318   0.760   1.601 -0.0301  0.5440 -1.8587
16844TIP3    H271948   0.439   0.685   1.548  0.3958 -0.3795  0.3096
16845TIP3   OH271949   6.462   6.120  14.112  0.6242  0.5191  0.2763
16845TIP3    H171950   6.419   6.200  14.081 -0.5647 -0.0202  0.4868
16845TIP3    H271951   6.508   6.147  14.192  0.9204  1.1712 -0.1131
16846TIP3   OH271952   1.496   3.462  12.019 -0.4660  0.1682  0.3822
16846TIP3    H171953   1.406   3.435  12.000 -0.0194 -0.9119 -0.2741
16846TIP3    H271954   1.551   3.407  11.963  0.5455  1.9252 -0.4592
16847TIP3   OH271955   4.157   0.554   1.233  0.6730 -0.0078  0.5129
16847TIP3    H171956   4.208   0.504   1.297  1.7563 -0.6410 -0.7947
16847TIP3    H271957   4.222   0.596   1.178 -0.2242  2.2896  1.0941
16848TIP3   OH271958   5.411   0.425   1.741 -0.8627 -0.0490  0.0571
16848TIP3    H171959   5.506   0.430   1.744 -0.6846 -2.0160 -0.6630
16848TIP3    H271960   5.382   0.515   1.726  0.7523  0.8621  1.9760
16849TIP3   OH271961   4.713   2.889   1.227  0.0948  0.0718  0.4085
16849TIP3    H171962   4.681   2.813   1.275 -1.9059  0.6956  0.1241
16849TIP3    H271963   4.697   2.867   1.135 -2.0156  1.4395  0.3936
16850TIP3   OH271964   0.012   5.142   3.728  0.2989  0.1408  0.2332
16850TIP3    H171965   0.075   5.090   3.778  0.5240  1.7046  1.6404
16850TIP3    H271966  -0.063   5.151   3.786 -0.2525  0.3210 -0.4916
16851TIP3   OH271967   4.954   6.756  15.320 -0.3968 -0.4004  0.2815
16851TIP3    H171968   4.933   6.765  15.413 -1.2813 -2.0983  0.2972
16851TIP3    H271969   4.870   6.763  15.276 -0.3884 -2.2210 -0.1188
16852TIP3   OH271970   5.846   1.408   0.439  0.3437 -0.0596 -0.5201
16852TIP3    H171971   5.819   1.386   0.350 -0.7200  0.3475 -0.3111
16852TIP3    H271972   5.768   1.447   0.479  1.1078  0.7248  0.2596
16853TIP3   OH271973   6.359   1.770   5.145  0.1028  0.1543  0.8700
16853TIP3    H171974   6.442   1.726   5.127  0.5362  0.7226  1.4334
16853TIP3    H271975   6.293   1.713   5.106  0.8185  0.1348 -0.3664
16854TIP3   OH271976   4.266   4.798   0.621  0.2488 -0.8274  0.3512
16854TIP3    H171977   4.339   4.829   0.674  1.7094  0.6381 -2.3022
16854TIP3    H271978   4.303   4.727   0.568 -0.5022 -0.7165 -0.3510
16855TIP3   OH271979   4.350   5.370  10.782  0.4569  0.3104  0.1772
16855TIP3    H171980   4.420   5.422  10.742  0.7767 -0.4380 -0.2616
16855TIP3    H271981   4.292   5.347  10.709  0.5300 -0.2640  0.2913
16856TIP3   OH271982   3.196   3.729   1.366 -0.3634  0.0813 -0.0619
16856TIP3    H171983   3.278   3.744   1.319  1.1295  0.6219  2.4843
16856TIP3    H271984   3.135   3.792   1.328  0.7933  0.6102 -1.1269
16857TIP3   OH271985   3.055   1.592   0.428 -0.7639 -0.5314 -0.0956
16857TIP3    H171986   2.961   1.605   0.439 -0.5013  0.0294  1.7128
16857TIP3    H271987   3.069   1.500   0.450 -0.5844 -0.0132  2.1433
16858TIP3   OH271988   6.160   4.916   3.092 -0.0948  0.1435  0.1366
16858TIP3    H171989   6.178   4.983   3.025 -0.4297 -0.3716 -0.4771
16858TIP3    H271990   6.069   4.892   3.078 -0.1593  0.0096  0.7666
16859TIP3   OH271991   3.160   4.008   2.727 -0.0072 -0.6953 -0.0435
16859TIP3    H171992   3.087   4.029   2.785 -0.5785 -0.9917 -0.6485
16859TIP3    H271993   3.144   4.060   2.648  0.5270 -0.6366 -0.1206
16860TIP3   OH271994   1.432   4.193  10.865 -0.5735 -0.4460  0.0114
16860TIP3    H171995   1.474   4.278  10.852 -1.1036 -0.2147 -0.2547
16860TIP3    H271996   1.358   4.194  10.804 -2.4235  0.1595  2.1071
16861TIP3   OH271997   0.749   5.459  13.673 -0.0500  0.2298  0.0913
16861TIP3    H171998   0.697   5.508  13.736 -1.5490 -1.0619 -0.0687
16861TIP3    H271999   0.839   5.467  13.705 -0.4361  1.7703  0.8933
16862TIP3   OH272000   4.667   1.674   0.194  0.4622  0.4395  0.4424
16862TIP3    H172001   4.691   1.582   0.186  2.7373  0.9340  0.8863
16862TIP3    H272002   4.749   1.722   0.184 -0.9726  2.6690 -2.7710
16863TIP3   OH272003   3.532   4.285  15.433  0.2468  0.3031 -0.5294
16863TIP3    H172004   3.505   4.372  15.404  2.0204  0.5448 -1.5966
16863TIP3    H272005   3.616   4.299  15.476  0.4018 -0.8481 -0.4198
16864TIP3   OH272006   0.258   5.868  16.618  0.7587 -0.1404 -0.5549
16864TIP3    H172007   0.304   5.859  16.535  1.4244 -0.7619 -0.1258
16864TIP3    H272008   0.190   5.801  16.616  0.3041  0.3244 -0.8973
16865TIP3   OH272009   3.198   2.462  15.581  0.7466  0.6187 -0.7228
16865TIP3    H172010   3.248   2.539  15.609  2.2040  0.5420 -2.8754
16865TIP3    H272011   3.263   2.393  15.573 -0.0609 -0.0553 -1.6400
16866TIP3   OH272012   3.403   1.832   1.579 -0.8090 -0.0102 -0.2388
16866TIP3    H172013   3.333   1.892   1.556 -0.6496 -0.0660 -0.8951
16866TIP3    H272014   3.483   1.877   1.551 -0.6444 -0.2569 -0.1668
16867TIP3   OH272015   6.537   3.651   4.225 -0.5505  0.0605 -0.5529
16867TIP3    H172016   6.512   3.735   4.263 -0.9309 -0.2722 -0.0579
16867TIP3    H272017   6.453   3.607   4.206 -0.3601 -0.1028 -1.0495
16868TIP3   OH272018   0.107   5.904  14.042 -0.2194 -0.7499  0.4104
16868TIP3    H172019   0.074   5.963  13.974  0.7960 -1.8552 -1.1327
16868TIP3    H272020   0.063   5.821  14.024  1.1551 -1.4476  0.1491
16869TIP3   OH272021   5.125   3.716   0.573 -0.5063  0.6853  0.3509
16869TIP3    H172022   5.129   3.624   0.597  1.2693  0.7932  0.6169
16869TIP3    H272023   5.101   3.715   0.480 -0.1050 -0.0640  0.2444
16870TIP3   OH272024   3.278   1.564  10.643  0.3984  0.7356  0.0196
16870TIP3    H172025   3.201   1.614  10.670 -1.1342 -1.2507 -0.4796
16870TIP3    H272026   3.316   1.533  10.726 -0.5262  0.0714  0.2162
16871TIP3   OH272027   5.701   5.956   1.109  0.4174 -0.0916 -0.0426
16871TIP3    H172028   5.769   5.891   1.095  1.3758  1.0082 -0.6763
16871TIP3    H272029   5.650   5.956   1.028  0.2872 -0.1934  0.0381
16872TIP3   OH272030   5.800   1.164   3.754  0.2071  0.0040  0.6066
16872TIP3    H172031   5.820   1.076   3.788  0.0550 -0.3185 -0.1360
16872TIP3    H272032   5.706   1.163   3.738  0.0061  0.6680  1.6073
16873TIP3   OH272033   3.107   3.930   4.551 -0.2049 -0.2580 -0.1469
16873TIP3    H172034   3.190   3.933   4.599 -0.8665  0.3813  1.0253
16873TIP3    H272035   3.046   3.887   4.611 -1.2841  1.3780  0.0079
16874TIP3   OH272036   3.626   6.652  11.033  0.2674 -0.5171 -0.1603
16874TIP3    H172037   3.619   6.561  11.064  0.7366 -0.7668 -0.7912
16874TIP3    H272038   3.606   6.648  10.940  0.2425  0.0428 -0.1840
16875TIP3   OH272039   4.708   2.080  11.100 -0.1805 -0.0356 -0.8486
16875TIP3    H172040   4.620   2.118  11.105 -0.3844 -0.3581 -1.8826
16875TIP3    H272041   4.693   1.986  11.096  0.2949 -0.2014  0.7721
16876TIP3   OH272042   2.502   6.477  15.078  0.5236 -0.3114  0.6163
16876TIP3    H172043   2.593   6.497  15.099  0.5056 -1.6699  2.2174
16876TIP3    H272044   2.452   6.516  15.150  0.0795 -1.5109  0.9898
16877TIP3   OH272045   1.522   1.564   5.941 -0.7052 -0.1052 -0.1018
16877TIP3    H172046   1.577   1.501   5.893 -0.6007  0.9208 -1.3897
16877TIP3    H272047   1.444   1.573   5.886 -0.5606  1.1520 -0.1181
16878TIP3   OH272048   0.873   1.721  11.851  0.9290 -0.2033  0.3704
16878TIP3    H172049   0.941   1.788  11.855  1.3177 -0.4994 -0.7615
16878TIP3    H272050   0.798   1.761  11.894  1.7736  0.1749  1.5327
16879TIP3   OH272051   1.740   6.241  10.961 -0.2315 -0.1857  0.1681
16879TIP3    H172052   1.813   6.269  11.016 -0.6170 -2.9206  2.3107
16879TIP3    H272053   1.771   6.254  10.872  3.6323 -2.6829  0.9130
16880TIP3   OH272054   4.382   0.189  17.108 -0.6977  0.5291 -0.2164
16880TIP3    H172055   4.394   0.158  17.197 -1.9508  2.2706  0.6090
16880TIP3    H272056   4.289   0.212  17.102 -0.8182 -0.2360 -2.2135
16881TIP3   OH272057   1.744   2.386  14.959 -0.2257 -0.0496 -0.2463
16881TIP3    H172058   1.690   2.320  15.003 -1.9202  1.6306  0.2989
16881TIP3    H272059   1.733   2.465  15.011  0.3262  1.1497 -1.8605
16882TIP3   OH272060   3.456   4.791  12.634 -0.5667 -0.3409  0.4984
16882TIP3    H172061   3.443   4.851  12.708  2.7661  1.9605 -0.5374
16882TIP3    H272062   3.522   4.729  12.666 -0.0907 -0.1442 -0.0787
16883TIP3   OH272063   0.042   0.055   5.852  0.3020  0.1505 -0.0277
16883TIP3    H172064   0.090  -0.025   5.871 -1.6310 -0.9616  0.4981
16883TIP3    H272065   0.020   0.091   5.938  0.1602  0.6142 -0.2551
16884TIP3   OH272066   2.448   3.339   3.782  0.0431 -0.4346  0.4613
16884TIP3    H172067   2.505   3.362   3.855  1.5654  1.1441 -1.1278
16884TIP3    H272068   2.375   3.293   3.822  0.3397  1.1788  3.0876
16885TIP3   OH272069   6.109   1.480   5.800 -0.1052 -0.1278  0.7568
16885TIP3    H172070   6.055   1.403   5.784  0.4555 -0.2718 -0.5303
16885TIP3    H272071   6.086   1.507   5.889 -1.0672 -1.1582  0.8419
16886TIP3   OH272072   6.188   2.844   2.724 -0.4082 -0.1861 -0.1208
16886TIP3    H172073   6.254   2.855   2.655  0.9064 -0.9019  0.9873
16886TIP3    H272074   6.182   2.750   2.736  0.1008 -0.0351  1.4218
16887TIP3   OH272075   5.965   3.898  12.246  0.0856  0.0731 -0.3992
16887TIP3    H172076   6.021   3.822  12.230 -1.2117 -1.0552  0.2146
16887TIP3    H272077   6.008   3.970  12.200  1.7471 -0.8575 -0.3737
16888TIP3   OH272078   2.331   1.157   0.546  0.0704  0.5269 -0.2226
16888TIP3    H172079   2.426   1.142   0.538 -0.3989 -1.7523 -3.8630
16888TIP3    H272080   2.303   1.095   0.613  1.0043  0.3666  0.0407
16889TIP3   OH272081   3.645   0.744   3.361  0.2771  0.1137 -0.4129
16889TIP3    H172082   3.714   0.808   3.376  0.5313 -0.1787 -0.3021
16889TIP3    H272083   3.565   0.795   3.353  0.1690  0.3489  1.6311
16890TIP3   OH272084   2.585   3.870  13.045  0.1914 -0.6775 -0.2382
16890TIP3    H172085   2.662   3.916  13.081  0.6071 -0.3199 -1.5210
16890TIP3    H272086   2.610   3.850  12.955 -1.6068  0.3538 -1.0065
16891TIP3   OH272087   1.652   0.434  13.415  0.0463 -0.3667  0.0292
16891TIP3    H172088   1.652   0.415  13.321 -0.1440 -0.7980  0.1093
16891TIP3    H272089   1.639   0.528  13.422  1.7679 -0.0618 -0.4153
16892TIP3   OH272090   2.567   3.294  12.004 -0.0184  0.1808  0.1240
16892TIP3    H172091   2.624   3.360  12.043 -0.4580  1.2728 -1.0068
16892TIP3    H272092   2.517   3.342  11.937 -0.6210 -1.2179 -0.4673
16893TIP3   OH272093   0.079   5.816   0.019 -0.0438  0.1042  0.0051
16893TIP3    H172094   0.018   5.889   0.007 -1.4229 -1.1275 -0.8864
16893TIP3    H272095   0.071   5.764  -0.061  0.2954 -1.4449  0.9155
16894TIP3   OH272096   5.040   6.494  15.401 -0.5695  0.3730  0.3731
16894TIP3    H172097   5.019   6.482  15.493  0.1361 -0.5272  0.4398
16894TIP3    H272098   4.996   6.575  15.376 -0.5554  0.7725  1.5673
16895TIP3   OH272099   5.961   4.748   5.419  0.1394  0.0879  0.1615
16895TIP3    H172100   5.974   4.842   5.408 -0.5745  0.1697 -0.0780
16895TIP3    H272101   5.911   4.722   5.341 -1.9201  0.0140  1.4251
16896TIP3   OH272102   1.250   6.070   4.389 -0.0401 -0.0170 -0.2007
16896TIP3    H172103   1.267   5.976   4.388  0.2583 -0.1690  3.6718
16896TIP3    H272104   1.161   6.079   4.354 -0.9112 -2.0541  1.2847
16897TIP3   OH272105   5.889   6.106  16.606 -0.5683  0.8933  0.5756
16897TIP3    H172106   5.902   6.163  16.682 -0.0693  1.6760 -0.0849
16897TIP3    H272107   5.953   6.036  16.617 -1.2494  0.3781  1.4420
16898TIP3   OH272108   0.753   0.106  11.653 -0.7267 -0.2638  0.3178
16898TIP3    H172109   0.741   0.066  11.567  2.2039 -0.5999 -0.0401
16898TIP3    H272110   0.736   0.035  11.715 -1.7826 -0.3132 -0.0133
16899TIP3   OH272111   4.291   0.220  12.327 -0.1941  0.0043 -0.6254
16899TIP3    H172112   4.360   0.154  12.333  0.2196  0.3345 -1.6767
16899TIP3    H272113   4.219   0.175  12.284  0.5255  0.5535 -2.4890
16900TIP3   OH272114   5.515   0.339   0.379 -0.3150 -0.3861 -0.1752
16900TIP3    H172115   5.558   0.305   0.458  1.1052  0.1416 -0.6891
16900TIP3    H272116   5.513   0.265   0.319 -0.9109 -0.6416  0.1505
16901TIP3   OH272117   1.629   1.901  16.333  0.4818  0.1010  0.5299
16901TIP3    H172118   1.592   1.977  16.288  1.4312 -0.0622 -0.6086
16901TIP3    H272119   1.704   1.936  16.381 -0.5721  0.2836  2.0815
16902TIP3   OH272120   2.999   1.733   5.488 -0.2103 -0.0141  0.2240
16902TIP3    H172121   3.077   1.768   5.444  0.0782 -0.2819  0.5166
16902TIP3    H272122   2.962   1.808   5.536 -0.7790  0.3913 -0.8158
16903TIP3   OH272123   5.280   5.107   4.356  0.2215  0.0905 -0.5647
16903TIP3    H172124   5.354   5.147   4.403  0.1975  2.1014 -2.1395
16903TIP3    H272125   5.202   5.144   4.398  0.1428 -0.0603 -0.5759
16904TIP3   OH272126   1.258   3.443   0.777  0.1015  0.2012 -0.1418
16904TIP3    H172127   1.186   3.490   0.736 -0.8920 -0.3226  0.9381
16904TIP3    H272128   1.260   3.358   0.733  0.0051  0.1843 -0.1130
16905TIP3   OH272129   3.498   0.153  15.601  0.0414 -0.1839  0.4156
16905TIP3    H172130   3.455   0.084  15.650 -1.5682  1.8385  2.0356
16905TIP3    H272131   3.577   0.173  15.651 -0.0151 -0.1627  0.4960
16906TIP3   OH272132   3.108   3.399   0.929 -0.5443  0.2776  0.3406
16906TIP3    H172133   3.043   3.329   0.918 -0.4650  0.3981 -1.2535
16906TIP3    H272134   3.093   3.457   0.854  1.3188  0.3553 -0.0169
16907TIP3   OH272135   3.847   0.046   4.036 -0.0131  0.5307 -0.7827
16907TIP3    H172136   3.942   0.036   4.034  0.1949  1.9258  0.6318
16907TIP3    H272137   3.832   0.135   4.066 -1.7347 -0.6109  2.2647
16908TIP3   OH272138   4.289   4.129  10.576  0.1489 -0.2411  0.3777
16908TIP3    H172139   4.210   4.157  10.622 -0.6806 -0.1914 -1.0392
16908TIP3    H272140   4.300   4.193  10.506 -0.8797 -2.4173 -1.9429
16909TIP3   OH272141   1.405   4.562   1.958 -0.0119  0.0584  0.5852
16909TIP3    H172142   1.471   4.530   1.896 -1.5037  1.5226 -1.9786
16909TIP3    H272143   1.438   4.539   2.044  2.6755 -1.3071 -0.7116
16910TIP3   OH272144   6.468   0.512   2.041  0.5307 -0.1878  1.0336
16910TIP3    H172145   6.548   0.461   2.032  2.0042  1.9254  1.3745
16910TIP3    H272146   6.405   0.470   1.982  2.6933 -0.3943 -1.2873
16911TIP3   OH272147   6.435   2.540   0.116  0.7112  0.0824  0.4294
16911TIP3    H172148   6.430   2.632   0.144  1.7070  0.2200  0.1959
16911TIP3    H272149   6.463   2.545   0.025 -0.5992 -0.4286 -0.0276
16912TIP3   OH272150   6.373   0.606  10.629 -0.3378 -0.5124  0.0054
16912TIP3    H172151   6.449   0.658  10.655 -0.8208  0.1635  0.0893
16912TIP3    H272152   6.372   0.611  10.533 -1.0761  0.6718  0.0489
16913TIP3   OH272153   3.321   5.456   0.869 -0.5058 -0.1152 -0.4491
16913TIP3    H172154   3.265   5.428   0.941 -0.9297  0.8542 -0.3860
16913TIP3    H272155   3.344   5.375   0.823  0.1451 -0.7847  1.0193
16914TIP3   OH272156   0.796   2.479  15.282  0.0908  0.4750  0.1849
16914TIP3    H172157   0.889   2.460  15.294 -0.6478 -2.0541  3.3154
16914TIP3    H272158   0.782   2.472  15.188  2.7865 -0.5627 -0.2426
16915TIP3   OH272159   3.251   4.367  14.224  0.1805 -0.0068  0.3875
16915TIP3    H172160   3.337   4.336  14.254  0.2847  0.5453  0.6735
16915TIP3    H272161   3.242   4.332  14.135  0.4511 -0.5454  0.5639
16916TIP3   OH272162   4.025   4.431  13.279  0.1354  0.3684 -0.4761
16916TIP3    H172163   4.030   4.481  13.198 -1.3402  0.3454 -0.6196
16916TIP3    H272164   3.978   4.351  13.255 -0.2938  0.3470  0.3793
16917TIP3   OH272165   1.746   0.034   0.376  0.4868 -0.4960 -0.1718
16917TIP3    H172166   1.656   0.047   0.348  0.0306 -0.6983  1.1370
16917TIP3    H272167   1.739   0.011   0.469  1.6939 -3.0471 -0.6128
16918TIP3   OH272168   3.681   5.117  14.840  0.4038  0.9008  0.0653
16918TIP3    H172169   3.610   5.077  14.891  1.7795 -2.3612 -0.3923
16918TIP3    H272170   3.761   5.076  14.873  1.7611  1.9806 -1.7216
16919TIP3   OH272171   1.425   4.887  16.338  0.7364  0.2782 -0.0291
16919TIP3    H172172   1.432   4.820  16.406 -3.0707  0.2033  0.4803
16919TIP3    H272173   1.457   4.845  16.259 -1.1403 -2.0853  0.3741
16920TIP3   OH272174   5.987   4.745  13.633 -0.0912 -0.2135  0.0845
16920TIP3    H172175   5.925   4.767  13.563  0.0349 -0.2040 -0.0246
16920TIP3    H272176   6.072   4.740  13.589  0.1160  0.5807  0.3804
16921TIP3   OH272177   3.351   5.851   4.481  0.2087 -0.0114  0.1424
16921TIP3    H172178   3.307   5.905   4.547  0.8357  0.8051 -0.0864
16921TIP3    H272179   3.422   5.808   4.528  0.4650  0.3289  0.0699
16922TIP3   OH272180   4.481   0.254   3.321  0.0671 -0.0162 -0.5513
16922TIP3    H172181   4.462   0.201   3.244  2.0929 -0.8199 -0.5626
16922TIP3    H272182   4.545   0.203   3.370  0.7126  1.6198  0.3989
16923TIP3   OH272183   5.370   5.915  14.183 -0.1379  0.5828  0.0990
16923TIP3    H172184   5.336   5.830  14.154  0.0124  0.7458 -0.5646
16923TIP3    H272185   5.353   5.974  14.109  0.1949  1.0182  0.3676
16924TIP3   OH272186   2.455   2.225  12.884  0.1778  0.4248  0.5676
16924TIP3    H172187   2.485   2.189  12.801 -0.7111 -1.6353  1.0837
16924TIP3    H272188   2.377   2.276  12.860 -0.9312 -1.3482  0.2776
16925TIP3   OH272189   6.603   1.165   2.629 -0.1827  0.0510  0.0544
16925TIP3    H172190   6.627   1.236   2.570 -0.1359  0.5492  0.6589
16925TIP3    H272191   6.508   1.172   2.638 -0.1881 -0.0138  0.0445
16926TIP3   OH272192   0.547   4.996   0.496  0.4548 -0.3341  0.7689
16926TIP3    H172193   0.637   5.004   0.527  0.3397 -0.2662  1.0988
16926TIP3    H272194   0.550   5.026   0.405  0.6977  0.0299  0.8915
16927TIP3   OH272195   5.991   2.278   3.053  0.0438  0.1086  0.9323
16927TIP3    H172196   6.021   2.194   3.017  0.2509 -0.6017  2.6439
16927TIP3    H272197   5.899   2.265   3.073  0.1830  0.1079  1.6226
16928TIP3   OH272198   6.799   0.200   4.888 -0.5078 -0.3266  0.5720
16928TIP3    H172199   6.742   0.272   4.861 -1.3237 -0.6453  1.3994
16928TIP3    H272200   6.832   0.226   4.973 -0.9172 -0.9792  0.9391
16929TIP3   OH272201   6.265   1.145  16.260  0.6209  0.1281 -0.3078
16929TIP3    H172202   6.213   1.148  16.180 -1.0486  2.4930  0.7252
16929TIP3    H272203   6.354   1.163  16.231  0.3311 -0.6232 -1.7779
16930TIP3   OH272204   3.835   0.584   5.477  0.1833  0.0019  0.2122
16930TIP3    H172205   3.797   0.507   5.519 -1.5606  1.2540  1.0803
16930TIP3    H272206   3.825   0.568   5.383 -0.1199 -0.8402  0.3787
16931TIP3   OH272207   6.225   3.298  16.596 -0.3978  0.2130 -0.3977
16931TIP3    H172208   6.184   3.372  16.552 -0.6040 -0.5243 -1.5101
16931TIP3    H272209   6.169   3.223  16.573 -1.0774 -0.0859  1.9257
16932TIP3   OH272210   3.218   0.666   0.682 -0.0404  0.4997  0.3650
16932TIP3    H172211   3.127   0.670   0.714 -0.2501  0.1274 -0.1742
16932TIP3    H272212   3.222   0.584   0.633  1.3354 -0.9189  2.6589
16933TIP3   OH272213   5.639   5.487  12.405  0.5731  0.2802  0.1388
16933TIP3    H172214   5.572   5.502  12.471  1.8824  0.5339  1.4510
16933TIP3    H272215   5.594   5.501  12.322 -1.1286 -0.1208  0.9512
16934TIP3   OH272216   5.209   2.114   2.504 -0.1869 -0.1683  0.1030
16934TIP3    H172217   5.228   2.133   2.596 -0.0279  1.8844 -0.3110
16934TIP3    H272218   5.295   2.098   2.465 -0.3120 -1.8363  0.4285
16935TIP3   OH272219   1.486   3.316  13.801  0.2224  0.4109 -0.0015
16935TIP3    H172220   1.499   3.259  13.726 -1.4073 -0.4509  0.3191
16935TIP3    H272221   1.392   3.311  13.819  0.7082 -0.4277  2.8523
16936TIP3   OH272222   2.167   5.731  15.799  0.1907  0.3281 -0.0990
16936TIP3    H172223   2.261   5.747  15.809  0.6645 -2.0822 -0.0056
16936TIP3    H272224   2.144   5.678  15.875 -1.5336  1.8278  0.4759
16937TIP3   OH272225   3.275   5.193  16.779 -0.3527  0.0004 -0.3498
16937TIP3    H172226   3.313   5.209  16.692 -1.8501  0.1607 -1.0207
16937TIP3    H272227   3.202   5.255  16.785 -0.8279 -0.6227  0.6532
16938TIP3   OH272228   4.635   1.853   4.877  0.6399 -0.8087 -0.1223
16938TIP3    H172229   4.631   1.938   4.835  3.5364 -0.3430  0.2886
16938TIP3    H272230   4.650   1.791   4.806 -3.3895 -1.4047 -0.6713
16939TIP3   OH272231   1.904   1.488   5.717  0.0055 -0.6268 -0.3159
16939TIP3    H172232   1.818   1.450   5.732 -0.3978  0.5697  0.5310
16939TIP3    H272233   1.887   1.581   5.699  1.0995 -0.3965 -0.2322
16940TIP3   OH272234   1.121   4.315   1.754 -0.5637 -0.3594  0.3047
16940TIP3    H172235   1.040   4.296   1.800 -1.1916  1.6476  0.1424
16940TIP3    H272236   1.166   4.379   1.809 -0.5164  0.7808 -0.9912
16941TIP3   OH272237   5.352   0.166   1.640  0.3456  0.3650  0.1418
16941TIP3    H172238   5.374   0.243   1.692  0.5635  0.3979  0.0008
16941TIP3    H272239   5.376   0.190   1.551 -2.1607  1.1933 -0.3852
16942TIP3   OH272240   5.395   6.163  10.753 -0.0422  0.3841 -0.6495
16942TIP3    H172241   5.316   6.151  10.700  0.1300  3.0791 -1.6337
16942TIP3    H272242   5.465   6.177  10.690  1.1696 -1.2618  0.2381
16943TIP3   OH272243   2.310   6.617  17.113  0.0153 -0.1897  0.0154
16943TIP3    H172244   2.399   6.597  17.142 -0.0631  0.3985  0.6933
16943TIP3    H272245   2.256   6.548  17.151  0.2070 -0.7007 -0.6174
16944TIP3   OH272246   4.533   6.226   6.575  0.1384 -0.3256  0.0846
16944TIP3    H172247   4.536   6.176   6.493  1.7056  0.5050 -0.4064
16944TIP3    H272248   4.473   6.298   6.556 -1.6115 -1.5848  0.5823
16945TIP3   OH272249   5.761   2.973  11.944 -0.0194  0.0362  0.2804
16945TIP3    H172250   5.760   2.884  11.979  1.4284 -0.5896 -1.1185
16945TIP3    H272251   5.742   2.962  11.851  1.0314  1.0658 -0.0899
16946TIP3   OH272252   2.401   4.018  13.231 -0.1292 -0.9699 -0.6203
16946TIP3    H172253   2.328   3.985  13.180  0.2878 -2.0602 -0.5333
16946TIP3    H272254   2.479   3.991  13.182  0.2377  0.2490 -0.7644
16947TIP3   OH272255   5.164   1.999   3.380  0.2255 -0.0923  0.2568
16947TIP3    H172256   5.176   2.053   3.302  1.5952 -2.1183 -1.0327
16947TIP3    H272257   5.083   1.951   3.365 -0.4015  0.7425  0.8884
16948TIP3   OH272258   5.901   3.811  10.968  0.0554 -0.3633  0.5320
16948TIP3    H172259   5.892   3.761  11.049 -1.9416 -1.6747 -0.4232
16948TIP3    H272260   5.920   3.746  10.901  0.4583  0.5374 -0.2554
16949TIP3   OH272261   6.071   0.924   5.590 -0.3226 -0.1894 -0.2390
16949TIP3    H172262   6.067   0.840   5.545 -1.1319 -2.0039  2.9069
16949TIP3    H272263   5.981   0.958   5.585 -0.9789 -1.4428  1.6132
16950TIP3   OH272264   6.250   3.808  12.385 -0.4904 -0.5226  0.4756
16950TIP3    H172265   6.339   3.834  12.406 -0.2925 -0.7106 -0.0991
16950TIP3    H272266   6.203   3.891  12.372  0.2777 -0.3762 -1.9413
16951TIP3   OH272267   5.949   5.150  11.459 -0.6681 -0.1450 -0.2342
16951TIP3    H172268   5.956   5.246  11.460  0.8165 -0.2021 -1.5205
16951TIP3    H272269   6.027   5.121  11.412 -1.2890 -1.9786 -0.1984
16952TIP3   OH272270   3.430   1.046  15.908  0.3271  0.1306 -0.4544
16952TIP3    H172271   3.357   1.026  15.849  0.2348 -0.7680 -0.0554
16952TIP3    H272272   3.389   1.094  15.980 -0.0396 -1.0168  0.1431
16953TIP3   OH272273   2.279   5.397   1.938  0.1380  0.3517  0.1078
16953TIP3    H172274   2.216   5.346   1.887 -0.9310  1.0860  0.6356
16953TIP3    H272275   2.265   5.369   2.028  2.0051 -0.9295  0.0418
16954TIP3   OH272276   4.021   5.886  16.596  0.3544  0.2478  0.0971
16954TIP3    H172277   4.028   5.940  16.517  2.1885  1.2572  0.9059
16954TIP3    H272278   4.040   5.797  16.566  0.4360  0.5228 -0.6931
16955TIP3   OH272279   6.211   1.685  10.460  0.3480  0.1398 -0.5769
16955TIP3    H172280   6.214   1.615  10.394  0.7172  0.0920 -0.5112
16955TIP3    H272281   6.186   1.763  10.411 -0.7528 -0.1659 -0.5411
16956TIP3   OH272282   5.175   2.760   1.175 -0.0443 -0.1392 -0.1386
16956TIP3    H172283   5.220   2.763   1.260 -2.6234  0.9600  1.2949
16956TIP3    H272284   5.096   2.812   1.188 -0.4653  0.1968 -3.3125
16957TIP3   OH272285   2.902   3.028  13.107 -0.2566 -0.8669  0.1723
16957TIP3    H172286   2.885   3.077  13.026  2.0082 -1.2796 -0.6460
16957TIP3    H272287   2.920   2.939  13.077 -2.1462 -1.7346  1.4460
16958TIP3   OH272288   2.616   6.459  16.713 -0.4043  0.5008  0.2249
16958TIP3    H172289   2.584   6.403  16.642 -0.3261  0.3858  0.2822
16958TIP3    H272290   2.704   6.485  16.686  0.4004 -1.0847  1.1605
16959TIP3   OH272291   4.736   2.737  15.294  0.6425  0.0350  0.3437
16959TIP3    H172292   4.757   2.682  15.218  0.7930 -0.0042  0.4129
16959TIP3    H272293   4.711   2.821  15.256  2.1624  0.4935  0.3031
16960TIP3   OH272294   1.849   0.301   0.697  0.2628  0.1664 -0.2280
16960TIP3    H172295   1.759   0.320   0.672  0.9499  1.6127 -1.8468
16960TIP3    H272296   1.883   0.386   0.727  1.4389 -0.0615 -0.8685
16961TIP3   OH272297   4.659   5.194   5.368  0.2017 -0.3493  0.0234
16961TIP3    H172298   4.727   5.248   5.327  0.9461 -1.0851  0.2642
16961TIP3    H272299   4.671   5.208   5.462 -0.6426  0.3010  0.0449
16962TIP3   OH272300   5.333   2.148   2.741  0.3215  0.5757  0.4072
16962TIP3    H172301   5.412   2.115   2.699 -0.0190  0.2057  0.0388
16962TIP3    H272302   5.343   2.125   2.833  0.3437 -0.0677  0.2495
16963TIP3   OH272303   6.787   0.120  11.591 -0.6032  0.4159  0.3370
16963TIP3    H172304   6.767   0.189  11.528 -0.2758  0.5099  0.3350
16963TIP3    H272305   6.709   0.116  11.647 -0.7573  0.5612  0.1333
16964TIP3   OH272306   2.165   3.799  14.376 -0.5413 -0.6844 -0.2132
16964TIP3    H172307   2.173   3.893  14.392  0.7750 -0.4777 -1.7703
16964TIP3    H272308   2.071   3.784  14.368 -0.9293  0.0695  2.1831
16965TIP3   OH272309   2.697   0.425   5.977  0.0676 -0.1337 -0.7731
16965TIP3    H172310   2.682   0.518   5.995 -0.7057  0.2171 -2.9496
16965TIP3    H272311   2.642   0.379   6.041  1.0717  0.8268  0.8716
16966TIP3   OH272312   0.307   0.523  13.362 -0.0554  0.6926  0.1849
16966TIP3    H172313   0.238   0.457  13.358  1.0623 -0.4975 -0.1570
16966TIP3    H272314   0.261   0.604  13.381 -1.6098  0.0440 -0.6097
16967TIP3   OH272315   2.656   3.707  16.479 -0.0266  0.0590  0.8419
16967TIP3    H172316   2.670   3.703  16.574 -1.7884  0.2026  1.1319
16967TIP3    H272317   2.658   3.801  16.459  1.4451 -0.0102  0.5226
16968TIP3   OH272318   0.906   2.738  13.803 -0.0851 -0.0905  0.6049
16968TIP3    H172319   0.812   2.731  13.786 -0.4460  2.1994  1.3290
16968TIP3    H272320   0.914   2.730  13.898  0.5789 -1.0194  0.4897
16969TIP3   OH272321   0.360   6.068  11.018 -0.9786 -0.0123 -0.2605
16969TIP3    H172322   0.365   6.160  10.991  1.2319 -0.1305 -0.4182
16969TIP3    H272323   0.370   6.019  10.936 -1.2486 -0.3949 -0.0670
16970TIP3   OH272324   2.442   0.095  16.997  0.3580  0.3529  0.2627
16970TIP3    H172325   2.460   0.027  17.062 -1.4506  0.3847  0.8486
16970TIP3    H272326   2.348   0.109  17.002 -0.0462 -0.3010 -3.0368
16971TIP3   OH272327   4.361   6.146  12.130 -0.3255 -0.1627  0.1907
16971TIP3    H172328   4.430   6.211  12.112 -1.0632  0.7341  0.5417
16971TIP3    H272329   4.386   6.070  12.077 -0.1486  0.8808 -1.2879
16972TIP3   OH272330   2.185   0.173  12.490  0.2443 -0.0048 -0.1448
16972TIP3    H172331   2.264   0.149  12.538  0.6678  0.4186 -0.6134
16972TIP3    H272332   2.192   0.268  12.480 -0.4160  0.0591 -0.0306
16973TIP3   OH272333   4.948   5.910  13.322  0.0713 -0.1594  1.0678
16973TIP3    H172334   4.997   5.868  13.392 -0.7310  0.9418  2.3360
16973TIP3    H272335   4.967   6.004  13.332 -0.3139  0.0527  0.0090
16974TIP3   OH272336   3.514   0.478  15.998  0.2698 -0.0526  0.0495
16974TIP3    H172337   3.574   0.511  15.931 -0.7402  1.6209 -0.1046
16974TIP3    H272338   3.428   0.482  15.956 -0.1128 -1.2614  0.6742
16975TIP3   OH272339   6.278   4.864   1.779 -0.0353  0.0872  0.0893
16975TIP3    H172340   6.354   4.891   1.728  0.9042 -0.4149  1.1540
16975TIP3    H272341   6.249   4.783   1.738  0.8203 -0.4077  0.4266
16976TIP3   OH272342   2.231   5.387  15.822 -0.0067 -0.4159  0.8334
16976TIP3    H172343   2.322   5.397  15.849 -0.1109 -1.1933  1.4770
16976TIP3    H272344   2.180   5.437  15.886  0.0882  2.0638 -0.8464
16977TIP3   OH272345   4.926   0.348  14.312 -0.0612 -0.1415 -0.2855
16977TIP3    H172346   4.860   0.279  14.323  0.3936 -0.4938  0.3136
16977TIP3    H272347   4.916   0.377  14.222  1.6271 -2.9737 -1.4940
16978TIP3   OH272348   0.028   2.117  11.028 -0.4498 -0.1260  0.0434
16978TIP3    H172349  -0.002   2.165  11.105 -0.9316  1.5075 -1.0923
16978TIP3    H272350  -0.052   2.078  10.992 -0.1365 -1.4029  0.6664
16979TIP3   OH272351   6.701   0.319   0.331 -0.1375  0.5166 -0.3995
16979TIP3    H172352   6.701   0.235   0.377 -0.8506  0.9771  0.4787
16979TIP3    H272353   6.643   0.305   0.256 -1.1055  0.4995  0.3226
16980TIP3   OH272354   0.983   0.039  16.373 -0.1517 -0.5214  0.3254
16980TIP3    H172355   0.896   0.051  16.411 -0.4223  0.8740 -0.6973
16980TIP3    H272356   0.978   0.078  16.286  0.6736 -3.0114 -0.9216
16981TIP3   OH272357   1.101   3.966  14.232 -0.1892  0.5605  0.0234
16981TIP3    H172358   1.130   3.907  14.301  1.2414  0.9199 -0.2482
16981TIP3    H272359   1.069   3.908  14.163 -0.2757  0.1612  0.3947
16982TIP3   OH272360   4.927   4.768   3.404 -0.4074  0.5465 -0.9775
16982TIP3    H172361   4.946   4.682   3.366  3.0698  1.8077 -2.5036
16982TIP3    H272362   4.936   4.755   3.498 -0.3361 -0.8085 -1.1427
16983TIP3   OH272363   0.446   3.389  13.319  0.2094 -0.1942 -0.5001
16983TIP3    H172364   0.442   3.301  13.281  1.1348 -0.4547 -0.0444
16983TIP3    H272365   0.540   3.405  13.330 -0.0029  0.1794  0.9531
16984TIP3   OH272366   1.554   3.883   1.687  0.7525 -0.2213 -0.5998
16984TIP3    H172367   1.504   3.964   1.679 -0.4015 -0.9445 -0.9584
16984TIP3    H272368   1.512   3.823   1.625  1.4645 -1.1552 -0.1967
16985TIP3   OH272369   5.196   0.854  16.043 -0.1071 -0.1204  0.4987
16985TIP3    H172370   5.167   0.854  15.952  0.2261 -1.0589  0.3798
16985TIP3    H272371   5.144   0.923  16.085 -1.1636 -0.5096 -0.1231
16986TIP3   OH272372   2.566   4.917   1.478  0.2601 -0.4684 -0.6205
16986TIP3    H172373   2.544   4.971   1.554 -1.6392  0.0503 -1.4721
16986TIP3    H272374   2.528   4.832   1.498 -0.4385 -0.2678 -1.0589
16987TIP3   OH272375   2.155   3.273  15.597  0.2368  0.3439 -0.8366
16987TIP3    H172376   2.198   3.229  15.671 -1.3542 -2.1587 -1.2795
16987TIP3    H272377   2.070   3.299  15.631  1.3019  3.8583 -0.4256
16988TIP3   OH272378   1.112   3.660   0.025  0.4139 -0.1644 -0.0927
16988TIP3    H172379   1.081   3.574  -0.004  0.2693 -0.2184  0.2217
16988TIP3    H272380   1.039   3.719   0.009  0.8119  0.0649 -1.1095
16989TIP3   OH272381   0.772   5.978  11.497 -0.3961 -0.0830  0.4994
16989TIP3    H172382   0.709   6.050  11.493 -1.3264 -0.9317 -1.7129
16989TIP3    H272383   0.852   6.015  11.459 -1.3541 -0.5626 -2.2220
16990TIP3   OH272384   4.581   1.493   5.373  0.2360  0.2716 -0.8472
16990TIP3    H172385   4.661   1.463   5.330  0.6087  1.1653 -0.8008
16990TIP3    H272386   4.522   1.515   5.301  0.2639  0.2105 -0.8889
16991TIP3   OH272387   4.102   3.626  12.337  0.0216 -0.3075 -0.1756
16991TIP3    H172388   4.145   3.709  12.316 -2.7909  1.2899 -0.0546
16991TIP3    H272389   4.135   3.565  12.271  1.4716  1.1198 -0.8557
16992TIP3   OH272390   3.988   3.386   4.389  0.2145 -0.1011  0.4409
16992TIP3    H172391   3.943   3.459   4.431 -3.2565 -1.4908 -0.5053
16992TIP3    H272392   4.004   3.323   4.459 -3.1637 -1.2813  0.3406
16993TIP3   OH272393   2.270   4.415   4.249 -0.1698  0.1774 -0.0132
16993TIP3    H172394   2.230   4.453   4.171  0.1597 -0.0925 -0.3193
16993TIP3    H272395   2.349   4.372   4.216  0.6765  1.1793  0.6561
16994TIP3   OH272396   1.340   3.584  16.928 -0.0209 -0.1880 -0.4737
16994TIP3    H172397   1.346   3.536  17.010 -0.5105 -0.2486 -0.4738
16994TIP3    H272398   1.429   3.578  16.891  0.0277 -0.7455 -0.2815
16995TIP3   OH272399   6.534   5.783   3.910 -0.3229 -0.4241  1.0568
16995TIP3    H172400   6.627   5.802   3.899 -0.4323 -0.2437  0.3647
16995TIP3    H272401   6.531   5.691   3.934  0.0037 -0.6289  0.3514
16996TIP3   OH272402   5.566   6.696  16.811 -0.3903 -0.2335 -0.4185
16996TIP3    H172403   5.641   6.705  16.752 -0.0331  1.7765  0.2642
16996TIP3    H272404   5.569   6.604  16.839  1.0352 -0.5285 -1.3980
16997TIP3   OH272405   4.132   4.610  13.428 -0.7337  0.1409 -0.4474
16997TIP3    H172406   4.205   4.617  13.366 -1.3938  0.2119 -1.2431
16997TIP3    H272407   4.076   4.540  13.391  0.3663 -2.0052  1.6850
16998TIP3   OH272408   3.762   3.728  11.578 -0.1444 -0.0359 -0.0070
16998TIP3    H172409   3.671   3.719  11.551 -0.4428 -1.4091  1.3755
16998TIP3    H272410   3.800   3.641  11.567  1.0185  0.5064 -0.5393
16999TIP3   OH272411   0.131   6.719   1.522 -0.6437 -0.6272 -0.2955
16999TIP3    H172412   0.078   6.645   1.492  0.9433 -1.7171 -0.5694
16999TIP3    H272413   0.180   6.684   1.597  1.6709 -0.5688 -1.6813
17000TIP3   OH272414   3.877   1.945  13.680  0.2520  0.3113  0.0246
17000TIP3    H172415   3.904   1.936  13.772  0.8642  1.0731 -0.0702
17000TIP3    H272416   3.784   1.922  13.680 -0.1890  1.9065  1.1476
17001TIP3   OH272417   4.897   2.788  14.286 -0.3712 -1.2643  0.3186
17001TIP3    H172418   4.940   2.872  14.301 -0.6864 -1.4196  2.3595
17001TIP3    H272419   4.838   2.804  14.212 -0.3698  0.2816  0.6158
17002TIP3   OH272420   5.489   2.608  15.082 -0.0706 -0.2757  0.0573
17002TIP3    H172421   5.527   2.604  14.994  0.9622  1.1857  0.4178
17002TIP3    H272422   5.540   2.545  15.133  0.2352 -0.1206 -0.0577
17003TIP3   OH272423   4.365   3.060   2.652 -0.1692  0.3930  0.1684
17003TIP3    H172424   4.356   2.978   2.701 -0.5038  0.1820 -0.2310
17003TIP3    H272425   4.448   3.097   2.680  0.2766 -0.3959 -0.0949
17004TIP3   OH272426   3.400   0.951  15.444 -0.4537 -0.4747 -0.3322
17004TIP3    H172427   3.400   0.899  15.524 -0.3860 -1.3991 -0.9176
17004TIP3    H272428   3.463   1.021  15.461 -0.5698 -0.5585  0.4813
17005TIP3   OH272429   0.721   1.284  12.408  0.4298 -0.2124  0.5716
17005TIP3    H172430   0.689   1.339  12.479 -1.9760 -1.0093  0.1950
17005TIP3    H272431   0.711   1.195  12.440  0.7252 -0.5447 -0.2328
17006TIP3   OH272432   3.547   5.496  13.993  0.7403 -0.1570 -0.0342
17006TIP3    H172433   3.581   5.579  13.962  0.7091  0.0889  0.5767
17006TIP3    H272434   3.520   5.513  14.083 -0.5342 -0.4711 -0.3352
17007TIP3   OH272435   2.997   6.642   3.157  0.3228 -0.2394  0.0350
17007TIP3    H172436   2.949   6.600   3.228  1.0931 -0.2976  0.5386
17007TIP3    H272437   2.957   6.728   3.148  0.9246  0.2042  1.3151
17008TIP3   OH272438   0.476   5.227  13.969  0.1326 -0.0207  0.0028
17008TIP3    H172439   0.402   5.236  13.909 -0.2586  0.2337  0.5120
17008TIP3    H272440   0.477   5.310  14.018  0.7780 -0.0080 -0.0275
17009TIP3   OH272441   1.696   1.973   6.328 -0.1730  0.3513 -0.1304
17009TIP3    H172442   1.742   2.034   6.271 -1.0210  0.4682 -0.6975
17009TIP3    H272443   1.760   1.904   6.346 -0.3435 -0.4899 -2.4531
17010TIP3   OH272444   4.844   4.640   2.550 -0.4564 -0.2262  0.1479
17010TIP3    H172445   4.842   4.736   2.551  3.2222  0.0038 -0.2343
17010TIP3    H272446   4.777   4.614   2.613  0.2214  2.7003  2.2832
17011TIP3   OH272447   3.139   4.938  14.673 -0.5068  0.2625  0.0902
17011TIP3    H172448   3.092   5.021  14.672  0.7366  1.0297 -1.9376
17011TIP3    H272449   3.202   4.946  14.745 -1.0623  0.6478  0.5373
17012TIP3   OH272450   1.433   2.610  16.446  0.6132  0.5654  0.0338
17012TIP3    H172451   1.489   2.603  16.369 -0.2056  2.2801 -0.7693
17012TIP3    H272452   1.409   2.519  16.466  1.5688  0.0180 -1.1747
17013TIP3   OH272453   3.303   5.907   4.998  0.3065 -0.2162 -0.6812
17013TIP3    H172454   3.364   5.834   4.992 -0.5735 -1.0192 -0.0802
17013TIP3    H272455   3.250   5.888   5.075 -2.5497 -1.0088 -2.6832
17014TIP3   OH272456   6.475   6.464   5.604 -0.6815  0.6921 -0.1437
17014TIP3    H172457   6.423   6.536   5.569 -2.2538 -1.1558 -1.8352
17014TIP3    H272458   6.411   6.398   5.631  0.6674  0.1567  2.0451
17015TIP3   OH272459   1.587   5.696  14.617 -0.2329  0.8729 -0.7107
17015TIP3    H172460   1.517   5.721  14.678  0.4711 -1.0307  1.0083
17015TIP3    H272461   1.666   5.737  14.653  0.3314 -0.9243  0.2348
17016TIP3   OH272462   4.170   0.935   1.584 -0.0663 -0.3382 -0.1129
17016TIP3    H172463   4.260   0.919   1.555  0.1774 -1.2662  1.0432
17016TIP3    H272464   4.126   0.851   1.573 -1.5148  0.6690 -2.9108
17017TIP3   OH272465   5.311   6.452   3.722  0.4539 -0.2405 -0.2500
17017TIP3    H172466   5.318   6.477   3.629 -0.9269  0.1727 -0.2561
17017TIP3    H272467   5.402   6.443   3.750  0.9497  1.2278 -1.2242
17018TIP3   OH272468   2.252   6.392   1.806 -0.1244  0.7143  0.0601
17018TIP3    H172469   2.186   6.323   1.816 -0.6218  1.3295  1.2629
17018TIP3    H272470   2.206   6.461   1.758 -0.4340  1.2099  1.0412
17019TIP3   OH272471   5.002   3.366   4.032 -0.1065 -0.2809  0.3840
17019TIP3    H172472   4.953   3.407   4.103 -1.0807 -0.0373 -0.4062
17019TIP3    H272473   4.976   3.274   4.034 -1.2024 -0.0101 -0.4992
17020TIP3   OH272474   5.539   4.083  16.840 -0.1711 -0.2602  0.2691
17020TIP3    H172475   5.536   4.171  16.804 -3.5844  0.3489  1.6374
17020TIP3    H272476   5.612   4.084  16.902  0.0847  1.4939 -0.0290
17021TIP3   OH272477   3.418   0.653   2.495 -0.0765 -0.2892 -0.1921
17021TIP3    H172478   3.343   0.696   2.537  1.2681  2.4980 -0.4366
17021TIP3    H272479   3.381   0.572   2.458 -2.7715  0.5658  0.3847
17022TIP3   OH272480   6.576   2.579  10.920 -0.5385  0.7562  0.7187
17022TIP3    H172481   6.529   2.506  10.880 -1.1491  0.1195  2.5066
17022TIP3    H272482   6.565   2.567  11.014  1.2470  1.9135  1.1424
17023TIP3   OH272483   2.299   1.735  14.947 -0.3398  0.0605 -0.0389
17023TIP3    H172484   2.307   1.811  14.889  1.7331 -2.5328 -3.5587
17023TIP3    H272485   2.390   1.713  14.970 -1.0065 -0.2792  2.5700
17024TIP3   OH272486   1.808   4.110  10.457 -0.6008 -0.3492 -0.1421
17024TIP3    H172487   1.831   4.181  10.516 -2.6201 -0.5828  0.9982
17024TIP3    H272488   1.828   4.144  10.370  0.6665  0.6951  0.5159
17025TIP3   OH272489   6.472   0.943  17.074 -0.4587 -0.0375  0.6017
17025TIP3    H172490   6.523   0.862  17.078 -0.1768  0.1356  0.6051
17025TIP3    H272491   6.412   0.938  17.148  1.7621  1.1969  2.6571
17026TIP3   OH272492   6.424   1.141   0.188  0.3412 -0.4608 -0.8316
17026TIP3    H172493   6.443   1.232   0.213  1.8996 -0.4569 -1.9017
17026TIP3    H272494   6.381   1.149   0.103  0.0945 -0.7085 -0.7285
17027TIP3   OH272495   4.256   4.164  13.122 -0.4639 -0.0444  0.3455
17027TIP3    H172496   4.301   4.168  13.038 -0.1748  1.2123  0.5324
17027TIP3    H272497   4.218   4.076  13.126  1.2547 -0.8486 -0.1746
17028TIP3   OH272498   3.594   6.165  11.232  0.5057 -0.5983 -0.2464
17028TIP3    H172499   3.515   6.182  11.283  0.4896  1.7491 -0.9624
17028TIP3    H272500   3.650   6.113  11.290 -0.4091  0.0878  1.2988
17029TIP3   OH272501   4.879   6.636   1.491 -0.3010 -0.2945 -0.2334
17029TIP3    H172502   4.838   6.599   1.569  0.0206  0.8999  0.5280
17029TIP3    H272503   4.925   6.714   1.523  0.8000 -0.4260 -1.4223
17030TIP3   OH272504   4.530   1.534  14.685  0.6734  0.0695 -0.1634
17030TIP3    H172505   4.551   1.602  14.749 -0.2935  1.5638 -1.3979
17030TIP3    H272506   4.485   1.579  14.614 -0.3836 -1.9206 -0.8425
17031TIP3   OH272507   3.996   1.567   5.700 -0.5798  0.0768 -0.7932
17031TIP3    H172508   3.936   1.496   5.724 -3.1137  2.0644 -0.7920
17031TIP3    H272509   4.034   1.539   5.617 -1.0859 -1.4900 -0.5344
17032TIP3   OH272510   5.965   0.050  11.098  0.5641  0.6016 -0.1680
17032TIP3    H172511   5.890   0.091  11.056  1.8426  3.1942 -0.1290
17032TIP3    H272512   6.041   0.083  11.050  1.8401  0.5157  1.6701
17033TIP3   OH272513   0.297   5.962  12.829  0.2466 -0.0379  0.2221
17033TIP3    H172514   0.375   5.924  12.789  0.7787  1.7075 -0.4999
17033TIP3    H272515   0.326   5.988  12.917  0.0014 -0.8853  0.5598
17034TIP3   OH272516   5.336   1.152   1.322  0.3391  0.4500 -0.3853
17034TIP3    H172517   5.361   1.236   1.283 -0.5759  1.5893  1.3514
17034TIP3    H272518   5.405   1.134   1.386  0.0097  0.4123 -0.0360
17035TIP3   OH272519   4.649   0.155  12.256  0.3382 -0.4412 -0.2579
17035TIP3    H172520   4.639   0.249  12.269  0.6866 -0.3888 -0.3618
17035TIP3    H272521   4.647   0.118  12.345  0.9856 -0.2555 -0.1623
17036TIP3   OH272522   1.275   2.015   5.461 -0.1963 -0.0795  0.6402
17036TIP3    H172523   1.360   2.011   5.417 -0.2971 -0.6957  0.4844
17036TIP3    H272524   1.242   1.925   5.457 -1.1120  0.2681  0.2016
17037TIP3   OH272525   4.888   4.673   5.608 -0.0995 -0.7101 -0.3812
17037TIP3    H172526   4.920   4.686   5.519  0.9152 -1.4206 -0.1428
17037TIP3    H272527   4.966   4.680   5.663 -0.0808 -3.5639  0.1405
17038TIP3   OH272528   4.650   4.953   4.275 -0.4199 -0.9244 -0.3107
17038TIP3    H172529   4.659   4.858   4.266 -0.8575 -0.9167 -0.9301
17038TIP3    H272530   4.723   4.989   4.225 -0.7003 -0.9359 -0.7442
17039TIP3   OH272531   6.514   0.551   2.320 -0.2718 -0.1857  0.4536
17039TIP3    H172532   6.504   0.555   2.225  0.3341 -0.5479  0.3693
17039TIP3    H272533   6.581   0.617   2.340 -1.3295  0.8375  0.7913
17040TIP3   OH272534   4.909   5.382   1.075 -0.4341 -0.0491 -0.2440
17040TIP3    H172535   4.984   5.344   1.030 -1.0475 -1.1932 -0.3364
17040TIP3    H272536   4.947   5.446   1.135  0.5725 -0.2873 -0.6119
17041TIP3   OH272537   1.445   3.567  13.204  0.2228  0.3387 -0.5032
17041TIP3    H172538   1.438   3.601  13.115 -0.6208  0.4350 -0.4049
17041TIP3    H272539   1.502   3.490  13.196 -2.7814 -1.9452 -1.7934
17042TIP3   OH272540   1.575   5.201  11.264  0.0369  0.3557 -1.0743
17042TIP3    H172541   1.667   5.229  11.266  0.3440 -0.6094  1.1807
17042TIP3    H272542   1.579   5.105  11.272 -1.1635  0.3597 -0.1331
17043TIP3   OH272543   4.186   4.510  14.472  0.3252 -0.3632 -0.4051
17043TIP3    H172544   4.240   4.534  14.396  1.4355 -0.1530  0.4288
17043TIP3    H272545   4.241   4.450  14.522 -0.4190 -0.5419  0.2124
17044TIP3   OH272546   1.991   6.675  11.527  0.3349  0.3812  0.2407
17044TIP3    H172547   1.906   6.654  11.565 -1.0802  1.8724 -1.8890
17044TIP3    H272548   2.025   6.746  11.582 -1.7132  2.5682 -1.1138
17045TIP3   OH272549   0.011   1.304   0.615  0.1724 -0.1923 -0.2754
17045TIP3    H172550   0.032   1.266   0.701  1.2522  0.7673 -0.1059
17045TIP3    H272551   0.055   1.247   0.552 -0.2146 -0.6078 -0.1831
17046TIP3   OH272552   6.247   1.152   2.215  0.2592  0.1670  0.1502
17046TIP3    H172553   6.178   1.090   2.237 -0.0739 -0.1168 -1.5783
17046TIP3    H272554   6.208   1.238   2.230 -0.8941  0.0484 -1.7768
17047TIP3   OH272555   3.345   0.658   3.117  0.3898 -0.1861 -0.2428
17047TIP3    H172556   3.380   0.574   3.086  2.2008 -0.1963  1.5931
17047TIP3    H272557   3.311   0.639   3.204  0.2474  0.8566 -0.0633
17048TIP3   OH272558   0.401   3.583   5.611  0.3124  0.1002  0.1961
17048TIP3    H172559   0.449   3.634   5.546 -2.1189  0.2057 -1.6409
17048TIP3    H272560   0.382   3.646   5.681  0.9571  0.6052 -0.0728
17049TIP3   OH272561   6.037   5.892   4.701  0.3550  0.1306 -0.2357
17049TIP3    H172562   5.951   5.932   4.692  0.1668  0.4256  2.3342
17049TIP3    H272563   6.098   5.962   4.674 -0.0992  1.0752  1.1099
17050TIP3   OH272564   3.833   5.409   2.490 -0.8921 -0.0353  0.1731
17050TIP3    H172565   3.794   5.326   2.466 -1.2446 -0.1683  1.1390
17050TIP3    H272566   3.884   5.390   2.569  1.3655  0.0790 -1.1607
17051TIP3   OH272567   5.700   3.638  14.744  0.2462 -0.7042  0.5164
17051TIP3    H172568   5.737   3.560  14.787 -0.1111 -0.9722  0.3436
17051TIP3    H272569   5.614   3.648  14.785  1.1953  0.9947  2.2459
17052TIP3   OH272570   5.394   5.681  13.351  0.9117 -0.3903  0.0593
17052TIP3    H172571   5.365   5.620  13.420 -2.0303  0.3584 -0.3959
17052TIP3    H272572   5.460   5.736  13.394  0.2533 -0.9245  1.8418
17053TIP3   OH272573   5.107   6.185   3.682  0.5504 -0.7194 -0.5724
17053TIP3    H172574   5.110   6.256   3.618 -1.5287  2.3634  2.4117
17053TIP3    H272575   5.199   6.158   3.691  1.2494  0.6665 -2.7477
17054TIP3   OH272576   6.287   3.025  13.359 -0.2596  0.1382  0.7195
17054TIP3    H172577   6.382   3.021  13.371 -0.1809 -0.5212 -0.0424
17054TIP3    H272578   6.256   2.939  13.388 -0.5480  0.1196  0.3580
17055TIP3   OH272579   6.297   4.836  12.729  0.2966 -0.1879  0.5557
17055TIP3    H172580   6.351   4.804  12.656  0.0182  0.4982  0.0358
17055TIP3    H272581   6.296   4.764  12.792 -1.3861 -1.7572 -1.1226
17056TIP3   OH272582   2.628   2.936   1.973 -0.1721  0.0647  0.7292
17056TIP3    H172583   2.568   3.003   2.006 -1.0667 -0.1381 -0.4260
17056TIP3    H272584   2.591   2.910   1.888  1.2925 -0.4027  0.1980
17057TIP3   OH272585   1.963   4.499   3.017  0.1842 -0.2876  0.1441
17057TIP3    H172586   1.871   4.519   3.030 -0.1027 -2.4446  1.9323
17057TIP3    H272587   1.967   4.457   2.931 -0.3508  0.5673 -0.3038
17058TIP3   OH272588   2.296   3.792   6.073  0.3917 -0.1350 -0.3436
17058TIP3    H172589   2.372   3.757   6.026  0.1109 -0.0268 -0.8751
17058TIP3    H272590   2.286   3.881   6.040 -1.1478 -0.7693 -1.7188
17059TIP3   OH272591   5.062   4.297   4.369  0.8031 -0.3083  0.2237
17059TIP3    H172592   5.033   4.387   4.382  0.2592 -0.3983 -0.2927
17059TIP3    H272593   5.055   4.257   4.456  1.5719  0.2843  0.5649
17060TIP3   OH272594   1.808   5.321   1.280  0.0325 -0.0482  0.3296
17060TIP3    H172595   1.869   5.353   1.347 -0.6358 -0.9150  1.3886
17060TIP3    H272596   1.755   5.398   1.258  2.1529  1.0086 -1.4104
17061TIP3   OH272597   5.553   4.663  12.967 -0.1323  0.3111 -0.1547
17061TIP3    H172598   5.579   4.619  12.886 -1.4180  0.6924 -0.7946
17061TIP3    H272599   5.466   4.630  12.986  0.0469  0.4171  0.9608
17062TIP3   OH272600   2.084   0.503   5.237 -0.4925 -0.1210  0.7187
17062TIP3    H172601   2.064   0.535   5.325  0.6436  2.7577  0.0684
17062TIP3    H272602   2.180   0.501   5.235 -0.5214 -1.3412 -0.0963
17063TIP3   OH272603   5.084   4.849   6.121  0.0175 -0.1413 -0.1071
17063TIP3    H172604   4.991   4.869   6.110  0.3314  0.9832 -1.0390
17063TIP3    H272605   5.113   4.908   6.191 -0.2003 -1.3112  0.9879
17064TIP3   OH272606   5.022   4.985  11.023 -0.2780  0.8435  0.1980
17064TIP3    H172607   4.999   4.976  10.931 -1.7936  1.1647  0.5026
17064TIP3    H272608   5.067   5.069  11.029  2.7142 -0.5859 -0.6991
17065TIP3   OH272609   3.223   2.021   5.864 -0.1169  0.4136  0.1355
17065TIP3    H172610   3.202   1.974   5.945  1.5778  0.2904  0.5446
17065TIP3    H272611   3.279   1.961   5.815 -0.7615  0.6676 -0.9343
17066TIP3   OH272612   1.921   3.455   2.945 -0.6305 -0.1017  0.2462
17066TIP3    H172613   1.906   3.383   2.884 -1.1644 -1.0987  1.5016
17066TIP3    H272614   2.015   3.449   2.966 -0.7698 -0.7572  0.7173
17067TIP3   OH272615   3.001   4.493   0.626  0.2447 -0.0282 -0.1914
17067TIP3    H172616   3.025   4.544   0.703 -0.1663  0.7771 -0.5808
17067TIP3    H272617   3.074   4.433   0.613  0.4295 -0.0024  0.6726
17068TIP3   OH272618   6.567   4.541   1.934  0.4093 -0.5102  0.3907
17068TIP3    H172619   6.559   4.446   1.924 -0.3465 -0.3405 -0.7514
17068TIP3    H272620   6.510   4.562   2.008 -1.1320 -0.7084 -0.6853
17069TIP3   OH272621   6.749   2.383  12.040  0.3350 -0.1373 -0.1573
17069TIP3    H172622   6.798   2.360  11.961  0.4479  3.3067 -1.2277
17069TIP3    H272623   6.657   2.365  12.017  0.2401  1.8952 -1.5913
17070TIP3   OH272624   2.556   0.580  15.003 -0.0773 -0.5341  0.0972
17070TIP3    H172625   2.548   0.675  15.010 -0.9434 -0.4644 -1.3777
17070TIP3    H272626   2.630   0.566  14.945  0.6491 -0.8106  1.0614
17071TIP3   OH272627   3.278   5.495  11.098  0.4988 -0.2257 -0.5461
17071TIP3    H172628   3.182   5.489  11.098  0.5829 -3.7704 -0.8027
17071TIP3    H272629   3.303   5.486  11.190  0.6239  0.6941 -0.4783
17072TIP3   OH272630   5.796   4.946   0.944  0.6933  0.8529 -0.2794
17072TIP3    H172631   5.813   4.854   0.965  1.3883  1.0289 -0.0535
17072TIP3    H272632   5.755   4.980   1.023  1.9911  1.1520  0.2953
17073TIP3   OH272633   1.301   0.758  14.421 -0.3240 -0.8244 -0.7040
17073TIP3    H172634   1.229   0.748  14.483  1.1336  1.1685  1.5028
17073TIP3    H272635   1.349   0.675  14.425  1.4824  0.1707  3.4036
17074TIP3   OH272636   1.235   0.715   2.535 -0.6516  0.0649  0.0088
17074TIP3    H172637   1.284   0.724   2.454  0.2602 -0.5465  0.4621
17074TIP3    H272638   1.161   0.775   2.526 -0.0246  0.7353 -0.8580
17075TIP3   OH272639   0.790   5.779  16.354 -0.0814  0.3072 -0.0941
17075TIP3    H172640   0.817   5.868  16.331 -1.5292  0.8889  0.3279
17075TIP3    H272641   0.726   5.791  16.425 -0.1646 -1.0829  0.0933
17076TIP3   OH272642   1.612   1.408   6.677 -0.4581 -0.1457 -0.3827
17076TIP3    H172643   1.695   1.387   6.634 -0.3823  0.3300 -0.4758
17076TIP3    H272644   1.600   1.338   6.741  0.9753  0.7282  0.9626
17077TIP3   OH272645   5.109   1.688  16.399  0.0372 -0.1478 -0.4458
17077TIP3    H172646   5.065   1.720  16.320 -0.1677 -1.7865 -1.0439
17077TIP3    H272647   5.129   1.596  16.379 -2.2735 -1.4149  2.2844
17078TIP3   OH272648   4.372   3.972   3.129  0.3439  0.2250  0.1883
17078TIP3    H172649   4.378   3.877   3.122  0.9442  0.3340 -0.9072
17078TIP3    H272650   4.429   4.005   3.060 -1.0136  1.3784 -0.4247
17079TIP3   OH272651   5.913   4.996   0.646 -0.2614 -0.1224 -0.3628
17079TIP3    H172652   5.977   4.929   0.622  0.5104  0.2739  0.5223
17079TIP3    H272653   5.891   4.976   0.737  0.4180  1.1592  0.1013
17080TIP3   OH272654   0.858   4.708  15.114  0.1617 -0.0179 -0.4873
17080TIP3    H172655   0.926   4.707  15.047 -1.2128  2.1571 -2.0355
17080TIP3    H272656   0.789   4.650  15.080  0.0776 -0.0506 -0.2624
17081TIP3   OH272657   5.656   4.368  15.954 -0.2849 -0.5715 -0.1748
17081TIP3    H172658   5.561   4.362  15.948 -0.2126 -0.9405 -0.9374
17081TIP3    H272659   5.688   4.281  15.932  0.4127  0.5028 -4.2445
17082TIP3   OH272660   1.544   0.388   1.675 -0.1748 -0.0556 -0.0533
17082TIP3    H172661   1.584   0.393   1.588 -0.5081 -0.1599 -0.2151
17082TIP3    H272662   1.595   0.320   1.720 -1.0759 -1.2490 -0.7510
17083TIP3   OH272663   1.732   4.849  13.221 -0.0272  0.2863  0.0474
17083TIP3    H172664   1.721   4.768  13.171 -1.1399  0.2774  0.2868
17083TIP3    H272665   1.700   4.918  13.163  0.5391  0.5174  0.0001
17084TIP3   OH272666   4.900   2.656  12.632  0.0610 -0.0026  0.1315
17084TIP3    H172667   4.847   2.714  12.576  0.7818  2.9080  2.2200
17084TIP3    H272668   4.846   2.643  12.711  1.1604  0.4258  0.9778
17085TIP3   OH272669   5.856   1.218   2.464 -0.4333  0.2872  0.5628
17085TIP3    H172670   5.859   1.205   2.370  0.3882 -0.3553  0.6696
17085TIP3    H272671   5.936   1.266   2.485 -0.6776  0.5491  0.9188
17086TIP3   OH272672   1.253   1.402  14.807  0.7771  0.3199 -0.4802
17086TIP3    H172673   1.257   1.356  14.723  0.2918 -0.3360 -0.1404
17086TIP3    H272674   1.287   1.340  14.871  1.6711  1.0095 -0.2572
17087TIP3   OH272675   6.093   5.852   2.996  0.1944 -0.1865 -0.5834
17087TIP3    H172676   6.069   5.941   3.019 -3.3960 -0.9911 -0.5844
17087TIP3    H272677   6.149   5.822   3.067  0.1872  1.5432  0.1915
17088TIP3   OH272678   3.603   0.778   3.718  0.2654 -0.1189  0.2352
17088TIP3    H172679   3.524   0.796   3.770  0.4392  1.0386  0.1171
17088TIP3    H272680   3.572   0.720   3.648 -0.3888 -0.0314  0.4404
17089TIP3   OH272681   5.391   0.908  11.098 -0.6165 -0.2794  0.0503
17089TIP3    H172682   5.336   0.940  11.169  0.6807 -1.8517  1.8683
17089TIP3    H272683   5.349   0.827  11.070  0.9978 -1.8831  1.9444
17090TIP3   OH272684   0.869   3.981  15.933 -0.2527 -0.1341 -0.2705
17090TIP3    H172685   0.965   3.980  15.937 -0.2582  0.6876  0.3701
17090TIP3    H272686   0.849   3.957  15.842  0.4673 -2.7572  0.1758
17091TIP3   OH272687   5.517   1.582   2.641 -0.0821 -0.1492 -0.2136
17091TIP3    H172688   5.507   1.488   2.624  0.3313 -0.0038 -1.3680
17091TIP3    H272689   5.432   1.619   2.622 -0.1116 -0.2273 -0.2336
17092TIP3   OH272690   3.248   0.668   4.621 -0.0822  0.1241 -0.7734
17092TIP3    H172691   3.270   0.649   4.530 -1.9427 -0.5171 -1.1207
17092TIP3    H272692   3.164   0.625   4.635  0.8027 -1.0111  1.6733
17093TIP3   OH272693   3.729   0.243   2.120  0.0857  0.0717  0.2715
17093TIP3    H172694   3.700   0.177   2.057 -0.5801  0.5860  0.0210
17093TIP3    H272695   3.793   0.198   2.175 -2.0539 -1.5012  1.6086
17094TIP3   OH272696   3.707   5.225   2.310 -0.3915  0.2720  0.3475
17094TIP3    H172697   3.684   5.219   2.217  0.7500 -1.1149  0.1068
17094TIP3    H272698   3.640   5.173   2.355 -1.0292  1.0646  0.3368
17095TIP3   OH272699   4.932   0.307  12.604  0.2900 -0.2956 -0.1658
17095TIP3    H172700   4.862   0.359  12.563 -0.2685  0.6113  1.8357
17095TIP3    H272701   4.929   0.223  12.558 -1.1256  0.2405 -1.1297
17096TIP3   OH272702   3.172   3.780   5.545  0.3748 -0.2643  0.6954
17096TIP3    H172703   3.224   3.770   5.466  0.2194  1.8484  0.2714
17096TIP3    H272704   3.204   3.861   5.585 -0.3230 -0.6919  2.2014
17097TIP3   OH272705   4.649   6.304  11.404 -0.5956  0.1493 -0.5509
17097TIP3    H172706   4.635   6.311  11.309  1.7504  2.2261 -0.8355
17097TIP3    H272707   4.599   6.376  11.441 -0.6248  0.0057 -0.3103
17098TIP3   OH272708   2.464   3.108  14.823 -0.1064 -0.5077  0.2879
17098TIP3    H172709   2.486   3.034  14.767  0.1278 -0.7099  0.6513
17098TIP3    H272710   2.547   3.136  14.861  0.1565  1.1887 -1.3598
17099TIP3   OH272711   3.437   3.532  15.178 -0.2885  0.0052 -0.0947
17099TIP3    H172712   3.383   3.550  15.101  0.3245  2.5794 -0.0228
17099TIP3    H272713   3.375   3.504  15.245 -1.1545  0.2104 -0.7958
17100TIP3   OH272714   5.668   5.532  15.339 -0.9481 -0.2286  0.2884
17100TIP3    H172715   5.681   5.559  15.430  0.8113  2.1182 -0.5771
17100TIP3    H272716   5.593   5.583  15.309  1.0908  2.4314 -0.7226
17101TIP3   OH272717   4.828   3.446  12.871 -0.3102  0.2461  0.2107
17101TIP3    H172718   4.814   3.354  12.893 -1.5533 -0.2073 -2.2146
17101TIP3    H272719   4.766   3.493  12.928  0.6056 -0.3138  1.7461
17102TIP3   OH272720   4.813   0.944  15.599 -0.6526  0.7821 -0.7260
17102TIP3    H172721   4.718   0.933  15.605 -0.6151  0.5125 -0.6111
17102TIP3    H272722   4.825   1.032  15.564 -0.9088  1.4356  0.7682
17103TIP3   OH272723   6.659   2.417  14.835  0.0827 -0.0777  0.0316
17103TIP3    H172724   6.660   2.323  14.817 -0.0845 -0.0939  0.1083
17103TIP3    H272725   6.685   2.424  14.927 -0.5525 -0.0927  0.2175
17104TIP3   OH272726   1.589   1.001   2.263 -0.4902  0.3823  0.5121
17104TIP3    H172727   1.586   0.928   2.201  0.9420  1.1905 -0.5661
17104TIP3    H272728   1.682   1.021   2.271 -0.7122  0.7953  2.3711
17105TIP3   OH272729   2.888   2.806  10.445  0.2187 -0.2513 -0.2714
17105TIP3    H172730   2.810   2.818  10.500  0.7719 -0.0879  0.5023
17105TIP3    H272731   2.956   2.858  10.489  0.7333 -0.2974 -0.9997
17106TIP3   OH272732   1.809   2.279   5.682 -0.7947  0.7477 -0.0750
17106TIP3    H172733   1.741   2.314   5.739 -0.2674 -0.0777  1.0994
17106TIP3    H272734   1.885   2.336   5.696 -0.7265  0.6708 -0.1253
17107TIP3   OH272735   3.388   4.873  10.846 -0.5265 -0.5075  1.3783
17107TIP3    H172736   3.344   4.826  10.916 -0.0865 -0.9951  1.3323
17107TIP3    H272737   3.478   4.840  10.847 -0.1241  0.5391  1.5348
17108TIP3   OH272738   5.708   1.500  14.078 -0.0991 -0.2671  0.0615
17108TIP3    H172739   5.690   1.411  14.106 -0.6820 -0.5630 -1.1634
17108TIP3    H272740   5.625   1.531  14.041  0.7980 -0.2464 -2.1135
17109TIP3   OH272741   6.464   3.676  16.958 -0.2076 -0.2208 -0.2208
17109TIP3    H172742   6.524   3.698  17.030  0.3691  2.1651 -1.2977
17109TIP3    H272743   6.520   3.639  16.891 -0.6411 -1.8294  0.2768
17110TIP3   OH272744   5.765   1.314   6.230  0.2214 -0.7291 -0.3276
17110TIP3    H172745   5.697   1.246   6.228  0.3813 -0.8678 -1.8884
17110TIP3    H272746   5.799   1.317   6.141  0.6039  1.0404 -0.1524
17111TIP3   OH272747   3.050   1.262  17.044 -0.4610 -0.1333  0.3189
17111TIP3    H172748   2.991   1.320  17.092 -0.2443 -1.5706  2.4613
17111TIP3    H272749   2.996   1.227  16.972 -1.6073  0.1266  1.0212
17112TIP3   OH272750   3.343   0.871   4.993  0.4265 -0.1952  0.0885
17112TIP3    H172751   3.335   0.894   4.900 -1.1282  0.3809  0.3286
17112TIP3    H272752   3.316   0.779   4.997 -1.0706  0.2230  0.1541
17113TIP3   OH272753   5.427   6.331  11.724  0.4037 -0.1213 -0.0610
17113TIP3    H172754   5.519   6.346  11.699  0.9243 -0.3336  1.6066
17113TIP3    H272755   5.424   6.238  11.748 -0.0984  0.0278  0.4614
17114TIP3   OH272756   6.674   5.458  11.780  0.1398 -0.2615 -0.6399
17114TIP3    H172757   6.745   5.469  11.718 -0.5666 -0.2471 -1.4547
17114TIP3    H272758   6.712   5.404  11.850  1.0345  0.0092 -0.9026
17115TIP3   OH272759   3.694   4.269  16.068  1.0972  0.1606  0.1201
17115TIP3    H172760   3.609   4.296  16.103  0.2470 -2.5690  0.4117
17115TIP3    H272761   3.709   4.183  16.106  3.8457  0.3968 -0.2531
17116TIP3   OH272762   3.456   1.609   5.290 -0.2556 -0.0378  0.0195
17116TIP3    H172763   3.503   1.531   5.259 -1.2445 -0.2584 -1.0295
17116TIP3    H272764   3.392   1.626   5.221  1.5053  3.1891 -1.0132
17117TIP3   OH272765   3.575   5.855   1.415 -0.2895 -0.3359 -0.1789
17117TIP3    H172766   3.518   5.928   1.438 -0.1903 -0.6578  1.1810
17117TIP3    H272767   3.561   5.791   1.484 -0.1140 -1.4730 -1.1589
17118TIP3   OH272768   3.485   1.166  15.249 -0.1143  0.5994  0.4541
17118TIP3    H172769   3.567   1.173  15.200 -0.6517  0.7830 -0.4387
17118TIP3    H272770   3.509   1.122  15.330  1.0207  1.3675  0.5593
17119TIP3   OH272771   1.243   2.768  11.582  0.0925 -0.2935 -0.3810
17119TIP3    H172772   1.226   2.854  11.620 -2.4866 -0.5289 -0.8262
17119TIP3    H272773   1.238   2.781  11.488  0.8909 -0.7283 -0.4910
17120TIP3   OH272774   1.663   5.063   1.003 -0.3340  0.5135 -0.2009
17120TIP3    H172775   1.664   5.051   0.908 -1.3744 -1.2078 -0.0397
17120TIP3    H272776   1.741   5.115   1.021  0.9590 -0.7250 -1.8234
17121TIP3   OH272777   4.446   2.261  15.997 -0.0427  0.3645  0.3637
17121TIP3    H172778   4.364   2.220  16.025  1.3743 -1.5871  1.9254
17121TIP3    H272779   4.468   2.217  15.915  0.0571  0.0161  0.5769
17122TIP3   OH272780   6.067   3.362   6.229  0.0046  0.3670 -0.1961
17122TIP3    H172781   6.152   3.396   6.257 -0.5640  1.9599 -0.3104
17122TIP3    H272782   6.016   3.440   6.206 -0.7258 -0.6431 -2.3262
17123TIP3   OH272783   3.844   3.835  13.487 -0.0115  0.0728  0.0982
17123TIP3    H172784   3.940   3.839  13.492 -0.0049  2.0813 -0.9649
17123TIP3    H272785   3.827   3.761  13.428  0.8393 -0.5516  0.5977
17124TIP3   OH272786   6.776   3.050  16.316 -0.4877  0.5888  0.2893
17124TIP3    H172787   6.784   3.003  16.233  2.5580  1.2077  0.1388
17124TIP3    H272788   6.719   2.994  16.369 -1.7206 -0.3141 -1.8169
17125TIP3   OH272789   4.984   2.800   1.918  0.2028 -0.0937  0.1213
17125TIP3    H172790   5.076   2.771   1.924  0.5710  1.0798  0.4164
17125TIP3    H272791   4.980   2.879   1.973 -0.9610 -0.0648  0.0157
17126TIP3   OH272792   2.759   6.250  16.447 -0.8034 -0.5148 -0.2318
17126TIP3    H172793   2.740   6.250  16.353 -0.2348 -0.8867 -0.3549
17126TIP3    H272794   2.673   6.253  16.489 -1.0262  1.1603 -0.7530
17127TIP3   OH272795   3.471   2.671   2.070 -0.3857  0.2411  1.0870
17127TIP3    H172796   3.467   2.766   2.079  0.1669  0.4180 -0.2380
17127TIP3    H272797   3.423   2.652   1.990  1.5310 -0.3101 -0.0106
17128TIP3   OH272798   6.549   0.180   2.715  0.2987 -0.9776  0.1991
17128TIP3    H172799   6.464   0.218   2.696 -0.3776 -1.2627  2.3952
17128TIP3    H272800   6.546   0.093   2.675 -0.8692 -1.3893  1.1468
17129TIP3   OH272801   4.158   0.788   2.792 -0.0342 -0.0550  0.5617
17129TIP3    H172802   4.112   0.871   2.807 -1.4862 -0.5618 -0.7703
17129TIP3    H272803   4.244   0.813   2.761 -0.9543  1.0099 -1.2876
17130TIP3   OH272804   1.960   0.851  16.931  0.0359 -0.7936  0.4092
17130TIP3    H172805   1.900   0.874  16.860  0.3995 -0.8741  0.0722
17130TIP3    H272806   1.946   0.918  16.998 -0.1200 -0.5682  0.1503
17131TIP3   OH272807   4.351   3.152   4.766  0.0954 -0.2666  0.1896
17131TIP3    H172808   4.257   3.135   4.765  0.3923 -2.0958 -0.4302
17131TIP3    H272809   4.390   3.067   4.787  1.6963 -0.0733 -1.7165
17132TIP3   OH272810   1.592   6.142  13.564 -0.4779 -0.2467  0.3764
17132TIP3    H172811   1.501   6.160  13.585 -1.3807 -1.5440 -2.0557
17132TIP3    H272812   1.592   6.119  13.471  2.2759 -0.6778  0.3797
17133TIP3   OH272813   4.105   6.067  16.913  0.1554  0.8912  0.3307
17133TIP3    H172814   4.158   6.107  16.981  1.9136 -0.5452 -0.0911
17133TIP3    H272815   4.164   6.062  16.837 -1.4148  1.5128 -0.9764
17134TIP3   OH272816   2.328   1.756  12.701 -0.1677 -0.5530  0.7742
17134TIP3    H172817   2.381   1.728  12.775  0.9136  0.6615  0.4920
17134TIP3    H272818   2.264   1.816  12.738  1.9573  2.0696  0.4649
17135TIP3   OH272819   2.474   1.219  10.978  0.0949 -0.0163 -0.2981
17135TIP3    H172820   2.406   1.260  10.924  1.1457  0.5518 -1.2314
17135TIP3    H272821   2.549   1.277  10.970  0.6863 -0.6095  0.7634
17136TIP3   OH272822   4.457   4.078   6.612  0.4253 -0.1537  0.0966
17136TIP3    H172823   4.478   3.988   6.585 -1.6002 -0.2861 -1.2739
17136TIP3    H272824   4.361   4.079   6.617  0.4865  1.4393  2.0062
17137TIP3   OH272825   3.850   0.537  13.553  0.0830 -0.0925  0.4791
17137TIP3    H172826   3.795   0.520  13.477  1.4652 -1.4831 -0.2503
17137TIP3    H272827   3.824   0.471  13.617  0.3133 -0.1915  0.4682
17138TIP3   OH272828   4.262   5.510   3.933  0.3498  0.0579 -0.2108
17138TIP3    H172829   4.315   5.580   3.971 -1.5830  1.5511 -0.1101
17138TIP3    H272830   4.223   5.465   4.009  1.6778 -1.2694 -0.2679
17139TIP3   OH272831   5.213   0.161   4.715  0.6183  0.2437  0.3813
17139TIP3    H172832   5.270   0.084   4.722  0.7184  0.3930  1.3167
17139TIP3    H272833   5.272   0.233   4.694  1.3449  1.0143  4.3358
17140TIP3   OH272834   4.772   0.607  11.594 -0.0638  0.0080  0.5341
17140TIP3    H172835   4.680   0.625  11.613 -0.0484 -1.0399  1.6805
17140TIP3    H272836   4.819   0.637  11.671  0.3347 -1.3152  0.8347
17141TIP3   OH272837   5.253   6.199  12.072  0.0997  0.0096  0.0848
17141TIP3    H172838   5.314   6.137  12.113  0.1909 -1.1536 -1.6990
17141TIP3    H272839   5.176   6.147  12.052  0.1068  0.4933 -1.2983
17142TIP3   OH272840   5.843   2.982  13.561  0.5568 -0.2892  0.2326
17142TIP3    H172841   5.762   3.033  13.554  0.6632 -0.2137 -0.5301
17142TIP3    H272842   5.899   3.035  13.619  0.1257 -0.2665  0.6398
17143TIP3   OH272843   1.701   5.233   4.590 -0.4680 -0.1030 -0.3166
17143TIP3    H172844   1.743   5.209   4.673  2.4873 -1.8631 -2.1344
17143TIP3    H272845   1.655   5.153   4.563  1.1614 -0.6374 -1.7237
17144TIP3   OH272846   5.602   5.715  13.749 -0.3937 -0.3929  0.5417
17144TIP3    H172847   5.553   5.636  13.728  0.9005 -0.6569 -1.7489
17144TIP3    H272848   5.536   5.776  13.781 -1.3934 -2.4284  2.6824
17145TIP3   OH272849   2.900   3.597   4.886  0.3152 -0.4812  0.1459
17145TIP3    H172850   2.953   3.527   4.847 -1.7183 -3.4032  2.1302
17145TIP3    H272851   2.937   3.611   4.973  0.8368  1.1686 -0.3071
17146TIP3   OH272852   4.783   6.114  13.582 -0.3504 -0.1706  0.2842
17146TIP3    H172853   4.861   6.169  13.584 -1.5838  1.6406  1.6220
17146TIP3    H272854   4.797   6.055  13.507  2.9623 -1.0426  1.4339
17147TIP3   OH272855   2.756   5.850   2.643 -0.2385 -0.3638  0.2844
17147TIP3    H172856   2.797   5.798   2.712  2.3158 -0.0884 -0.8884
17147TIP3    H272857   2.665   5.821   2.642 -0.2156 -0.8466  3.2597
17148TIP3   OH272858   4.062   1.926   4.262  0.3338  0.4263 -0.1987
17148TIP3    H172859   4.134   1.906   4.322 -0.3338 -0.0861  0.4539
17148TIP3    H272860   4.028   1.841   4.235 -0.1817  0.6629 -0.3137
17149TIP3   OH272861   4.163   0.986  12.389 -0.0267  0.6120 -0.1307
17149TIP3    H172862   4.174   1.018  12.478  0.9143  1.6504 -0.5966
17149TIP3    H272863   4.205   0.900  12.390 -0.2679  0.4948  0.4850
17150TIP3   OH272864   3.611   5.129   0.372 -0.4625  0.0160 -0.0840
17150TIP3    H172865   3.619   5.225   0.369 -2.4761  0.2673  1.0747
17150TIP3    H272866   3.654   5.104   0.454 -0.4407 -0.0077 -0.1025
17151TIP3   OH272867   3.085   1.800   3.690  0.1418 -0.3501 -0.5503
17151TIP3    H172868   3.060   1.854   3.765  0.8205 -1.0931  0.2465
17151TIP3    H272869   3.157   1.847   3.649  1.8873 -1.3869  1.1480
17152TIP3   OH272870   1.416   0.333   5.238  0.2709 -0.2713  0.2103
17152TIP3    H172871   1.492   0.340   5.181 -0.2032  1.2254 -0.3040
17152TIP3    H272872   1.351   0.286   5.186  0.7110 -1.2562  0.5283
17153TIP3   OH272873   5.358   3.740  10.385 -0.2651 -0.0501 -0.5417
17153TIP3    H172874   5.308   3.694  10.452 -0.5237  1.6384  0.4912
17153TIP3    H272875   5.392   3.818  10.430  0.9025  0.3076 -1.9654
17154TIP3   OH272876   0.462   0.153  15.119 -0.3636 -0.6584 -0.8485
17154TIP3    H172877   0.454   0.196  15.204  0.5599  0.2437 -1.2063
17154TIP3    H272878   0.421   0.068  15.132  0.0813 -0.6786  0.6019
17155TIP3   OH272879   2.389   4.488  14.592 -0.3198  0.5677  0.8785
17155TIP3    H172880   2.336   4.424  14.640 -2.3804  0.3276 -1.4980
17155TIP3    H272881   2.445   4.435  14.535  1.5387  0.8647  2.3249
17156TIP3   OH272882   6.211   1.544  14.691 -0.4149  0.3977 -0.0006
17156TIP3    H172883   6.174   1.475  14.636  0.4713  0.1485 -0.2979
17156TIP3    H272884   6.220   1.504  14.777  0.1466  0.1204 -0.1853
17157TIP3   OH272885   2.190   5.657  11.570  0.0406 -0.4583  0.2528
17157TIP3    H172886   2.261   5.593  11.579 -0.3467 -0.8961  0.2325
17157TIP3    H272887   2.146   5.655  11.655  0.7237  0.6320  0.6546
17158TIP3   OH272888   3.619   6.045   5.076  0.3480 -0.4249 -0.3035
17158TIP3    H172889   3.546   5.996   5.114  0.9156  0.0484  1.5043
17158TIP3    H272890   3.577   6.109   5.018 -0.5462 -1.3724 -0.7331
17159TIP3   OH272891   2.421   6.591  13.279 -0.3702  0.2268  0.0715
17159TIP3    H172892   2.339   6.637  13.266 -1.2007 -1.0127  0.7093
17159TIP3    H272893   2.408   6.540  13.359 -0.4053 -2.9193 -1.7718
17160TIP3   OH272894   4.065   1.833   0.410  0.1606  0.0443  0.0546
17160TIP3    H172895   4.117   1.771   0.460  0.1426 -1.5704 -1.8272
17160TIP3    H272896   4.109   1.917   0.422  2.8549 -1.1233 -0.9060
17161TIP3   OH272897   2.447   4.400   1.117  0.4818 -0.2968 -0.0708
17161TIP3    H172898   2.484   4.468   1.060  1.2288 -1.7957 -1.4346
17161TIP3    H272899   2.448   4.320   1.064 -0.4124 -1.3921  1.4750
17162TIP3   OH272900   2.633   4.469  17.121 -0.3774  0.6147 -0.2176
17162TIP3    H172901   2.625   4.422  17.204 -1.0075 -2.1326 -1.6943
17162TIP3    H272902   2.565   4.537  17.124 -3.2870 -2.0893 -0.0064
17163TIP3   OH272903   0.060   6.406  15.267 -0.4453 -0.0372  0.1280
17163TIP3    H172904   0.032   6.316  15.280 -2.1494  0.4158 -0.2463
17163TIP3    H272905   0.021   6.432  15.184 -2.9169  2.1049  1.7969
17164TIP3   OH272906   0.389   0.860  14.737  0.1294 -0.0763  0.0116
17164TIP3    H172907   0.412   0.948  14.766 -0.0172  0.3375 -1.0750
17164TIP3    H272908   0.300   0.846  14.768  0.6912 -0.4832  1.5619
17165TIP3   OH272909   2.596   4.198  13.709  0.1572  0.6068 -0.3909
17165TIP3    H172910   2.585   4.292  13.723 -0.8702  0.4112  0.1783
17165TIP3    H272911   2.549   4.181  13.627 -0.0150  0.5206 -0.2747
17166TIP3   OH272912   2.355   2.898  14.206 -0.4062 -0.5367 -0.4088
17166TIP3    H172913   2.440   2.856  14.192 -0.9188 -1.3075 -1.3563
17166TIP3    H272914   2.323   2.917  14.118 -0.2517  1.7753 -0.0153
17167TIP3   OH272915   0.862   3.447   4.516 -0.0269  0.4489 -0.1149
17167TIP3    H172916   0.814   3.378   4.470  0.1445  0.4896 -0.3604
17167TIP3    H272917   0.844   3.526   4.465  1.0558  0.2943 -0.7733
17168TIP3   OH272918   1.827   4.833   5.871 -0.7787  0.3345 -0.4604
17168TIP3    H172919   1.773   4.895   5.920 -1.8644  0.6455 -1.9867
17168TIP3    H272920   1.769   4.798   5.804 -0.4274 -2.9138  0.7423
17169TIP3   OH272921   5.174   2.711  15.053 -0.2367 -0.5153  0.0982
17169TIP3    H172922   5.105   2.740  15.113 -0.0641  0.5530 -0.2151
17169TIP3    H272923   5.238   2.782  15.053 -0.3951 -0.3404 -1.6202
17170TIP3   OH272924   1.776   4.365  12.963 -0.4262 -0.4267 -0.4225
17170TIP3    H172925   1.711   4.309  13.005 -1.1118 -0.6632 -1.7568
17170TIP3    H272926   1.728   4.441  12.933 -0.3115 -1.0045 -2.2103
17171TIP3   OH272927   1.647   1.963  13.019  0.1264  0.7244 -0.2369
17171TIP3    H172928   1.731   2.006  13.002  0.8578 -1.0353 -1.3331
17171TIP3    H272929   1.591   2.032  13.052  2.0788  1.9157  0.7555
17172TIP3   OH272930   2.330   1.172   4.329  0.0441  0.1302  0.0958
17172TIP3    H172931   2.407   1.219   4.296 -0.1029  0.3698  0.0951
17172TIP3    H272932   2.349   1.160   4.423 -0.6964  1.7593  0.4962
17173TIP3   OH272933   5.307   0.705   5.019 -0.5016  0.6560  0.0722
17173TIP3    H172934   5.227   0.653   5.019 -1.0206  1.4207  0.8161
17173TIP3    H272935   5.298   0.762   5.096  0.1406  1.6999 -0.6112
17174TIP3   OH272936   5.081   5.058   1.709  0.1070  0.6000  0.0729
17174TIP3    H172937   5.091   5.111   1.630 -2.2122 -0.5390 -1.0735
17174TIP3    H272938   4.995   5.016   1.699  1.1712 -2.2006  1.5989
17175TIP3   OH272939   3.381   4.597   1.538  0.3019 -0.2781 -0.4968
17175TIP3    H172940   3.338   4.542   1.603  0.1897  0.1069 -0.2403
17175TIP3    H272941   3.311   4.653   1.504  0.5511  0.2107 -0.2216
17176TIP3   OH272942   3.356   1.525   2.999 -0.6441  0.1191  0.0155
17176TIP3    H172943   3.410   1.592   2.956 -0.8317  0.2555 -0.0078
17176TIP3    H272944   3.416   1.452   3.013 -0.7532 -0.2248 -1.1551
17177TIP3   OH272945   6.794   3.024  11.503  0.1810 -0.2795  0.4669
17177TIP3    H172946   6.820   2.934  11.483  0.4114 -0.1888  0.3583
17177TIP3    H272947   6.780   3.064  11.417  1.0330  0.0700  0.4872
17178TIP3   OH272948   6.781   3.547  15.431  0.2346  0.2493 -0.0098
17178TIP3    H172949   6.831   3.470  15.404 -0.4586 -0.5758  0.9735
17178TIP3    H272950   6.689   3.520  15.424 -0.0784  1.5339 -1.1887
17179TIP3   OH272951   1.174   4.421   0.504  0.5132 -0.6208  0.2043
17179TIP3    H172952   1.148   4.416   0.596 -0.2569  0.1331  0.0378
17179TIP3    H272953   1.111   4.367   0.458 -0.9295  1.2956 -0.2124
17180TIP3   OH272954   2.082   4.102  12.348 -0.0617 -0.1507 -0.6109
17180TIP3    H172955   2.130   4.183  12.366  2.0647 -0.8886 -2.5337
17180TIP3    H272956   2.120   4.038  12.408  0.9830 -0.5774 -1.6849
17181TIP3   OH272957   2.635   0.892  15.604  0.0619  0.2859  0.1245
17181TIP3    H172958   2.719   0.866  15.643  0.3381  0.3509 -0.4228
17181TIP3    H272959   2.650   0.890  15.510 -0.0875  1.8298  0.0447
17182TIP3   OH272960   3.555   0.974   6.746  0.0934 -0.2455 -0.2036
17182TIP3    H172961   3.622   0.918   6.708  1.0586  0.2043  0.7941
17182TIP3    H272962   3.473   0.928   6.729  0.5981 -0.5860 -1.8268
17183TIP3   OH272963   2.113   2.213  12.894  0.5575 -0.1200  0.3060
17183TIP3    H172964   2.086   2.288  12.946 -1.7534 -0.1175 -0.8126
17183TIP3    H272965   2.159   2.251  12.819 -2.2012  0.3997 -1.2273
17184TIP3   OH272966   2.585   2.675  17.030  0.2084 -0.3711  0.4191
17184TIP3    H172967   2.559   2.701  16.942 -0.0089  1.5400  1.0061
17184TIP3    H272968   2.528   2.601  17.052 -0.2481 -0.3742 -0.7502
17185TIP3   OH272969   3.640   0.971   2.866  0.0166 -0.7840  0.7389
17185TIP3    H172970   3.597   0.886   2.867  1.4064 -1.5819 -0.7665
17185TIP3    H272971   3.723   0.957   2.911  1.2515 -0.8955 -1.4091
17186TIP3   OH272972   6.010   2.808  13.703 -0.6453  0.4563  0.1191
17186TIP3    H172973   5.943   2.835  13.640  1.3163  0.7407 -1.9896
17186TIP3    H272974   5.961   2.772  13.777 -3.0894  0.2074 -1.5203
17187TIP3   OH272975   0.240   2.890   0.990 -0.3865  0.0592 -0.4624
17187TIP3    H172976   0.333   2.877   0.970 -0.2151  1.0625 -0.3574
17187TIP3    H272977   0.219   2.819   1.051  0.7060  0.6703  0.6788
17188TIP3   OH272978   2.425   6.313   5.034 -0.4931 -0.0019 -0.2380
17188TIP3    H172979   2.353   6.304   4.971 -1.5961 -0.8122  1.0703
17188TIP3    H272980   2.383   6.344   5.114  0.0893 -3.0056  1.3882
17189TIP3   OH272981   3.132   4.505  13.060 -0.0891 -0.0410  0.1080
17189TIP3    H172982   3.117   4.536  13.150 -0.5358  0.8043 -0.2409
17189TIP3    H272983   3.171   4.418  13.071 -0.9394 -0.3250  1.1217
17190TIP3   OH272984   0.705   2.644   2.853 -0.2174  0.2766  0.2569
17190TIP3    H172985   0.626   2.596   2.880 -1.0476  1.0473 -0.7317
17190TIP3    H272986   0.674   2.733   2.835  0.5446  0.1770 -1.7875
17191TIP3   OH272987   0.494   2.795   0.320  0.5571 -0.2028  0.0552
17191TIP3    H172988   0.521   2.705   0.303  1.9431 -0.3552  2.5655
17191TIP3    H272989   0.531   2.845   0.247  1.0215 -1.4674 -0.6066
17192TIP3   OH272990   2.316   1.355   0.057 -0.2606  0.1569  0.1481
17192TIP3    H172991   2.274   1.403   0.128 -2.1826 -2.1374  0.7007
17192TIP3    H272992   2.248   1.348  -0.011  0.2447 -0.9432 -0.2746
17193TIP3   OH272993   1.843   6.718   4.657  0.3856 -0.0305  0.8116
17193TIP3    H172994   1.871   6.772   4.731 -1.0107  1.5978  0.2399
17193TIP3    H272995   1.898   6.640   4.661  3.0166  1.7216  1.2787
17194TIP3   OH272996   6.157   3.630   6.053 -0.3408 -0.4268 -0.5257
17194TIP3    H172997   6.072   3.591   6.035 -0.2847 -0.8662  0.1263
17194TIP3    H272998   6.149   3.720   6.023 -0.3285 -1.0418 -2.4772
17195TIP3   OH272999   6.798   1.872  13.247 -0.2952 -0.1520  0.5843
17195TIP3    H173000   6.786   1.902  13.337 -1.9654  1.7739 -0.1982
17195TIP3    H273001   6.709   1.864  13.212  0.3458  0.8034 -1.3854
17196TIP3   OH273002   1.794   2.093   2.452 -0.5913  0.5348 -0.3747
17196TIP3    H173003   1.766   2.063   2.366 -1.5226 -1.6056  0.6001
17196TIP3    H273004   1.889   2.079   2.452 -0.6350  0.2040 -0.9358
17197TIP3   OH273005   4.514   5.513   2.655  0.4725 -0.2414 -0.2225
17197TIP3    H173006   4.446   5.574   2.684 -0.4562 -1.6014  0.5153
17197TIP3    H273007   4.594   5.545   2.698 -0.4085 -0.7626  1.9250
17198TIP3   OH273008   4.149   2.357  13.927 -0.9193  0.0085 -0.2565
17198TIP3    H173009   4.189   2.419  13.864 -0.2589  1.7461  1.7488
17198TIP3    H273010   4.198   2.372  14.008 -2.5450 -1.2776  1.0045
17199TIP3   OH273011   4.628   0.700  11.959 -0.1865  0.6550  0.1611
17199TIP3    H173012   4.561   0.651  12.007  0.4657 -0.5380 -0.1068
17199TIP3    H273013   4.672   0.752  12.026  1.1881 -1.5295  1.0605
17200TIP3   OH273014   0.982   3.510  12.354  0.9541 -0.2946  0.2651
17200TIP3    H173015   1.049   3.504  12.423  0.8009  0.1415  0.4551
17200TIP3    H273016   0.900   3.525  12.402  1.0585  1.6191 -0.0671
17201TIP3   OH273017   6.596   2.961  15.901  0.4076  0.2115  0.2098
17201TIP3    H173018   6.617   2.880  15.946 -2.5581  0.6969  2.9002
17201TIP3    H273019   6.527   2.937  15.839  0.7252  0.4162 -0.2261
17202TIP3   OH273020   1.994   4.089   5.190 -0.2582 -0.1036 -0.0024
17202TIP3    H173021   2.076   4.133   5.212 -0.5150  1.2224 -1.5460
17202TIP3    H273022   1.957   4.064   5.274  0.1270  2.2435  0.9422
17203TIP3   OH273023   4.045   4.050   2.723 -0.1846  0.0630 -0.5977
17203TIP3    H173024   4.073   4.110   2.654 -0.2376 -0.5477 -1.1676
17203TIP3    H273025   3.954   4.074   2.739  0.6875  2.2843  1.5125
17204TIP3   OH273026   2.517   0.422  14.512 -0.0631 -0.8940  0.0686
17204TIP3    H173027   2.458   0.447  14.441  1.4691  2.4119 -0.2784
17204TIP3    H273028   2.600   0.400  14.468  0.5599  0.0423  0.7265
17205TIP3   OH273029   1.250   6.091  13.812 -0.1650 -0.0548  0.4566
17205TIP3    H173030   1.215   6.068  13.725  1.1654 -0.0043 -0.1115
17205TIP3    H273031   1.220   6.181  13.826  0.1818  0.1788 -0.2617
17206TIP3   OH273032   1.811   3.853  13.012  0.2260 -0.2356  0.4981
17206TIP3    H173033   1.890   3.888  12.971  0.6283 -0.2408  1.2546
17206TIP3    H273034   1.810   3.892  13.099  0.4592 -1.7636  1.2103
17207TIP3   OH273035   0.100   2.538   2.654  0.2892  0.2260  0.8749
17207TIP3    H173036   0.147   2.622   2.651  0.8038 -0.0634  0.7156
17207TIP3    H273037   0.160   2.479   2.700  0.8159 -0.6133 -0.8389
17208TIP3   OH273038   0.927   1.927   4.807  1.0179  0.1503  0.6693
17208TIP3    H173039   0.914   1.983   4.883  1.1334 -0.5598  1.2175
17208TIP3    H273040   1.020   1.902   4.811  0.9613 -0.1009  0.4374
17209TIP3   OH273041   2.831   4.421   5.877 -0.0783  0.3319 -0.0755
17209TIP3    H173042   2.763   4.429   5.945  1.3338  2.5860  1.2107
17209TIP3    H273043   2.793   4.363   5.812 -2.6313  0.2779  1.3241
17210TIP3   OH273044   0.877   6.656   0.454  0.3991  0.0083 -0.4200
17210TIP3    H173045   0.880   6.586   0.519 -0.1491  0.0873 -0.3047
17210TIP3    H273046   0.931   6.726   0.492  1.5222 -0.6061 -0.8530
17211TIP3   OH273047   4.903   6.383   2.816 -0.0199 -0.0201 -0.6745
17211TIP3    H173048   4.972   6.408   2.878  0.4902 -0.6429 -0.9748
17211TIP3    H273049   4.943   6.313   2.763 -1.2985 -1.2281 -0.0827
17212TIP3   OH273050   0.631   5.617  13.446  0.1176  0.1665 -0.2013
17212TIP3    H173051   0.678   5.550  13.495  0.5397  0.4094 -0.2655
17212TIP3    H273052   0.667   5.700  13.478  1.7850  0.3102 -2.2470
17213TIP3   OH273053   5.916   6.381  16.490  0.8019  1.1774 -0.8064
17213TIP3    H173054   5.979   6.311  16.477 -1.3172 -1.1578  0.6891
17213TIP3    H273055   5.854   6.372  16.417 -0.2499  0.5126  0.1275
17214TIP3   OH273056   3.093   5.784   4.343 -0.3518  0.5697  0.3601
17214TIP3    H173057   3.101   5.726   4.419  0.9438  1.2520  0.7702
17214TIP3    H273058   3.153   5.856   4.362  4.3236 -1.7451 -3.6484
17215TIP3   OH273059   2.959   3.715   5.137 -0.0638  0.6118  0.0747
17215TIP3    H173060   2.942   3.788   5.197 -0.6923  1.1502 -0.7371
17215TIP3    H273061   3.016   3.656   5.186  0.4633  1.6569  0.7463
17216TIP3   OH273062   6.408   5.394  16.413 -0.0378  0.0126  0.1568
17216TIP3    H173063   6.354   5.470  16.434 -0.7862 -0.6249  0.5785
17216TIP3    H273064   6.390   5.377  16.320  1.1703  1.1481 -0.3319
17217TIP3   OH273065   1.829   2.345   2.813  0.2749 -1.0076  0.2144
17217TIP3    H173066   1.891   2.409   2.848 -1.3266  0.6965  0.0725
17217TIP3    H273067   1.750   2.357   2.865 -0.2506 -2.5355 -0.1788
17218TIP3   OH273068   2.605   0.116  12.837  0.1609 -0.3318  0.1556
17218TIP3    H173069   2.560   0.143  12.916  0.6069 -1.5812  0.8632
17218TIP3    H273070   2.687   0.166  12.837 -0.1759  0.2220  0.0859
17219TIP3   OH273071   0.581   5.618   3.342  0.3348 -0.8705  0.0283
17219TIP3    H173072   0.574   5.666   3.424  0.5714 -0.4721 -0.1884
17219TIP3    H273073   0.577   5.685   3.274 -0.5557 -1.2492 -0.3166
17220TIP3   OH273074   2.476   1.591   5.115  0.0851 -0.6828  0.5063
17220TIP3    H173075   2.392   1.617   5.152 -0.1899 -1.5188  0.4917
17220TIP3    H273076   2.537   1.661   5.141 -0.4725 -0.3999  1.0658
17221TIP3   OH273077   1.723   0.876   5.523  0.2797 -0.2240  0.7489
17221TIP3    H173078   1.802   0.835   5.488  1.7485  2.2844  0.8515
17221TIP3    H273079   1.703   0.947   5.461 -1.1506 -0.0001  1.4128
17222TIP3   OH273080   2.828   4.872   5.898  0.1621  0.1083 -0.4077
17222TIP3    H173081   2.808   4.798   5.956 -0.4602 -0.8074 -1.7401
17222TIP3    H273082   2.838   4.947   5.957  1.2629 -1.1118  1.0246
17223TIP3   OH273083   2.360   2.421   5.958 -0.0535  0.1467 -0.4166
17223TIP3    H173084   2.283   2.373   5.988  0.5891 -0.3408  0.5180
17223TIP3    H273085   2.384   2.476   6.033 -0.5465  1.6738 -1.3266
17224TIP3   OH273086   3.800   3.979   4.811 -0.3519  0.1440 -0.4214
17224TIP3    H173087   3.889   4.015   4.804  0.2782 -1.2488  0.0565
17224TIP3    H273088   3.755   4.012   4.734  0.2862  1.6532 -0.1882
17225TIP3   OH273089   0.922   5.026   3.983  0.4125 -0.5752  0.1302
17225TIP3    H173090   0.946   4.935   3.964 -0.1512 -0.6034 -0.5132
17225TIP3    H273091   0.953   5.075   3.907  2.4856  0.1011  1.3580
17226TIP3   OH273092   1.523   3.931   4.047  0.0525  0.5026 -0.4021
17226TIP3    H173093   1.542   3.837   4.040 -0.0276  0.4236  0.3606
17226TIP3    H273094   1.609   3.973   4.052  0.0780  0.4159 -0.1136
17227TIP3   OH273095   4.519   0.540  14.970 -0.7521 -0.0877 -0.6230
17227TIP3    H173096   4.599   0.488  14.976  0.1967  1.4941  2.2477
17227TIP3    H273097   4.536   0.604  14.901  0.3114 -0.0067 -0.2912
17228TIP3   OH273098   6.292   0.167   3.767 -0.4338 -0.4203 -0.2109
17228TIP3    H173099   6.306   0.251   3.811  0.6958 -1.9947  2.7322
17228TIP3    H273100   6.380   0.138   3.742 -0.7776 -0.9115 -0.8960
17229TIP3   OH273101   4.554   6.141   0.572 -0.0368 -0.4726  0.5808
17229TIP3    H173102   4.588   6.219   0.528 -0.0759  0.5074  2.1651
17229TIP3    H273103   4.581   6.068   0.518  1.1884  0.5602 -0.2544
17230TIP3   OH273104   4.311   4.304   1.478 -0.2250 -0.1608  0.1619
17230TIP3    H173105   4.342   4.215   1.495  1.0959  0.4439  1.1063
17230TIP3    H273106   4.327   4.351   1.561 -1.8970  0.6914  0.0335
17231TIP3   OH273107   5.599   3.091  13.635  0.0005 -0.3908 -0.0528
17231TIP3    H173108   5.593   3.186  13.631  0.5575 -0.3881 -1.5729
17231TIP3    H273109   5.601   3.071  13.729 -1.2741  0.9919  0.3142
17232TIP3   OH273110   1.561   2.025  12.277 -0.6289 -0.8640 -0.5639
17232TIP3    H173111   1.472   2.032  12.243 -0.5238  0.6668 -0.5747
17232TIP3    H273112   1.599   1.951  12.228 -1.7287 -1.2253 -0.8958
17233TIP3   OH273113   5.565   3.324   5.943  0.2773  0.3872 -0.2383
17233TIP3    H173114   5.646   3.281   5.973 -0.4225 -2.0565 -1.5456
17233TIP3    H273115   5.565   3.408   5.987  3.2490  0.2406  0.2717
17234TIP3   OH273116   2.313   1.164   3.322 -0.3736  0.2860  0.1205
17234TIP3    H173117   2.260   1.244   3.314  2.7462  2.7010  1.3030
17234TIP3    H273118   2.286   1.110   3.248 -3.4240  1.9100 -0.1172
17235TIP3   OH273119   0.155   3.450   5.036 -0.6753 -0.1334  0.5401
17235TIP3    H173120   0.203   3.525   5.002  1.5187 -1.7035 -0.0506
17235TIP3    H273121   0.147   3.466   5.130  0.6292  0.3809  0.5767
17236TIP3   OH273122   4.513   5.950   5.340  0.4236  0.3522 -0.4293
17236TIP3    H173123   4.439   5.997   5.302 -0.7017 -2.4989 -2.0967
17236TIP3    H273124   4.564   6.017   5.385 -1.4561  2.9627 -1.9371
17237TIP3   OH273125   3.446   2.450  12.286  0.2212 -0.1853 -0.1033
17237TIP3    H173126   3.475   2.361  12.268  0.5388  0.1408 -1.2965
17237TIP3    H273127   3.482   2.470  12.372 -0.0461 -1.2789  0.2780
17238TIP3   OH273128   2.679   2.501   4.352 -0.1244 -0.0910 -0.1524
17238TIP3    H173129   2.600   2.552   4.368 -0.5400 -0.9448  0.5417
17238TIP3    H273130   2.742   2.533   4.417  1.1583  2.6492 -2.4642
17239TIP3   OH273131   2.798   1.566   0.495 -0.3493 -1.0818 -0.2481
17239TIP3    H173132   2.767   1.486   0.537  0.9037 -1.6978 -0.4661
17239TIP3    H273133   2.743   1.574   0.417 -1.9351 -0.5297  0.8621
17240TIP3   OH273134   2.379   5.103  12.186  0.5346  0.1122 -0.0364
17240TIP3    H173135   2.312   5.100  12.254  2.1608  0.4113  1.6648
17240TIP3    H273136   2.410   5.013  12.179 -1.3602 -0.4485 -2.2951
17241TIP3   OH273137   4.106   5.932   3.412 -0.6061 -0.5107 -0.1439
17241TIP3    H173138   4.152   6.003   3.367 -0.6682  0.1991  0.8687
17241TIP3    H273139   4.092   5.866   3.345  1.3444 -0.4797 -0.6450
17242TIP3   OH273140   5.422   5.060  16.571  0.6413  0.6023 -0.0277
17242TIP3    H173141   5.445   5.136  16.626  1.1740  1.1361 -0.9711
17242TIP3    H273142   5.432   5.091  16.482 -0.2327 -0.2635 -0.4393
17243TIP3   OH273143   1.423   3.407  12.705  0.4531  0.0059 -0.9193
17243TIP3    H173144   1.445   3.344  12.637  0.8760 -0.9356  0.0543
17243TIP3    H273145   1.339   3.444  12.678 -0.0726 -1.3867 -1.2470
17244TIP3   OH273146   5.602   3.187  12.195 -0.1565  0.2226 -0.2330
17244TIP3    H173147   5.692   3.198  12.163  0.0034  0.7764  0.3712
17244TIP3    H273148   5.575   3.276  12.221 -0.9366  0.0877 -0.5486
17245TIP3   OH273149   2.863   0.092  16.513 -0.4916 -0.2010  0.6472
17245TIP3    H173150   2.868   0.173  16.463 -2.2182 -0.1511  0.4734
17245TIP3    H273151   2.803   0.112  16.586 -0.9761 -1.3025  0.5804
17246TIP3   OH273152   6.026   4.120   4.230  0.1102  0.3210 -0.5660
17246TIP3    H173153   6.107   4.140   4.276 -0.4897  0.3369  0.5045
17246TIP3    H273154   6.052   4.113   4.138  1.0891  1.6759 -0.4204
17247TIP3   OH273155   4.909   2.955   5.544  0.9276  0.1586  0.7616
17247TIP3    H173156   4.819   2.964   5.575  1.3170  1.3557  1.5954
17247TIP3    H273157   4.903   2.967   5.450  0.1350 -0.4296  0.7258
17248TIP3   OH273158   5.534   6.264  15.010  0.4254  0.6392  0.3582
17248TIP3    H173159   5.502   6.314  15.085 -0.0490 -0.2375  0.7557
17248TIP3    H273160   5.619   6.230  15.037 -0.5720 -1.2865  1.2829
17249TIP3   OH273161   2.039   6.322   5.657  0.1811 -0.3769 -0.3031
17249TIP3    H173162   1.998   6.397   5.700  0.1818  0.0440 -1.0215
17249TIP3    H273163   2.043   6.347   5.565  0.0436 -1.3279 -0.5719
17250TIP3   OH273164   6.144   0.924  15.280 -0.6124 -0.1276  0.0028
17250TIP3    H173165   6.090   0.858  15.323  2.1270 -1.8536  1.0599
17250TIP3    H273166   6.150   0.894  15.189 -1.9354  0.4632 -0.2934
17251TIP3   OH273167   1.465   4.303   0.971  0.1466 -0.5393  0.4001
17251TIP3    H173168   1.548   4.317   1.016  0.3311 -1.4110  0.3360
17251TIP3    H273169   1.408   4.265   1.038 -0.2069  0.0470  0.4426
17252TIP3   OH273170   1.288   4.725   1.750 -0.3977  0.5760  0.0966
17252TIP3    H173171   1.198   4.723   1.781 -0.2407 -3.3643  0.7746
17252TIP3    H273172   1.337   4.669   1.810  1.6974 -0.4908 -2.3815
17253TIP3   OH273173   5.634   5.931   1.485 -0.3967  0.6356  0.1145
17253TIP3    H173174   5.687   5.892   1.415  0.3510  2.0857 -0.1685
17253TIP3    H273175   5.604   5.856   1.537  1.8765 -0.2692  0.2438
17254TIP3   OH273176   3.258   1.799   5.439  0.5489 -0.3810 -0.0593
17254TIP3    H173177   3.306   1.765   5.363  1.0604  2.0166 -0.8887
17254TIP3    H273178   3.316   1.782   5.513  2.1195  1.1742 -0.8501
17255TIP3   OH273179   2.560   5.006  14.169 -0.3445  0.8132  0.1894
17255TIP3    H173180   2.479   4.979  14.126 -0.0585  0.1181  0.0658
17255TIP3    H273181   2.532   5.042  14.253 -0.9187  2.3325 -0.6235
17256TIP3   OH273182   6.569   5.706  12.872 -0.3253 -0.3684  0.3908
17256TIP3    H173183   6.591   5.746  12.788 -1.9882  1.4871  0.7780
17256TIP3    H273184   6.652   5.670  12.904  0.7369  0.6452 -1.1102
17257TIP3   OH273185   1.590   0.087   3.433  0.3667  0.6851  0.6302
17257TIP3    H173186   1.666   0.031   3.417 -1.6598 -1.6971 -1.6545
17257TIP3    H273187   1.557   0.060   3.518  0.9656  0.3622  0.7636
17258TIP3   OH273188   4.711   1.123  11.193  0.5110 -0.4770  0.1493
17258TIP3    H173189   4.766   1.050  11.222  0.6468 -0.4451 -0.0283
17258TIP3    H273190   4.773   1.188  11.159  0.6527  0.9182  2.8264
17259TIP3   OH273191   1.951   2.063  14.143  0.0360  0.3182 -0.0000
17259TIP3    H173192   1.943   2.093  14.233  0.3953  0.2729  0.0475
17259TIP3    H273193   1.873   2.009  14.129  1.7388 -2.8323  1.5105
17260TIP3   OH273194   4.239   6.380   1.914  0.2503  0.5490 -0.1102
17260TIP3    H173195   4.334   6.381   1.901  0.2389 -0.0901 -0.2770
17260TIP3    H273196   4.203   6.356   1.828  0.0935 -2.0415  0.6018
17261TIP3   OH273197   2.385   5.266   0.749 -0.0483  0.3144  0.1717
17261TIP3    H173198   2.450   5.196   0.743 -1.3500 -0.8635 -0.6982
17261TIP3    H273199   2.380   5.302   0.661  0.7328  1.6776  0.6481
17262TIP3   OH273200   3.603   6.689  14.875  0.3825  0.7643  0.5232
17262TIP3    H173201   3.631   6.607  14.915  1.0792  0.9645  0.4673
17262TIP3    H273202   3.567   6.664  14.790  2.0115  0.6452 -0.1667
17263TIP3   OH273203   5.073   0.419  13.076  0.2290  0.4239 -0.1560
17263TIP3    H173204   5.107   0.399  12.989  1.3045  2.2402 -0.2159
17263TIP3    H273205   5.118   0.358  13.135  0.5180  0.0813 -0.7312
17264TIP3   OH273206   6.443   4.355  12.923 -0.8212 -0.7460 -0.2230
17264TIP3    H173207   6.355   4.368  12.887 -0.0122 -0.1225 -2.0709
17264TIP3    H273208   6.476   4.277  12.879 -0.2413 -0.6529  0.0308
17265TIP3   OH273209   4.404   1.369   1.937  0.2203  0.3155  0.3114
17265TIP3    H173210   4.347   1.317   1.880  0.6362  1.8918 -1.6572
17265TIP3    H273211   4.347   1.437   1.974 -0.1732 -1.0206  2.3302
17266TIP3   OH273212   6.595   6.500   2.436 -0.1290  0.2425  0.5079
17266TIP3    H173213   6.534   6.432   2.465 -0.3737 -1.0076 -2.5366
17266TIP3    H273214   6.682   6.460   2.445 -0.1609  0.0997  0.2180
17267TIP3   OH273215   4.261   1.178   5.984 -0.1188  0.7097  0.0802
17267TIP3    H173216   4.253   1.082   5.988 -0.8053  0.6651 -1.5313
17267TIP3    H273217   4.283   1.204   6.073  0.4297 -0.9817  0.4805
17268TIP3   OH273218   4.397   6.736   2.596 -0.0642  0.4754 -0.4851
17268TIP3    H173219   4.330   6.668   2.605 -1.0441  1.5037  0.3312
17268TIP3    H273220   4.350   6.818   2.611  0.6619  1.5457 -3.3617
17269TIP3   OH273221   0.466   2.172  16.430 -0.3313  0.3962 -0.2995
17269TIP3    H173222   0.450   2.088  16.473 -0.7201  0.6087 -0.0274
17269TIP3    H273223   0.511   2.149  16.348  0.9801  0.0245  0.4889
17270TIP3   OH273224   5.822   0.641   4.794 -0.0455  0.1571 -0.1004
17270TIP3    H173225   5.751   0.668   4.736 -0.6799  0.3861  0.7632
17270TIP3    H273226   5.848   0.722   4.839  0.0512 -0.1297  0.3586
17271TIP3   OH273227   0.737   6.418  16.103  0.4893  0.3331  0.7350
17271TIP3    H173228   0.812   6.398  16.159  0.1144  1.6086  1.7536
17271TIP3    H273229   0.687   6.483  16.152 -1.6668 -0.9668  0.3908
17272TIP3   OH273230   3.551   1.195  10.789 -0.7935 -0.3001  0.1660
17272TIP3    H173231   3.473   1.154  10.828 -0.6079 -0.3845  0.4523
17272TIP3    H273232   3.522   1.225  10.703 -1.2957  0.1607  0.4866
17273TIP3   OH273233   4.384   0.344   2.426 -0.4596  0.1118 -0.9000
17273TIP3    H173234   4.366   0.412   2.490 -0.1219  0.9518 -1.6847
17273TIP3    H273235   4.438   0.280   2.474  1.3124  1.6048 -0.7934
17274TIP3   OH273236   1.325   3.504  12.349 -0.4936 -0.7530 -0.5211
17274TIP3    H173237   1.265   3.579  12.355 -1.1807 -1.3986  1.4100
17274TIP3    H273238   1.411   3.540  12.368 -0.1180  0.2291 -3.5223
17275TIP3   OH273239   3.278   3.534  13.475 -0.2540  0.0667  0.5005
17275TIP3    H173240   3.368   3.564  13.487  0.1033 -1.2122  1.1607
17275TIP3    H273241   3.231   3.566  13.552 -0.1019 -0.2039  0.7079
17276TIP3   OH273242   6.081   1.676  11.351 -0.3269 -0.6302  0.4634
17276TIP3    H173243   6.048   1.595  11.311  1.9514 -1.5459  0.2623
17276TIP3    H273244   6.040   1.746  11.300 -1.3151 -1.6851 -0.2402
17277TIP3   OH273245   0.717   6.199   2.113  0.8824 -0.2136  0.1408
17277TIP3    H173246   0.664   6.265   2.157  1.7612  1.5108 -1.2415
17277TIP3    H273247   0.677   6.115   2.136 -0.8056  0.8553  1.2476
17278TIP3   OH273248   1.680   2.339  13.961  0.2878 -0.5589 -0.1994
17278TIP3    H173249   1.669   2.347  14.056 -1.9743 -0.9772 -0.3787
17278TIP3    H273250   1.680   2.430  13.930 -3.2651 -0.3695 -0.1202
17279TIP3   OH273251   4.657   5.084  16.297 -0.5175  0.0438 -0.6004
17279TIP3    H173252   4.607   5.165  16.309 -2.0554 -0.9444 -0.0525
17279TIP3    H273253   4.641   5.060  16.206 -1.0073 -0.2343 -0.4451
17280TIP3   OH273254   0.561   3.636   1.464 -0.6055 -0.0346 -0.1667
17280TIP3    H173255   0.467   3.619   1.472 -0.6022 -0.4515 -0.8787
17280TIP3    H273256   0.579   3.704   1.528 -1.2883 -0.3416  0.3572
17281TIP3   OH273257   2.843   6.352   3.030  0.1667  0.4405  0.1232
17281TIP3    H173258   2.830   6.434   2.981 -0.5795  0.1674 -0.1480
17281TIP3    H273259   2.784   6.289   2.988  0.7609 -0.2523  0.3039
17282TIP3   OH273260   4.282   5.709  12.681  0.0730  0.2628  0.1934
17282TIP3    H173261   4.311   5.799  12.666 -0.5262  0.5257  0.5889
17282TIP3    H273262   4.188   5.710  12.662 -0.1562 -0.0289  1.2305
17283TIP3   OH273263   0.820   5.876  12.890 -0.3981 -0.1198  0.1304
17283TIP3    H173264   0.809   5.837  12.803 -1.1214  0.1898  0.0751
17283TIP3    H273265   0.800   5.969  12.877 -4.1720 -0.6231  1.2862
17284TIP3   OH273266   5.021   2.023   1.936  0.4872 -0.4803 -0.3814
17284TIP3    H173267   5.040   2.077   2.013 -3.2182  1.2337 -0.4492
17284TIP3    H273268   4.994   2.085   1.869 -2.8192 -2.1830 -0.8652
17285TIP3   OH273269   6.089   4.199  12.097  0.9281 -0.0104  0.2104
17285TIP3    H173270   6.112   4.142  12.024  1.3193 -1.3288  1.3070
17285TIP3    H273271   6.158   4.265  12.098  0.4202  0.5676 -1.1368
17286TIP3   OH273272   1.570   4.824  15.790 -0.2434  0.0435 -0.5363
17286TIP3    H173273   1.552   4.738  15.828  3.4808 -0.0214  1.5726
17286TIP3    H273274   1.621   4.805  15.711  0.6452  0.2798 -0.0301
17287TIP3   OH273275   3.708   3.857   3.334 -0.6560  0.1683  0.3616
17287TIP3    H173276   3.674   3.780   3.289  1.0504 -0.2194 -0.3219
17287TIP3    H273277   3.802   3.840   3.344 -0.2541  2.0953  0.2849
17288TIP3   OH273278   4.866   3.597   2.015  0.0256 -0.1309  0.3945
17288TIP3    H173279   4.901   3.511   1.990  1.9068  0.9139 -0.8572
17288TIP3    H273280   4.939   3.657   2.001 -1.0954  1.6285  1.6936
17289TIP3   OH273281   0.107   5.542   1.277 -0.0119 -0.3510 -0.2392
17289TIP3    H173282   0.168   5.509   1.343  1.4039 -0.1680 -1.4056
17289TIP3    H273283   0.135   5.632   1.261  0.3012 -0.6868 -1.7615
17290TIP3   OH273284   3.489   2.118   4.758  0.0494 -0.2699  0.0337
17290TIP3    H173285   3.404   2.109   4.715 -1.1517  1.1749  1.9266
17290TIP3    H273286   3.470   2.166   4.839  2.4306 -1.3562  1.3490
17291TIP3   OH273287   1.200   3.508  11.029 -0.2450 -0.3713  0.2018
17291TIP3    H173288   1.212   3.578  10.965 -0.5297  1.1455  1.7009
17291TIP3    H273289   1.227   3.547  11.112 -1.4363 -1.6906  1.2788
17292TIP3   OH273290   6.201   3.437  12.688 -0.4657 -0.2134 -0.0651
17292TIP3    H173291   6.228   3.405  12.774  0.4950  0.0342 -0.2554
17292TIP3    H273292   6.110   3.463  12.699  0.1165  1.4208  1.3451
17293TIP3   OH273293   3.859   1.844   1.906  0.0544  0.0278 -0.0428
17293TIP3    H173294   3.927   1.828   1.972  1.5382 -1.5439 -1.8351
17293TIP3    H273295   3.900   1.902   1.842 -0.7700  0.1704 -0.4572
17294TIP3   OH273296   3.152   2.481  14.276 -0.2912  0.1160 -0.5451
17294TIP3    H173297   3.075   2.436  14.312 -2.0537  3.0144 -0.3661
17294TIP3    H273298   3.130   2.494  14.183  1.1397 -1.1957 -1.1012
17295TIP3   OH273299   4.053   3.490  16.537 -0.1222 -0.3815 -0.1263
17295TIP3    H173300   4.142   3.525  16.528 -0.7491  1.1796 -0.6548
17295TIP3    H273301   4.057   3.402  16.501  1.1851 -0.2905 -0.2331
17296TIP3   OH273302   0.535   4.419   2.019  0.0341  0.4466 -0.0849
17296TIP3    H173303   0.495   4.434   1.933 -0.3031  0.8093  0.1268
17296TIP3    H273304   0.524   4.326   2.035 -0.6712  0.5223 -0.0704
17297TIP3   OH273305   3.259   6.800   3.578 -0.6333 -0.4500 -0.3668
17297TIP3    H173306   3.270   6.706   3.591 -0.3923 -0.2382  1.2008
17297TIP3    H273307   3.164   6.813   3.578 -0.6635 -0.6611 -0.2803
17298TIP3   OH273308   2.418   0.712   1.481 -0.0209 -0.3701 -0.4809
17298TIP3    H173309   2.476   0.721   1.556  0.5768  1.9811 -1.1566
17298TIP3    H273310   2.346   0.772   1.499 -1.2393 -1.7451 -0.6085
17299TIP3   OH273311   1.117   1.826  13.460  0.2803  0.2690  0.1971
17299TIP3    H173312   1.044   1.849  13.517 -0.5065 -0.0556 -0.6457
17299TIP3    H273313   1.172   1.769  13.513 -0.1002  0.4875  0.8355
17300TIP3   OH273314   5.750   3.798   0.442  0.4300 -0.2015 -0.1547
17300TIP3    H173315   5.810   3.803   0.367  0.4435 -1.9042 -0.2950
17300TIP3    H273316   5.786   3.859   0.505  2.4223 -1.2412 -0.1925
17301TIP3   OH273317   1.068   0.389   4.703 -0.3122  0.7240 -0.1269
17301TIP3    H173318   1.133   0.428   4.645  0.1721 -2.2461 -1.7590
17301TIP3    H273319   1.088   0.296   4.702 -3.4141 -0.0601  0.8915
17302TIP3   OH273320   0.257   5.097  14.767 -0.3138  0.1639 -0.2819
17302TIP3    H173321   0.263   5.178  14.818 -0.8697 -0.2578  0.4818
17302TIP3    H273322   0.171   5.061  14.790  1.6023 -2.9958  3.0468
17303TIP3   OH273323   5.033   5.326  14.463  0.2363  0.9554  0.2352
17303TIP3    H173324   5.087   5.294  14.391  1.8811  2.5970  0.6307
17303TIP3    H273325   4.963   5.375  14.421  0.7281  1.2255 -0.2867
17304TIP3   OH273326   3.394   6.243   5.032  0.2200 -0.1453 -0.1797
17304TIP3    H173327   3.346   6.241   4.949  0.5337 -0.8918 -0.3544
17304TIP3    H273328   3.327   6.226   5.099  0.1392 -0.6058 -0.3722
17305TIP3   OH273329   0.672   3.433  14.704  0.4895  0.3947  0.3184
17305TIP3    H173330   0.697   3.341  14.696  0.0302  0.0174  2.4059
17305TIP3    H273331   0.599   3.432  14.766  0.6051  2.1846  0.5363
17306TIP3   OH273332   5.421   6.555   3.991  0.1519 -0.1507  0.7484
17306TIP3    H173333   5.473   6.600   3.925  2.7924 -1.0524  2.0767
17306TIP3    H273334   5.457   6.466   3.993 -1.1820 -0.6964  2.0300
17307TIP3   OH273335   3.454   5.984  11.487  0.3665  0.3901  0.0909
17307TIP3    H173336   3.426   6.072  11.461  1.1391  0.3867 -0.7956
17307TIP3    H273337   3.509   5.998  11.564  0.3228  0.6603  0.0736
17308TIP3   OH273338   2.874   3.068  13.373 -0.7332  0.1934  0.6982
17308TIP3    H173339   2.893   3.052  13.280  0.4979 -0.1765  0.9859
17308TIP3    H273340   2.888   3.162  13.384  1.0847 -0.0579  0.8912
17309TIP3   OH273341   1.458   2.801   2.897  0.0097  0.4630  0.2794
17309TIP3    H173342   1.393   2.748   2.851 -0.1770  0.4231  0.5848
17309TIP3    H273343   1.510   2.738   2.947 -0.2136  0.5656  0.6445
17310TIP3   OH273344   5.588   0.950  16.075  0.5349  0.0388  0.1830
17310TIP3    H173345   5.649   1.021  16.096  0.1758 -0.5669  3.8809
17310TIP3    H273346   5.522   0.991  16.019  1.5769  1.9756  0.2770
17311TIP3   OH273347   1.553   5.754   5.733 -0.5419 -0.1230  0.3968
17311TIP3    H173348   1.539   5.699   5.656 -0.4380 -1.5259  1.3545
17311TIP3    H273349   1.474   5.742   5.786  0.4170 -1.1485  1.6676
17312TIP3   OH273350   3.308   2.027  16.161 -0.0192  0.4027 -0.3657
17312TIP3    H173351   3.293   2.122  16.153  1.0291  0.6958  0.8757
17312TIP3    H273352   3.247   1.998  16.228  1.2374  0.6470  0.9237
17313TIP3   OH273353   6.554   3.061  13.905  0.1774 -0.0728  0.1866
17313TIP3    H173354   6.622   3.042  13.969  0.1283  0.4005  0.3806
17313TIP3    H273355   6.527   2.975  13.873  0.3092 -0.3040  0.6884
17314TIP3   OH273356   6.210   5.348  12.521 -0.8690  0.6299 -1.0812
17314TIP3    H173357   6.161   5.425  12.551 -1.2745  0.0507 -0.2176
17314TIP3    H273358   6.250   5.312  12.600 -0.7785 -0.1094 -1.4516
17315TIP3   OH273359   4.189   1.211  11.444 -0.9480  0.4865 -0.5326
17315TIP3    H173360   4.280   1.198  11.471 -0.8836  1.1250 -0.4304
17315TIP3    H273361   4.150   1.123  11.449  0.4607 -0.4641 -3.6756
17316TIP3   OH273362   3.459   2.772   3.932  0.4154 -0.2941  0.2942
17316TIP3    H173363   3.552   2.793   3.940  0.7305 -0.7030 -1.7043
17316TIP3    H273364   3.419   2.852   3.897  0.4830 -0.8476 -1.1401
17317TIP3   OH273365   5.973   2.789   0.340 -0.1961 -0.5194 -0.1931
17317TIP3    H173366   5.935   2.712   0.299 -3.7378  1.7182 -1.6681
17317TIP3    H273367   6.044   2.816   0.282 -1.3043 -0.7252 -1.7037
17318TIP3   OH273368   0.080   0.597   4.214  0.2018  0.4348 -0.9188
17318TIP3    H173369   0.106   0.598   4.122  2.8454  1.9623 -0.2919
17318TIP3    H273370   0.105   0.510   4.245 -0.5592 -0.0312 -1.6048
17319TIP3   OH273371   5.127   1.211  14.455  0.2572  0.3962  0.6104
17319TIP3    H173372   5.052   1.181  14.404 -0.2033  0.3421  1.3043
17319TIP3    H273373   5.121   1.163  14.538  0.2893  1.3663  1.1981
17320TIP3   OH273374   5.501   0.043  15.815 -0.5833  0.1409  0.0739
17320TIP3    H173375   5.518   0.094  15.736 -0.6385 -0.6673 -0.4685
17320TIP3    H273376   5.466  -0.040  15.784  2.5882 -1.6092  0.6971
17321TIP3   OH273377   0.439   1.897  15.020 -0.5297  0.2487  0.1185
17321TIP3    H173378   0.511   1.841  14.988  0.4660  0.5612  1.7229
17321TIP3    H273379   0.474   1.986  15.015 -0.3478  0.3112  1.9911
17322TIP3   OH273380   1.827   1.126  12.968 -0.5651  0.5483  0.2944
17322TIP3    H173381   1.746   1.092  13.007 -0.5097 -2.0814 -1.5632
17322TIP3    H273382   1.797   1.183  12.897 -0.7321  1.1762  0.8595
17323TIP3   OH273383   0.066   6.294   6.009 -0.3813  0.0398 -0.4803
17323TIP3    H173384   0.105   6.233   6.071 -0.6664 -0.3788 -0.7099
17323TIP3    H273385  -0.026   6.269   6.005 -0.0431 -1.1095 -2.4203
17324TIP3   OH273386   0.077   4.252  12.069 -0.5684  0.0619 -0.2727
17324TIP3    H173387   0.029   4.184  12.117  2.0113 -1.0659  0.8898
17324TIP3    H273388   0.127   4.299  12.136 -1.5291  2.5507 -1.1746
17325TIP3   OH273389   3.160   2.225  16.911  0.2794 -0.5123  0.5200
17325TIP3    H173390   3.190   2.312  16.885  0.4397 -1.0558 -1.2504
17325TIP3    H273391   3.070   2.220  16.877  0.6719 -1.4338 -0.4248
17326TIP3   OH273392   5.102   4.734  10.532  0.5318 -0.0678 -0.0456
17326TIP3    H173393   5.012   4.739  10.564  1.1318 -1.0706  1.9100
17326TIP3    H273394   5.131   4.825  10.527 -1.0234  0.4071 -2.2127
17327TIP3   OH273395   5.091   2.724  16.109 -0.0419  0.1192  0.1775
17327TIP3    H173396   5.100   2.785  16.036 -0.3869 -1.2270 -1.0540
17327TIP3    H273397   4.999   2.731  16.136  0.1701  0.8667  0.7335
17328TIP3   OH273398   1.597   2.911   2.371 -0.7207 -0.0039 -0.3612
17328TIP3    H173399   1.595   2.816   2.361  0.3501 -0.4229  2.4360
17328TIP3    H273400   1.557   2.927   2.457  0.5923  1.8875 -0.0223
17329TIP3   OH273401   3.811   4.801  13.937  0.4964  0.0543 -0.3200
17329TIP3    H173402   3.809   4.747  14.016  3.2970  0.8376  0.4178
17329TIP3    H273403   3.770   4.884  13.964  1.8199  0.4706  0.5062
17330TIP3   OH273404   3.446   5.029  16.283 -0.2718  0.0093  0.1813
17330TIP3    H173405   3.539   5.034  16.261 -0.1389  0.7065  0.8250
17330TIP3    H273406   3.401   5.048  16.201  0.1834  1.0339  0.1464
17331TIP3   OH273407   4.094   1.102   3.906 -0.1085 -0.5742 -0.2786
17331TIP3    H173408   4.127   1.089   3.995 -1.0287 -0.3672  0.0977
17331TIP3    H273409   4.105   1.017   3.864  0.8126 -0.5365 -0.1383
17332TIP3   OH273410   5.184   6.674   6.247 -0.4292  0.1510 -0.0534
17332TIP3    H173411   5.277   6.676   6.223 -0.2696  0.7043  0.5886
17332TIP3    H273412   5.174   6.590   6.293 -0.3334 -0.0712 -0.4282
17333TIP3   OH273413   6.585   3.599  12.814 -0.4116 -0.2292  0.4152
17333TIP3    H173414   6.521   3.633  12.876 -0.9263  0.4608 -0.4624
17333TIP3    H273415   6.534   3.542  12.756  0.3877 -2.3203  1.6833
17334TIP3   OH273416   0.975   2.114   4.191  0.1026 -0.7905 -0.5019
17334TIP3    H173417   0.961   2.193   4.137  2.1967  0.8803  1.2316
17334TIP3    H273418   1.000   2.047   4.128 -1.4224 -0.0388 -2.0103
17335TIP3   OH273419   6.120   4.838  10.884  0.2525 -0.3583 -0.7395
17335TIP3    H173420   6.179   4.798  10.948 -0.9810 -0.7687  0.1887
17335TIP3    H273421   6.177   4.892  10.829  1.5007 -0.8719  0.0062
17336TIP3   OH273422   1.101   0.471   4.965  0.1605  0.1264  0.2118
17336TIP3    H173423   1.118   0.394   5.019 -1.0727  0.5706  1.3002
17336TIP3    H273424   1.067   0.435   4.883  0.8269 -0.5211  0.2074
17337TIP3   OH273425   5.985   2.108  14.182  0.4044  0.2901  0.3781
17337TIP3    H173426   5.940   2.193  14.184  1.2869  0.9524 -2.8528
17337TIP3    H273427   5.921   2.048  14.144  0.5167  0.0014  0.6381
17338TIP3   OH273428   4.826   4.964   6.142  0.1523  0.2620  0.1891
17338TIP3    H173429   4.739   4.958   6.181 -0.7560  1.5608 -1.5306
17338TIP3    H273430   4.857   5.052   6.163  1.2011 -0.2647  0.9968
17339TIP3   OH273431   4.680   3.425   5.961  0.3518 -0.6459 -0.0723
17339TIP3    H173432   4.738   3.381   6.023  1.0987  1.4143  0.7793
17339TIP3    H273433   4.731   3.432   5.881  1.3080  1.0249  0.6279
17340TIP3   OH273434   5.445   3.070  15.299 -0.0110 -0.1395  0.1105
17340TIP3    H173435   5.484   2.998  15.250 -0.3369 -0.7176  0.6775
17340TIP3    H273436   5.363   3.034  15.334 -0.6489  0.8046 -0.3804
17341TIP3   OH273437   1.879   1.068   2.181 -0.3931 -0.2302  0.1690
17341TIP3    H173438   1.871   0.973   2.171  0.2468 -0.3194  0.4456
17341TIP3    H273439   1.942   1.095   2.114 -1.1046  0.1095 -0.3813
17342TIP3   OH273440   5.016   5.945   5.058 -0.1906  0.4349 -0.4503
17342TIP3    H173441   4.951   6.003   5.019 -0.6202  0.3127  0.0774
17342TIP3    H273442   4.976   5.916   5.140 -0.4806 -1.4943 -1.2174
17343TIP3   OH273443   0.220   1.942   0.393 -0.2248  0.0509  0.6015
17343TIP3    H173444   0.313   1.919   0.400 -0.0725  0.7160  0.9016
17343TIP3    H273445   0.173   1.860   0.408  0.2704  0.0458  2.4956
17344TIP3   OH273446   0.368   5.215   0.581  0.4244 -0.1901 -0.0655
17344TIP3    H173447   0.439   5.157   0.553 -0.9371 -2.1895  0.4152
17344TIP3    H273448   0.294   5.192   0.524 -0.1271  1.2121  0.0335
17345TIP3   OH273449   2.731   1.884  13.911  0.1554 -0.5256 -0.0928
17345TIP3    H173450   2.804   1.838  13.870 -0.4352 -1.2595 -0.3628
17345TIP3    H273451   2.722   1.965  13.862  1.5408  0.1353  0.7076
17346TIP3   OH273452   0.236   4.949   2.793  0.3711 -0.0221 -0.5994
17346TIP3    H173453   0.180   5.000   2.735  0.1276  1.2319  0.7061
17346TIP3    H273454   0.304   5.010   2.821  1.9216 -1.2766 -1.4524
17347TIP3   OH273455   2.198   5.931   5.605 -0.1702 -0.5475 -0.2179
17347TIP3    H173456   2.192   5.841   5.572  0.5375 -0.5183 -0.4357
17347TIP3    H273457   2.145   5.982   5.543 -0.0317 -0.7172 -0.4787
17348TIP3   OH273458   5.174   0.662   5.475 -0.5891  0.2563  0.7738
17348TIP3    H173459   5.140   0.742   5.516 -0.1377  0.3790  0.9171
17348TIP3    H273460   5.169   0.596   5.543 -0.2784  0.3425  0.8776
17349TIP3   OH273461   0.091   0.576  15.161 -0.4696  0.1191  0.3537
17349TIP3    H173462   0.181   0.552  15.140 -0.2669 -0.5873  1.8992
17349TIP3    H273463   0.065   0.634  15.090  1.7720  1.7065  0.7272
17350TIP3   OH273464   3.235   0.677  15.861  0.2102 -0.2779  0.1943
17350TIP3    H173465   3.150   0.634  15.846 -0.2890  0.8612 -0.3927
17350TIP3    H273466   3.227   0.713  15.950  1.0948 -2.3599  1.1952
17351TIP3   OH273467   4.126   5.116  17.089  0.0983 -0.5375  0.0041
17351TIP3    H173468   4.181   5.189  17.117 -3.6557  2.1625  1.2050
17351TIP3    H273469   4.085   5.146  17.007  0.3415 -2.4073 -0.8536
17352TIP3   OH273470   4.414   1.719  16.192 -0.2988  0.1192 -0.2678
17352TIP3    H173471   4.340   1.664  16.166  1.2850 -2.2771 -0.0737
17352TIP3    H273472   4.376   1.805  16.209 -2.5370 -0.1434 -3.1853
17353TIP3   OH273473   3.376   5.438   2.392  0.0760 -0.3560 -0.5815
17353TIP3    H173474   3.383   5.446   2.487  0.8279 -2.5193 -0.4061
17353TIP3    H273475   3.450   5.489   2.359  0.9073 -1.0739  0.1074
17354TIP3   OH273476   1.074   5.331  15.317  0.1598 -0.6149  0.4517
17354TIP3    H173477   1.110   5.243  15.328 -0.4987 -1.0573 -0.6832
17354TIP3    H273478   0.979   5.317  15.320 -0.0175 -0.3231 -2.0143
17355TIP3   OH273479   4.967   2.055  16.595  0.9078  0.0177  0.3383
17355TIP3    H173480   4.913   1.988  16.553  1.3867 -0.5386  0.5907
17355TIP3    H273481   4.913   2.134  16.594  0.6671 -0.1465 -0.7436
17356TIP3   OH273482   4.579   1.875   3.886  0.5963  0.2031 -0.0578
17356TIP3    H173483   4.667   1.860   3.921 -0.1915  0.8682  2.4121
17356TIP3    H273484   4.532   1.917   3.957 -1.4173  0.9457 -1.7240
17357TIP3   OH273485   0.198   1.960  11.690 -0.0114 -0.2605  0.2257
17357TIP3    H173486   0.124   1.901  11.696 -0.3178  0.0333 -0.5413
17357TIP3    H273487   0.163   2.039  11.649  0.5753  0.1353  0.4685
17358TIP3   OH273488   0.022   2.376   2.431  0.0878 -0.0670  0.1671
17358TIP3    H173489   0.091   2.311   2.424  0.1048 -0.1604  1.0768
17358TIP3    H273490   0.055   2.439   2.495 -0.4866  0.1155  0.2892
17359TIP3   OH273491   2.843   1.533  13.767  0.0655 -0.3264  0.5101
17359TIP3    H173492   2.930   1.503  13.791 -0.0897  0.9547  3.0994
17359TIP3    H273493   2.791   1.452  13.760  0.7225 -0.9911  2.4584
17360TIP3   OH273494   0.053   1.648   3.184 -0.8063 -0.4979  0.6028
17360TIP3    H173495   0.044   1.641   3.089 -0.1033 -1.4983  0.5923
17360TIP3    H273496   0.032   1.740   3.204 -2.0810 -0.5637 -0.3699
17361TIP3   OH273497   5.581   3.762   0.692 -0.0891  0.9455  0.1444
17361TIP3    H173498   5.622   3.736   0.610  1.5622  2.5945  0.3895
17361TIP3    H273499   5.653   3.776   0.752 -1.2482  0.1315  1.8181
17362TIP3   OH273500   0.875   5.167   3.308 -0.2482 -0.4584  0.4362
17362TIP3    H173501   0.968   5.182   3.292 -0.0917 -0.2741  1.4030
17362TIP3    H273502   0.872   5.130   3.397 -0.8960 -3.0413 -0.5653
17363TIP3   OH273503   4.264   6.479   5.135  0.1880 -0.5525  0.2936
17363TIP3    H173504   4.197   6.457   5.070 -0.6433  2.7470 -0.1579
17363TIP3    H273505   4.343   6.496   5.084 -0.3804  1.7191  0.0670
17364TIP3   OH273506   0.127   2.783   2.392  0.4335 -0.8060  0.4674
17364TIP3    H173507   0.124   2.719   2.320 -0.1858 -0.9089  0.5762
17364TIP3    H273508   0.198   2.752   2.448 -0.6573 -2.1443  1.1836
17365TIP3   OH273509   2.628   0.674   6.066  0.6045 -0.0285 -0.0836
17365TIP3    H173510   2.675   0.745   6.022 -0.4864 -0.2439 -1.6842
17365TIP3    H273511   2.667   0.670   6.153  2.3962  0.8765 -0.7874
17366TIP3   OH273512   1.704   3.893   3.619 -0.1861 -0.0097  0.6275
17366TIP3    H173513   1.625   3.850   3.649 -0.4794 -0.2696 -0.4696
17366TIP3    H273514   1.725   3.851   3.535  0.9271  0.2739  0.7391
17367TIP3   OH273515   2.923   0.796  14.817  0.5227 -0.5182 -0.4106
17367TIP3    H173516   2.877   0.841  14.887  1.4699 -1.1793  0.6610
17367TIP3    H273517   2.999   0.852  14.797  1.4243 -1.3470  0.5803
17368TIP3   OH273518   5.125   6.358   3.485 -0.2696  0.4037 -0.5722
17368TIP3    H173519   5.165   6.343   3.399  1.2026  1.5396 -0.1032
17368TIP3    H273520   5.113   6.452   3.490 -3.3785  0.1450 -0.7988
17369TIP3   OH273521   2.868   6.023  12.242  0.5445 -0.6185 -0.3954
17369TIP3    H173522   2.959   6.049  12.258 -0.3651  2.1019  0.7995
17369TIP3    H273523   2.840   5.983  12.324  0.7204 -1.8826 -0.9127
17370TIP3   OH273524   0.223   3.440   3.143 -0.2647 -0.1354 -0.3956
17370TIP3    H173525   0.261   3.491   3.072  3.4123  0.4236  1.7147
17370TIP3    H273526   0.139   3.482   3.162  0.3091  1.8990 -2.0603
17371TIP3   OH273527   1.419   3.169   6.582 -0.2730 -1.0032 -0.0708
17371TIP3    H173528   1.419   3.117   6.501 -1.3675 -0.3131 -0.5357
17371TIP3    H273529   1.327   3.170   6.609 -0.6494  2.2405 -1.1096
17372TIP3   OH273530   5.973   1.878  12.117 -0.4564 -0.5087  0.4480
17372TIP3    H173531   6.026   1.884  12.038 -0.2790  0.9693  0.6330
17372TIP3    H273532   5.999   1.955  12.168 -1.0139 -1.1029  1.6565
17373TIP3   OH273533   1.103   1.439   1.834  0.0149  0.1500 -1.2369
17373TIP3    H173534   1.148   1.355   1.832 -0.3941 -0.1274  0.1135
17373TIP3    H273535   1.010   1.417   1.837 -0.0657  0.5265  1.4425
17374TIP3   OH273536   4.653   6.586   6.709 -0.1976 -0.5672  0.6841
17374TIP3    H173537   4.621   6.663   6.755 -1.1835 -0.6753  0.2233
17374TIP3    H273538   4.651   6.611   6.616 -2.0461 -1.6215  0.3822
17375TIP3   OH273539   1.526   2.732  14.490  0.1519 -0.5566 -0.2355
17375TIP3    H173540   1.577   2.811  14.474 -0.6984  0.3108  1.1989
17375TIP3    H273541   1.581   2.679  14.548 -0.1988 -0.0151  0.5995
17376TIP3   OH273542   2.684   0.568   4.049  0.3133 -0.5860 -0.3779
17376TIP3    H173543   2.614   0.624   4.081  1.7914 -0.1145  2.3098
17376TIP3    H273544   2.687   0.584   3.955 -0.3340  2.6842  0.0704
17377TIP3   OH273545   5.488   0.169  13.640 -0.4323 -0.2715  0.0604
17377TIP3    H173546   5.507   0.110  13.714 -1.8514  0.2583  0.8909
17377TIP3    H273547   5.542   0.246  13.657  1.3887 -1.2177 -0.9974
17378TIP3   OH273548   0.356   6.069  16.771 -0.7606 -0.6418 -1.0356
17378TIP3    H173549   0.299   6.035  16.840  0.9861 -0.1580  0.7239
17378TIP3    H273550   0.321   6.031  16.690 -2.7587 -1.3758  0.1141
17379TIP3   OH273551   6.276   3.070  12.305  0.1850  0.2027  0.4680
17379TIP3    H173552   6.261   3.136  12.373  0.3251 -1.9987  2.7692
17379TIP3    H273553   6.205   3.083  12.243 -0.2158  2.0101  1.2417
17380TIP3   OH273554   6.182   5.201  14.858  0.4349  0.5586  0.3504
17380TIP3    H173555   6.236   5.178  14.934  0.4261  1.2567  0.5780
17380TIP3    H273556   6.134   5.121  14.837 -1.4456  0.9573  2.6450
17381TIP3   OH273557   6.537   2.030   4.435  0.5444  0.2861 -0.5390
17381TIP3    H173558   6.512   2.049   4.526 -1.6531 -2.2135 -0.4930
17381TIP3    H273559   6.456   2.044   4.385  0.9477 -1.0733 -1.6269
17382TIP3   OH273560   2.421   0.913  12.926  0.0551  0.1937  0.1438
17382TIP3    H173561   2.434   0.834  12.978 -1.6416 -0.0118  0.3324
17382TIP3    H273562   2.500   0.921  12.872 -0.1773 -2.2364 -0.6728
17383TIP3   OH273563   5.205   4.986  10.544 -0.4929  0.5562 -0.4655
17383TIP3    H173564   5.203   5.068  10.593 -2.3215  0.8111 -0.9199
17383TIP3    H273565   5.281   4.994  10.487  2.1471 -0.0029  2.6401
17384TIP3   OH273566   3.413   4.576  14.276  0.1471 -0.0893  0.1023
17384TIP3    H173567   3.483   4.526  14.235  0.1907 -1.2022  1.4812
17384TIP3    H273568   3.336   4.518  14.273 -0.1707  0.3060  0.4697
17385TIP3   OH273569   2.063   3.253   0.088  0.2640 -0.0620 -0.3630
17385TIP3    H173570   2.131   3.225   0.026  0.6621 -0.7910  0.3743
17385TIP3    H273571   2.090   3.213   0.172  1.2907  3.1263  0.9847
17386TIP3   OH273572   5.123   5.481  15.104  0.7429 -0.2766 -0.3392
17386TIP3    H173573   5.206   5.502  15.148 -0.1957 -0.1386  1.4717
17386TIP3    H273574   5.124   5.533  15.024  1.8825  0.6501  0.2533
17387TIP3   OH273575   5.867   0.724   2.033  0.0531 -0.6335 -0.0228
17387TIP3    H173576   5.893   0.656   1.971  1.1991 -0.4989  0.2906
17387TIP3    H273577   5.909   0.698   2.116  0.5681  0.4791  0.0788
17388TIP3   OH273578   1.132   6.795  11.725  0.3632  0.3907 -0.1443
17388TIP3    H173579   1.074   6.738  11.675  1.0080 -0.8465  0.4732
17388TIP3    H273580   1.087   6.880  11.725 -0.6390 -0.1054 -1.0524
17389TIP3   OH273581   0.646   1.561   1.233  0.4944  0.1611 -0.3193
17389TIP3    H173582   0.676   1.470   1.229  1.9284  0.6348 -1.0985
17389TIP3    H273583   0.551   1.555   1.229  0.5623 -1.3037 -0.3511
17390TIP3   OH273584   3.245   1.971  14.424 -0.4053  0.5552  0.2872
17390TIP3    H173585   3.152   1.954  14.411 -0.0974 -1.3702  0.2642
17390TIP3    H273586   3.268   1.922  14.502  0.9268 -0.4627 -0.6799
17391TIP3   OH273587   5.075   1.460  14.859 -0.6505 -0.1165 -0.5985
17391TIP3    H173588   5.075   1.366  14.879  0.7629  0.1627  0.9274
17391TIP3    H273589   5.154   1.473  14.806 -1.8597 -0.0537 -2.4901
17392TIP3   OH273590   2.215   0.430  15.081  0.3567  0.1112  0.1533
17392TIP3    H173591   2.226   0.387  15.166  0.3434 -0.7333 -0.2543
17392TIP3    H273592   2.270   0.379  15.021  0.5336  0.8292 -0.3039
17393TIP3   OH273593   0.801   5.981   5.704 -0.7734 -0.1200  0.3645
17393TIP3    H173594   0.870   6.041   5.675 -0.2003 -0.1181  1.6801
17393TIP3    H273595   0.725   6.037   5.718 -0.1552  0.3903  1.8834
17394TIP3   OH273596   5.930   4.593   5.864  0.3242 -0.3810  0.3944
17394TIP3    H173597   5.948   4.682   5.894  1.2260  0.3526 -2.0640
17394TIP3    H273598   5.873   4.604   5.788  0.5894 -1.8754 -0.0600
17395TIP3   OH273599   5.895   0.336  12.268  0.0175 -0.8145 -0.2180
17395TIP3    H173600   5.960   0.399  12.240  1.1311 -1.9625 -0.3187
17395TIP3    H273601   5.811   0.373  12.240  0.7509 -0.0245 -1.4391
17396TIP3   OH273602   4.519   5.663   1.327  0.0649 -0.0620 -0.1478
17396TIP3    H173603   4.524   5.671   1.422  1.0396  1.8355 -0.3029
17396TIP3    H273604   4.573   5.587   1.305 -0.2848 -0.5988  0.8121
17397TIP3   OH273605   4.162   3.555  17.146  0.0958 -0.2096 -0.4117
17397TIP3    H173606   4.248   3.512  17.147 -1.4703 -3.7574 -1.1548
17397TIP3    H273607   4.146   3.574  17.054 -0.0249  0.2352 -0.3024
17398TIP3   OH273608   4.554   1.706  12.288  0.4537  0.4548  0.2135
17398TIP3    H173609   4.648   1.718  12.278  1.0292 -2.6145  0.7706
17398TIP3    H273610   4.544   1.614  12.315 -2.7915  0.1401 -1.4685
17399TIP3   OH273611   0.470   2.152  13.826 -0.4137  0.4002  0.0932
17399TIP3    H173612   0.396   2.098  13.851  0.5339 -1.1563 -0.3539
17399TIP3    H273613   0.432   2.239  13.812 -1.7406  0.2462  2.2326
17400TIP3   OH273614   0.634   2.691  12.298 -0.1570  0.3728 -0.0759
17400TIP3    H173615   0.608   2.641  12.375  0.9065 -2.7470 -1.5692
17400TIP3    H273616   0.554   2.699  12.246 -0.8196  2.2697  1.1516
17401TIP3   OH273617   3.288   0.865  13.030  0.5672  0.2779 -0.1836
17401TIP3    H173618   3.360   0.926  13.015 -0.0879  0.7634 -1.5235
17401TIP3    H273619   3.324   0.799  13.089  2.6557 -0.4446 -2.1668
17402TIP3   OH273620   4.813   1.667  11.662 -0.0020 -0.0953 -0.6214
17402TIP3    H173621   4.820   1.645  11.754  0.7412  2.0880 -0.0818
17402TIP3    H273622   4.897   1.708  11.641 -0.8725  1.2323 -1.7059
17403TIP3   OH273623   1.589   0.876   4.543  0.0335  0.2268  0.1135
17403TIP3    H173624   1.504   0.920   4.544 -0.1237 -0.0138  1.9755
17403TIP3    H273625   1.614   0.872   4.636  1.1594 -1.4433 -0.2255
17404TIP3   OH273626   2.431   6.074   0.303 -0.3640 -0.1307 -0.3352
17404TIP3    H173627   2.409   6.167   0.296  0.5691  0.1134 -0.1947
17404TIP3    H273628   2.370   6.039   0.369 -3.2870 -0.4965 -3.0036
17405TIP3   OH273629   0.543   0.397   0.307 -0.2249 -0.1524  0.2936
17405TIP3    H173630   0.531   0.339   0.232  1.4309  0.0066 -0.1342
17405TIP3    H273631   0.525   0.342   0.383  0.3071 -0.9498 -0.1455
17406TIP3   OH273632   4.684   0.927   4.300 -0.0323 -0.5767  0.1557
17406TIP3    H173633   4.616   0.975   4.252 -1.2657  0.2269  2.5594
17406TIP3    H273634   4.763   0.979   4.288 -0.8606  0.9117  0.8931
17407TIP3   OH273635   3.652   5.516   2.293 -0.0435 -0.5798 -0.1685
17407TIP3    H173636   3.698   5.597   2.270 -1.1404  0.6584  1.7256
17407TIP3    H273637   3.704   5.477   2.363 -1.1129  0.1797  1.1092
17408TIP3   OH273638   3.873   0.058   3.484  0.2488 -0.2716  0.2721
17408TIP3    H173639   3.856   0.152   3.494 -0.3830 -0.3833  0.2647
17408TIP3    H273640   3.929   0.053   3.406  0.6590  0.1338  0.5351
17409TIP3   OH273641   0.421   4.561   1.386 -0.4712  0.3014 -0.2936
17409TIP3    H173642   0.371   4.641   1.370 -1.3646 -0.4032 -1.1260
17409TIP3    H273643   0.358   4.490   1.374  0.2225 -0.5260  0.7590
17410TIP3   OH273644   5.633   6.624  13.424  0.2159 -0.0499 -0.0504
17410TIP3    H173645   5.622   6.535  13.457  0.6184 -0.7596 -1.7087
17410TIP3    H273646   5.555   6.640  13.371  1.3992 -0.5386 -2.0499
17411TIP3   OH273647   1.851   6.184  16.134  0.2240 -0.5385 -0.4951
17411TIP3    H173648   1.777   6.237  16.161  0.0163  0.3816 -2.6217
17411TIP3    H273649   1.812   6.107  16.093  0.4847 -0.8946 -0.0863
17412TIP3   OH273650   6.417   3.564   0.988  0.4628  0.7703  0.1939
17412TIP3    H173651   6.374   3.492   1.034  1.6576  0.3182  0.6483
17412TIP3    H273652   6.443   3.527   0.904 -1.9208  1.6573 -1.0471
17413TIP3   OH273653   6.646   1.115  15.598 -0.1506 -0.2600  0.1474
17413TIP3    H173654   6.693   1.189  15.559  0.0344 -0.1902  0.5080
17413TIP3    H273655   6.555   1.146  15.604 -0.2186 -0.3405 -0.4061
17414TIP3   OH273656   5.448   0.428   0.071 -0.0043 -0.0029  0.1868
17414TIP3    H173657   5.445   0.336   0.097 -0.1275  0.0690  0.4246
17414TIP3    H273658   5.540   0.442   0.046  0.6054  0.4443  2.4805
17415TIP3   OH273659   0.730   0.221   3.954 -0.1382 -0.1099  0.1413
17415TIP3    H173660   0.676   0.147   3.983  0.2323 -0.7571 -0.7760
17415TIP3    H273661   0.795   0.232   4.023 -0.3473 -0.4905  0.4030
17416TIP3   OH273662   1.606   6.691   2.338 -0.1460 -0.2453  0.3710
17416TIP3    H173663   1.566   6.623   2.392  1.3832 -0.8043  0.8506
17416TIP3    H273664   1.688   6.652   2.306  0.3043  1.0298 -0.1154
17417TIP3   OH273665   3.043   1.701  14.021  0.3067 -0.3047 -0.1050
17417TIP3    H173666   3.017   1.729  13.933 -2.2398  2.0389  1.2426
17417TIP3    H273667   2.965   1.659  14.057  1.0462 -0.5132  1.3319
17418TIP3   OH273668   2.502   5.144  14.416  0.1427 -1.0543  0.4702
17418TIP3    H173669   2.440   5.071  14.412  0.5582 -1.3687 -0.4951
17418TIP3    H273670   2.447   5.221  14.427 -0.5686 -1.1635 -1.8507
17419TIP3   OH273671   6.333   4.266   0.024 -0.3474  0.7152  0.2814
17419TIP3    H173672   6.303   4.310  -0.056  0.8952  0.3232 -0.4286
17419TIP3    H273673   6.413   4.220  -0.003  0.1554  0.6648  1.7788
17420TIP3   OH273674   4.731   1.494  17.099  0.2767 -0.6316  0.6241
17420TIP3    H173675   4.785   1.424  17.061 -1.1179 -0.3326 -2.1186
17420TIP3    H273676   4.754   1.571  17.048 -0.8956  0.0803  1.1534
17421TIP3   OH273677   1.465   2.219   1.419 -0.7790  0.3979 -0.7532
17421TIP3    H173678   1.551   2.253   1.441 -0.7967 -0.0505  0.0130
17421TIP3    H273679   1.404   2.272   1.470 -0.8210 -0.6160  0.2840
17422TIP3   OH273680   5.339   0.701   1.676  0.0779  0.1271 -0.6239
17422TIP3    H173681   5.255   0.746   1.689  0.7950  1.3422 -0.0327
17422TIP3    H273682   5.401   0.752   1.728  0.9828 -1.3997 -0.1568
17423TIP3   OH273683   4.804   5.342   2.557  0.2355  0.8684 -0.2908
17423TIP3    H173684   4.795   5.409   2.625 -2.2360  0.3328  0.0203
17423TIP3    H273685   4.724   5.290   2.564  1.8802 -1.9451 -0.7415
17424TIP3   OH273686   0.734   6.132  15.482  0.1019  0.4061  0.0328
17424TIP3    H173687   0.756   6.220  15.513 -0.2042  0.2549  0.7134
17424TIP3    H273688   0.640   6.123  15.501  0.0804  0.0224 -0.2520
17425TIP3   OH273689   1.430   2.344   4.213  0.4347 -0.5552 -0.4955
17425TIP3    H173690   1.357   2.360   4.154 -0.0908  0.8221  0.4902
17425TIP3    H273691   1.501   2.399   4.179  0.5810 -0.8353 -0.6484
17426TIP3   OH273692   0.010   5.193  14.101  0.3899  0.1134  0.6912
17426TIP3    H173693   0.051   5.277  14.082 -0.9310  0.4667 -0.8787
17426TIP3    H273694   0.021   5.143  14.020 -0.5612 -0.4822  0.9196
17427TIP3   OH273695   6.364   0.915  16.727 -0.2574 -0.2920 -0.8348
17427TIP3    H173696   6.453   0.881  16.741  0.5987  1.3539 -1.9367
17427TIP3    H273697   6.357   0.924  16.632 -1.1329  0.7701 -0.6899
17428TIP3   OH273698   4.442   2.254   2.511 -0.4151  0.1531 -0.1051
17428TIP3    H173699   4.534   2.257   2.535 -1.0926  0.2654  2.8781
17428TIP3    H273700   4.425   2.162   2.491  0.0903 -0.0558  0.4316
17429TIP3   OH273701   3.935   4.676  16.085 -0.5893  0.1886  0.0737
17429TIP3    H173702   3.877   4.739  16.042  0.6481  0.5850 -1.0740
17429TIP3    H273703   3.981   4.633  16.014  1.8184  1.1300  0.9568
17430TIP3   OH273704   0.135   0.298  12.861 -0.3157 -0.7679 -0.6109
17430TIP3    H173705   0.083   0.251  12.926  1.5323 -0.7345  1.0142
17430TIP3    H273706   0.167   0.376  12.908  0.9658 -0.6723 -1.5788
17431TIP3   OH273707   6.005   0.196   3.651 -0.3128  0.1425 -0.6339
17431TIP3    H173708   6.061   0.146   3.710 -0.4237 -0.6884 -1.2169
17431TIP3    H273709   6.064   0.256   3.606 -0.2925  1.0941  0.6185
17432TIP3   OH273710   1.915   2.703   1.443  0.0030  0.4538  0.0119
17432TIP3    H173711   1.895   2.612   1.465  0.0173  0.9090  2.1625
17432TIP3    H273712   1.832   2.739   1.413 -1.0079  0.6404  2.7330
17433TIP3   OH273713   4.976   4.306  14.748 -0.3727  0.2497 -0.0676
17433TIP3    H173714   4.957   4.218  14.714  0.0369 -0.3103  1.1033
17433TIP3    H273715   5.072   4.310  14.750 -0.3789  0.1187  1.3404
17434TIP3   OH273716   2.733   0.623  16.953 -0.3288  0.0091 -0.0335
17434TIP3    H173717   2.668   0.554  16.949 -1.0894  0.6115  1.4682
17434TIP3    H273718   2.775   0.612  17.038  0.1418  0.8772 -0.1425
17435TIP3   OH273719   3.161   6.370  12.749  0.7271 -0.2560 -0.1701
17435TIP3    H173720   3.233   6.353  12.688 -0.5483 -0.6678 -1.6267
17435TIP3    H273721   3.113   6.287  12.753 -1.1300  0.7017 -1.2671
17436TIP3   OH273722   0.843   1.583  16.244  0.0911 -0.3383  0.3302
17436TIP3    H173723   0.880   1.541  16.321  1.4561  0.5827  0.2016
17436TIP3    H273724   0.909   1.572  16.176  0.2215  1.3933  0.1161
17437TIP3   OH273725   5.965   4.536   1.490  0.2236 -0.1502 -0.1519
17437TIP3    H173726   5.910   4.459   1.472  2.3742 -1.7041 -0.4917
17437TIP3    H273727   6.051   4.513   1.455  1.6037  1.4067  1.9698
17438TIP3   OH273728   4.342   1.445   3.610 -0.0144 -0.2755 -0.3114
17438TIP3    H173729   4.384   1.483   3.687  0.9758 -3.1370  0.6684
17438TIP3    H273730   4.409   1.448   3.541  0.3753 -1.0123  0.0267
17439TIP3   OH273731   5.407   2.265  14.875 -0.0760  0.2758  0.1457
17439TIP3    H173732   5.484   2.319  14.858 -0.5250  0.6504 -0.7540
17439TIP3    H273733   5.364   2.256  14.790 -0.2026 -1.2213  0.3287
17440TIP3   OH273734   6.569   0.242  13.610  0.5048  0.3645  0.2258
17440TIP3    H173735   6.494   0.186  13.592  0.4246  0.7786 -0.7504
17440TIP3    H273736   6.641   0.181  13.625  0.0738 -0.0241  0.7649
17441TIP3   OH273737   3.581   5.643  11.513 -0.2952  0.2260  0.0518
17441TIP3    H173738   3.562   5.707  11.444  0.6609 -0.7582 -1.1864
17441TIP3    H273739   3.496   5.606  11.536 -0.4790 -0.7144 -1.9297
17442TIP3   OH273740   3.358   5.005  14.458 -0.0715 -0.5949  0.0782
17442TIP3    H173741   3.350   5.059  14.536  1.9393 -1.1233  0.7251
17442TIP3    H273742   3.439   5.036  14.416 -0.4040 -1.2133 -1.0633
17443TIP3   OH273743   2.965   4.460  14.636 -0.4088  0.4473  0.0059
17443TIP3    H173744   3.015   4.402  14.579 -0.4604  0.6830 -0.2878
17443TIP3    H273745   3.022   4.478  14.710 -0.6390 -0.5004  0.4292
17444TIP3   OH273746   4.376   1.667   4.834 -0.7020 -0.2260 -0.0852
17444TIP3    H173747   4.330   1.583   4.829  0.1453 -0.6825 -0.3198
17444TIP3    H273748   4.341   1.708   4.914  1.3203 -2.3054  2.0062
17445TIP3   OH273749   3.649   1.310   2.493  0.1103  0.7836 -0.2317
17445TIP3    H173750   3.623   1.400   2.473  0.2270  0.2744 -3.0745
17445TIP3    H273751   3.593   1.285   2.566 -1.4226  2.4765 -0.7484
17446TIP3   OH273752   3.469   5.995   6.306  0.4357 -0.2258 -0.0613
17446TIP3    H173753   3.482   5.909   6.265  1.9530  0.9426 -2.2373
17446TIP3    H273754   3.547   6.045   6.281 -0.5478  1.8913  0.8738
17447TIP3   OH273755   6.139   6.073  14.304  1.0757 -0.9754 -0.0602
17447TIP3    H173756   6.193   6.005  14.264  1.9866  0.0580 -0.6219
17447TIP3    H273757   6.184   6.094  14.387 -0.6990 -2.9752  1.5265
17448TIP3   OH273758   4.786   3.608  11.601  0.0841 -0.1808  0.2595
17448TIP3    H173759   4.792   3.513  11.588  0.2837 -0.1685  0.2458
17448TIP3    H273760   4.842   3.625  11.677  1.5809  0.1492 -0.8656
17449TIP3   OH273761   4.341   2.331  15.320 -0.3796 -0.6350  0.5113
17449TIP3    H173762   4.367   2.274  15.392 -0.7902 -0.5933  0.6949
17449TIP3    H273763   4.343   2.419  15.357 -0.7041 -0.6240  0.5074
17450TIP3   OH273764   2.535   6.221   2.659 -0.2787 -0.1606  0.5411
17450TIP3    H173765   2.517   6.291   2.721 -1.4797 -0.0385  0.0804
17450TIP3    H273766   2.482   6.147   2.690 -1.5688  0.1624 -0.7770
17451TIP3   OH273767   5.809   3.810   6.055 -1.0211  0.0487 -0.3227
17451TIP3    H173768   5.779   3.868   6.125 -2.1320  0.0597 -0.7837
17451TIP3    H273769   5.901   3.831   6.045 -0.2861 -1.3437  2.4823
17452TIP3   OH273770   5.496   0.121  14.515 -0.3327 -0.0952 -0.0012
17452TIP3    H173771   5.473   0.088  14.601 -1.1820 -2.1760 -0.9445
17452TIP3    H273772   5.440   0.197  14.502 -0.6286 -0.1267  1.0283
17453TIP3   OH273773   1.529   5.384  17.041  0.0732  0.2628 -0.1222
17453TIP3    H173774   1.596   5.432  16.991 -1.3478  1.0295 -1.3613
17453TIP3    H273775   1.578   5.315  17.086  1.6523  0.6077 -1.2230
17454TIP3   OH273776   4.191   2.757  15.765  0.1811  0.6251  0.1645
17454TIP3    H173777   4.186   2.680  15.822 -0.5407  0.1743 -0.5006
17454TIP3    H273778   4.210   2.722  15.678  4.1327  1.4524  0.4949
17455TIP3   OH273779   4.813   4.393  16.307 -0.0487 -0.3171  0.2867
17455TIP3    H173780   4.752   4.438  16.250  0.2787 -0.5343 -0.2353
17455TIP3    H273781   4.895   4.390  16.258 -0.3253 -2.3679 -0.1083
17456TIP3   OH273782   5.882   1.669  11.566  0.0689  0.5105  0.2123
17456TIP3    H173783   5.875   1.763  11.582  0.3614  0.5575  0.0671
17456TIP3    H273784   5.943   1.662  11.493 -0.1899  0.2228  0.0218
17457TIP3   OH273785   3.718   6.106   0.221  0.0175 -0.3363  0.6755
17457TIP3    H173786   3.649   6.144   0.168 -1.6476 -1.2994  2.0627
17457TIP3    H273787   3.746   6.177   0.279  1.7432  0.6734 -1.2677
17458TIP3   OH273788   3.518   0.562   5.620 -0.4752  0.0308  0.1012
17458TIP3    H173789   3.612   0.567   5.636 -0.0865 -1.8028 -1.1779
17458TIP3    H273790   3.485   0.649   5.642  1.3396  0.4180  1.5491
17459TIP3   OH273791   2.128   3.832  14.096  0.0768 -0.3693  0.0526
17459TIP3    H173792   2.067   3.758  14.096 -0.3823 -0.0009  0.2012
17459TIP3    H273793   2.071   3.909  14.087  0.5619 -0.0468 -0.2947
17460TIP3   OH273794   6.581   3.521   2.339  0.1037 -0.2580 -0.3953
17460TIP3    H173795   6.669   3.560   2.339  0.0077 -0.0357 -0.0414
17460TIP3    H273796   6.598   3.427   2.351  0.2551 -0.0836  0.9615
17461TIP3   OH273797   3.124   3.827  13.269 -0.1409  0.0549  0.2174
17461TIP3    H173798   3.113   3.890  13.341 -0.4268 -0.2671  0.4594
17461TIP3    H273799   3.050   3.767  13.278  0.3237 -0.5340  0.2174
17462TIP3   OH273800   0.452   1.608   2.273  0.7354 -0.2275  0.1657
17462TIP3    H173801   0.381   1.580   2.330  0.7808  0.5720  0.6449
17462TIP3    H273802   0.526   1.551   2.297  0.8206  0.2468  1.0948
17463TIP3   OH273803   4.587   0.125  16.424  0.3440 -0.4268 -0.7390
17463TIP3    H173804   4.513   0.152  16.477  0.2788  0.8783 -1.4650
17463TIP3    H273805   4.663   0.164  16.467  0.2062  1.3827 -2.0225
17464TIP3   OH273806   0.361   2.285   4.915 -0.0392  0.3918  0.1311
17464TIP3    H173807   0.356   2.209   4.857  0.3474  0.6636 -0.2664
17464TIP3    H273808   0.452   2.286   4.946 -0.8977 -1.4889  3.1455
17465TIP3   OH273809   3.697   2.255   4.633 -0.5585 -0.0480 -0.0137
17465TIP3    H173810   3.685   2.345   4.663  0.6313 -0.8399  3.2464
17465TIP3    H273811   3.625   2.206   4.674  0.2592 -0.9503  0.3910
17466TIP3   OH273812   3.616   6.081  13.814 -0.7877 -0.2373 -0.1583
17466TIP3    H173813   3.555   6.030  13.867 -0.3036 -1.4347 -0.6954
17466TIP3    H273814   3.562   6.118  13.744 -1.0575 -0.5445 -0.1153
17467TIP3   OH273815   3.412   3.515   6.091 -0.0942  0.1674  0.2318
17467TIP3    H173816   3.489   3.557   6.052 -0.0626  0.5118  0.6692
17467TIP3    H273817   3.343   3.529   6.027  0.4119 -0.9425 -0.6071
17468TIP3   OH273818   4.880   6.008  16.363  0.2421  0.3332 -0.2835
17468TIP3    H173819   4.957   6.064  16.376  1.1139 -0.9005  0.1590
17468TIP3    H273820   4.831   6.015  16.445  0.1657  0.7191 -0.3640
17469TIP3   OH273821   4.900   3.328  13.543 -0.1591  0.1881 -0.4524
17469TIP3    H173822   4.836   3.329  13.614 -0.0516 -0.4626 -0.3407
17469TIP3    H273823   4.864   3.266  13.479  0.5322 -0.4654 -0.2241
17470TIP3   OH273824   1.454   5.030   0.461  0.0499 -0.5231 -0.1919
17470TIP3    H173825   1.464   5.029   0.366 -0.1769  0.7236 -0.2436
17470TIP3    H273826   1.471   5.121   0.486  0.3648 -0.8942  0.9891
17471TIP3   OH273827   4.212   6.210   5.526 -0.7907 -0.2082 -0.1553
17471TIP3    H173828   4.122   6.187   5.502 -0.5205 -0.8399 -0.6073
17471TIP3    H273829   4.264   6.189   5.448 -0.4887  1.9606 -0.5973
17472TIP3   OH273830   0.222   4.029   0.543  0.1194  0.0675 -0.0727
17472TIP3    H173831   0.244   3.969   0.614  1.1567 -0.1991 -0.6015
17472TIP3    H273832   0.148   4.080   0.576 -0.8505 -1.5571  0.3514
17473TIP3   OH273833   5.279   5.630  14.486 -0.0003  0.6224 -0.8680
17473TIP3    H173834   5.241   5.712  14.517 -0.7899  0.2803 -0.8783
17473TIP3    H273835   5.228   5.608  14.408 -0.1515 -0.1310 -0.5747
17474TIP3   OH273836   1.753   0.732  14.416  0.0115 -0.0054  0.1229
17474TIP3    H173837   1.793   0.660  14.464  0.6527  1.3595  1.7075
17474TIP3    H273838   1.660   0.729  14.442 -0.1654 -0.8076 -0.5552
17475TIP3   OH273839   4.971   2.673  15.691  0.1998 -0.0204  0.2857
17475TIP3    H173840   5.059   2.655  15.656  0.1845  0.6505 -0.1197
17475TIP3    H273841   4.956   2.765  15.670 -0.9862 -0.3681 -0.4921
17476TIP3   OH273842   2.970   6.592  16.291  0.0085 -0.4031 -0.5097
17476TIP3    H173843   2.960   6.533  16.216  0.0446 -1.0973  0.0296
17476TIP3    H273844   2.883   6.632  16.301 -0.0619 -0.4882 -0.7626
17477TIP3   OH273845   3.870   2.331   2.543 -0.3172  0.3985 -0.2852
17477TIP3    H173846   3.787   2.307   2.502  0.1710  0.1182 -1.1578
17477TIP3    H273847   3.921   2.369   2.471 -0.4276  2.4886  0.6789
17478TIP3   OH273848   0.723   6.209  11.137 -0.2299 -0.5259  0.0557
17478TIP3    H173849   0.649   6.265  11.159  0.5836  1.4174 -1.8461
17478TIP3    H273850   0.707   6.181  11.047  2.2858  1.7054 -1.2201
17479TIP3   OH273851   3.766   3.939  11.261 -0.4189 -0.3203 -0.3440
17479TIP3    H173852   3.828   4.005  11.293 -0.1483  0.1866 -1.8042
17479TIP3    H273853   3.808   3.904  11.182 -1.2087 -1.2329 -0.3751
17480TIP3   OH273854   2.081   5.548  16.565  0.3681 -0.1278  0.1904
17480TIP3    H173855   2.010   5.548  16.629 -0.2173  1.9042 -0.3910
17480TIP3    H273856   2.161   5.539  16.618 -0.1274  1.1790  1.2218
17481TIP3   OH273857   1.369   0.626   1.964 -0.1831 -0.3993 -0.2525
17481TIP3    H173858   1.414   0.684   2.025  2.5351 -1.6825 -0.8638
17481TIP3    H273859   1.336   0.554   2.019  0.6352 -0.6257 -0.0435
17482TIP3   OH273860   1.917   1.504  14.451  0.3681  0.6269 -0.1765
17482TIP3    H173861   1.843   1.462  14.406  0.0139  0.9316  0.1129
17482TIP3    H273862   1.953   1.435  14.507  0.6587  0.3149 -0.7342
17483TIP3   OH273863   2.672   3.160  15.000 -0.3531 -0.0903 -0.1676
17483TIP3    H173864   2.724   3.107  14.940 -0.8114 -1.0141  0.2359
17483TIP3    H273865   2.729   3.234  15.023  0.5639 -0.7902 -0.1626
17484TIP3   OH273866   4.850   2.390   5.450 -0.5149  0.1669  0.6128
17484TIP3    H173867   4.847   2.370   5.357 -0.4658  2.2145  0.1287
17484TIP3    H273868   4.820   2.310   5.493 -1.7642 -0.4055 -1.2188
17485TIP3   OH273869   5.790   5.990   4.327  0.4899  0.0523  0.7427
17485TIP3    H173870   5.884   5.971   4.324  0.4760 -0.6083  2.9309
17485TIP3    H273871   5.781   6.050   4.401 -0.6890  1.1010 -0.2098
17486TIP3   OH273872   4.157   0.308   2.971 -0.6812 -0.0115 -0.0556
17486TIP3    H173873   4.207   0.233   3.005 -0.3658  1.1411  2.1954
17486TIP3    H273874   4.121   0.276   2.888  1.7514 -1.7217 -0.6007
17487TIP3   OH273875   4.999   6.263   5.888 -0.5801  0.1972  0.0265
17487TIP3    H173876   4.991   6.188   5.947 -1.2303  0.0831 -0.1915
17487TIP3    H273877   5.092   6.269   5.869 -0.3558  0.2545  1.0829
17488TIP3   OH273878   4.076   4.568   5.229  0.9060 -0.9980  0.6517
17488TIP3    H173879   3.991   4.546   5.191 -0.5895 -1.1867  3.8452
17488TIP3    H273880   4.095   4.656   5.196 -1.5264 -0.1253  1.3644
17489TIP3   OH273881   3.264   3.047  14.546 -0.4075 -0.5440  0.0980
17489TIP3    H173882   3.247   3.142  14.549 -1.1090 -0.6853  1.1473
17489TIP3    H273883   3.272   3.028  14.453 -0.3463  0.5326 -0.1386
17490TIP3   OH273884   5.784   1.289  12.647 -0.0458 -0.3456  0.4240
17490TIP3    H173885   5.762   1.373  12.686 -0.8893  0.0179 -0.7592
17490TIP3    H273886   5.750   1.294  12.557  0.9265 -1.5036 -0.0511
17491TIP3   OH273887   0.043   0.401   4.421  0.2128  0.2018  0.1920
17491TIP3    H173888   0.120   0.346   4.406  0.9251  1.5282 -1.4284
17491TIP3    H273889   0.069   0.460   4.492  1.3292  1.6278 -1.3213
17492TIP3   OH273890   5.482   5.269   3.799 -0.0593 -0.0633 -0.0177
17492TIP3    H173891   5.571   5.267   3.763  1.0259 -0.7392  2.4452
17492TIP3    H273892   5.442   5.188   3.767  0.7760 -0.5262  0.0707
17493TIP3   OH273893   5.468   0.344  16.860  0.2024  0.3502  0.4553
17493TIP3    H173894   5.431   0.255  16.863  1.4069 -0.1609  0.9995
17493TIP3    H273895   5.556   0.334  16.898 -0.1708  2.0381  1.8726
17494TIP3   OH273896   1.402   5.352  10.496  0.0601  0.4361  0.0617
17494TIP3    H173897   1.368   5.277  10.447  0.5030 -0.0368  0.4687
17494TIP3    H273898   1.349   5.355  10.576 -0.0934  0.6826 -0.0495
17495TIP3   OH273899   5.854   0.269   0.215 -0.2620 -0.2236 -0.3759
17495TIP3    H173900   5.909   0.324   0.271 -2.2423  1.4346  0.0534
17495TIP3    H273901   5.804   0.215   0.276 -0.7857 -0.0528 -0.6515
17496TIP3   OH273902   1.032   2.127   4.465 -0.0582 -0.1782 -0.3326
17496TIP3    H173903   1.035   2.143   4.371 -0.6388  0.3010 -0.2768
17496TIP3    H273904   1.113   2.079   4.484 -0.0944 -0.5746 -1.1234
17497TIP3   OH273905   3.143   5.629   1.466 -0.0520 -0.0404 -0.4201
17497TIP3    H173906   3.091   5.549   1.473 -0.7566  0.4760  0.5283
17497TIP3    H273907   3.165   5.652   1.557 -1.1297  1.6318 -0.5305
17498TIP3   OH273908   3.940   2.191   5.374  0.6095 -0.2954  0.1924
17498TIP3    H173909   3.884   2.251   5.423 -1.1033 -0.8982 -0.8990
17498TIP3    H273910   3.972   2.130   5.439 -1.2710 -0.8200  0.7075
17499TIP3   OH273911   5.741   5.821   3.959  0.3013  0.3386  0.4272
17499TIP3    H173912   5.761   5.914   3.966 -0.6122  0.4638  2.0181
17499TIP3    H273913   5.759   5.799   3.868  0.3195  2.1218 -0.0403
17500TIP3   OH273914   4.620   3.211   5.169  0.0982  0.1898  0.4270
17500TIP3    H173915   4.594   3.135   5.221 -0.7981  0.9930  1.2016
17500TIP3    H273916   4.576   3.285   5.212 -1.0967  0.8386 -1.7425
17501TIP3   OH273917   5.880   6.621   3.352  0.0785  0.0252 -0.2319
17501TIP3    H173918   5.883   6.716   3.354  0.1498  0.0721 -1.6783
17501TIP3    H273919   5.788   6.599   3.370  0.3445  0.2701  1.6681
17502TIP3   OH273920   3.785   2.047   2.702  0.6046  0.0445  0.3013
17502TIP3    H173921   3.734   2.082   2.630 -1.2215 -2.0245  0.4881
17502TIP3    H273922   3.852   1.993   2.659 -0.1735 -0.7867  0.0887
17503TIP3   OH273923   0.094   6.064   5.515 -0.8415  0.4460  0.3951
17503TIP3    H173924   0.028   6.006   5.478  0.0992 -1.5784  1.6931
17503TIP3    H273925   0.167   6.061   5.453 -1.1106  0.9619  0.0412
17504TIP3   OH273926   0.430   1.321   5.328 -0.0140 -0.2440 -0.0620
17504TIP3    H173927   0.447   1.289   5.416 -2.0965  0.2780  0.5917
17504TIP3    H273928   0.493   1.392   5.315  1.8798 -1.8350  0.0483
17505TIP3   OH273929   1.581   3.536  11.183 -0.3189 -0.3230  0.0899
17505TIP3    H173930   1.629   3.605  11.228 -1.4820  0.4118  0.2434
17505TIP3    H273931   1.568   3.570  11.094 -0.5008 -0.5466  0.0315
17506TIP3   OH273932   0.404   2.436  11.799  0.3323 -0.4824  0.4518
17506TIP3    H173933   0.458   2.369  11.758  1.8187 -0.1195  1.7222
17506TIP3    H273934   0.392   2.502  11.731  2.0015 -0.3018  0.2808
17507TIP3   OH273935   5.422   3.255   4.637 -0.1157 -0.5059 -0.1833
17507TIP3    H173936   5.504   3.248   4.687 -0.4612 -0.7289  0.3582
17507TIP3    H273937   5.389   3.342   4.658  0.1826 -0.2632 -0.7146
17508TIP3   OH273938   4.619   4.497  16.138  0.3841 -0.0001 -0.2852
17508TIP3    H173939   4.629   4.498  16.043  0.9151  2.7396 -0.2803
17508TIP3    H273940   4.525   4.486  16.151  0.2330  0.1322 -1.1628
17509TIP3   OH273941   4.339   1.125  11.761 -0.4244  0.2690  0.0091
17509TIP3    H173942   4.398   1.190  11.725  0.2357 -0.8806 -1.0655
17509TIP3    H273943   4.252   1.151  11.729 -0.0708  0.2228 -1.0225
17510TIP3   OH273944   0.067   1.176   3.888 -0.1183  0.0007 -0.0352
17510TIP3    H173945   0.111   1.260   3.880 -0.6345  0.4935  1.7448
17510TIP3    H273946   0.092   1.144   3.975 -0.8626 -1.1083 -0.2081
17511TIP3   OH273947   3.593   5.852  12.745 -0.1538  0.1192  0.7253
17511TIP3    H173948   3.667   5.792  12.730 -0.1055  0.5682 -1.1067
17511TIP3    H273949   3.633   5.930  12.782 -0.2079 -0.8788  3.0803
17512TIP3   OH273950   6.608   6.078   1.312 -0.2503 -0.0850 -0.5165
17512TIP3    H173951   6.616   6.081   1.407 -0.2839  0.7570 -0.5403
17512TIP3    H273952   6.679   6.021   1.284  0.9713  1.2037 -0.1300
17513TIP3   OH273953   5.070   2.253  12.669 -0.5504 -0.3104  0.1198
17513TIP3    H173954   5.039   2.175  12.623 -1.3262  0.3388 -0.4863
17513TIP3    H273955   5.045   2.326  12.612  0.5517  0.3569  0.4599
17514TIP3   OH273956   0.237   1.117   4.106  0.1478 -0.6649 -0.0222
17514TIP3    H173957   0.305   1.155   4.162 -2.0409  1.8740  1.1419
17514TIP3    H273958   0.234   1.025   4.132  1.9783 -0.4737  1.0578
17515TIP3   OH273959   5.254   5.854   6.679 -0.5957 -0.0031  0.0645
17515TIP3    H173960   5.264   5.760   6.691  3.0202  0.4489  2.2707
17515TIP3    H273961   5.311   5.874   6.604 -1.1643  0.4915 -0.2469
17516TIP3   OH273962   2.330   3.171   6.419  0.5404 -0.6447 -0.8079
17516TIP3    H173963   2.335   3.079   6.445 -1.6974 -0.4297  0.6036
17516TIP3    H273964   2.397   3.180   6.351 -0.0280 -3.6169 -1.8921
17517TIP3   OH273965   6.189   3.253  12.480 -0.3556  0.1872  0.0527
17517TIP3    H173966   6.129   3.307  12.428 -2.1662 -1.9610 -0.2225
17517TIP3    H273967   6.196   3.300  12.563 -0.6502  1.5953 -0.6751
17518TIP3   OH273968   6.169   4.671  13.265  0.0239 -0.4584  0.3417
17518TIP3    H173969   6.228   4.742  13.238 -1.1332  0.1328 -0.7136
17518TIP3    H273970   6.228   4.600  13.291  1.2668 -0.5435 -2.3558
17519TIP3   OH273971   3.143   2.539   0.578 -0.4628  0.4773 -0.2664
17519TIP3    H173972   3.215   2.599   0.598 -0.0862  0.5871 -1.8241
17519TIP3    H273973   3.183   2.452   0.578 -0.6603  0.3773  0.3183
17520TIP3   OH273974   1.310   1.393   5.452 -0.5508 -0.6650 -0.1179
17520TIP3    H173975   1.231   1.431   5.491  0.1858  0.4756  0.3032
17520TIP3    H273976   1.369   1.467   5.440  0.2759 -1.4253 -0.8967
17521TIP3   OH273977   2.269   3.572   5.764  0.0021 -0.5649  0.0465
17521TIP3    H173978   2.337   3.635   5.785  0.6491 -0.7188 -1.4864
17521TIP3    H273979   2.262   3.518   5.843 -1.3589  2.0276  1.8489
17522TIP3   OH273980   6.232   3.785   3.572 -0.9228 -0.7412  0.1964
17522TIP3    H173981   6.298   3.818   3.511  0.4263  0.5293  2.2284
17522TIP3    H273982   6.154   3.773   3.517  0.1120  0.6013 -1.7238
17523TIP3   OH273983   3.860   1.755  13.426 -0.1818  0.3010  0.9229
17523TIP3    H173984   3.778   1.801  13.408 -1.0873 -1.1357  1.2330
17523TIP3    H273985   3.889   1.723  13.341 -1.6476 -1.8902  1.1692
17524TIP3   OH273986   5.362   2.643  14.219  0.0893  0.2431  0.2879
17524TIP3    H173987   5.289   2.683  14.173  0.3216  0.6522  0.2627
17524TIP3    H273988   5.358   2.550  14.196 -1.5210 -0.1004  1.7681
17525TIP3   OH273989   5.701   0.800  10.370  0.0957  0.0795  0.1177
17525TIP3    H173990   5.622   0.843  10.340  0.0410  0.8724  1.3579
17525TIP3    H273991   5.759   0.871  10.396  0.7478 -0.5400  0.3867
17526TIP3   OH273992   3.352   4.650   0.368 -0.2103  0.2147  0.4513
17526TIP3    H173993   3.432   4.703   0.366  0.4769 -0.8063 -1.0163
17526TIP3    H273994   3.373   4.576   0.425  0.5909 -1.0280 -1.3805
17527TIP3   OH273995   1.878   4.494  11.200 -0.4240 -0.5826 -0.7930
17527TIP3    H173996   1.876   4.408  11.241 -0.7406 -0.2373 -0.0628
17527TIP3    H273997   1.960   4.496  11.151  0.2510 -0.7996  0.2994
17528TIP3   OH273998   3.675   2.523   5.008 -0.6104 -0.4765  0.2045
17528TIP3    H173999   3.627   2.577   5.071 -0.5235 -0.8745  0.6107
17528TIP3    H274000   3.767   2.536   5.031 -0.4062  1.2087 -1.2948
17529TIP3   OH274001   1.927   6.433   3.918  0.0321 -0.4148  0.0887
17529TIP3    H174002   2.009   6.464   3.956  0.3161  0.3301 -1.0808
17529TIP3    H274003   1.912   6.347   3.958  0.7942 -0.0659  1.1447
17530TIP3   OH274004   0.872   2.875   4.432 -0.0415  0.0949 -0.1739
17530TIP3    H174005   0.805   2.877   4.501  0.1495 -1.5192  0.0875
17530TIP3    H274006   0.948   2.919   4.471 -0.9547  2.0882 -0.5292
17531TIP3   OH274007   0.622   1.850   3.430 -0.1582 -0.0423  0.5556
17531TIP3    H174008   0.579   1.934   3.415 -0.7744 -0.7712 -2.4399
17531TIP3    H274009   0.678   1.838   3.353  0.7228 -1.9155  1.4301
17532TIP3   OH274010   4.583   6.161  12.621  0.0030  0.0103  0.5420
17532TIP3    H174011   4.516   6.173  12.554  0.7332  0.7562 -0.0796
17532TIP3    H274012   4.544   6.198  12.700 -0.3071  0.4578  0.1833
17533TIP3   OH274013   6.795   1.831  14.932  0.7081 -0.1569 -0.1920
17533TIP3    H174014   6.726   1.855  14.870  1.2620 -0.3809 -0.9060
17533TIP3    H274015   6.788   1.896  15.002 -2.4605 -2.1030  1.5591
17534TIP3   OH274016   2.442   2.783   0.407 -0.0801  0.0987  0.3036
17534TIP3    H174017   2.483   2.699   0.384 -1.1218 -0.1506 -0.7870
17534TIP3    H274018   2.512   2.847   0.400  0.3910 -0.4743 -0.3797
17535TIP3   OH274019   2.208   5.053  12.395 -0.0410 -0.0715 -0.6282
17535TIP3    H174020   2.114   5.045  12.379 -0.7625  1.1083  2.3198
17535TIP3    H274021   2.218   5.031  12.488  2.4500  0.9167 -0.5858
17536TIP3   OH274022   0.518   2.734  14.372 -0.7062  0.1307  0.1395
17536TIP3    H174023   0.522   2.669  14.442 -1.4260  0.6850  0.7118
17536TIP3    H274024   0.442   2.788  14.394 -2.1376 -0.8464 -2.1003
17537TIP3   OH274025   6.561   5.435   5.817  0.6134 -0.1938 -0.8776
17537TIP3    H174026   6.647   5.471   5.793  1.0104  0.3347  1.1418
17537TIP3    H274027   6.501   5.509   5.807  0.4163 -0.5107 -2.1024
17538TIP3   OH274028   6.442   0.570   0.033 -0.2822  0.3736  0.7228
17538TIP3    H174029   6.363   0.515   0.039  1.2444 -1.9912  0.5659
17538TIP3    H274030   6.466   0.566  -0.060  0.5773  0.2233  0.9481
17539TIP3   OH274031   5.257   6.000  14.816  0.4530 -0.4475  0.4671
17539TIP3    H174032   5.198   6.009  14.741  0.6208  0.4083  0.4343
17539TIP3    H274033   5.273   6.089  14.845  0.6936 -0.7501  1.2952
17540TIP3   OH274034   4.276   5.866   5.171  0.3346 -0.0044  0.0205
17540TIP3    H174035   4.231   5.942   5.134 -0.7197 -1.1159 -1.0370
17540TIP3    H274036   4.219   5.792   5.152  1.8296 -1.2287  0.1198
17541TIP3   OH274037   2.839   3.318  13.132 -0.3301  0.3554  0.0552
17541TIP3    H174038   2.877   3.230  13.137 -0.9908 -0.0316 -1.3060
17541TIP3    H274039   2.751   3.308  13.168 -0.5431  0.3650 -0.4560
17542TIP3   OH274040   6.519   0.539  16.461  0.3972 -0.3077 -0.2903
17542TIP3    H174041   6.613   0.522  16.464  0.7126  1.3949  0.8257
17542TIP3    H274042   6.511   0.629  16.429 -0.6202  0.7911  2.7154
17543TIP3   OH274043   2.561   5.771   6.067 -0.3693  0.2288 -0.2779
17543TIP3    H174044   2.501   5.743   6.136 -1.0704  0.9636 -0.5589
17543TIP3    H274045   2.538   5.863   6.051  0.3974  0.3365 -0.8504
17544TIP3   OH274046   1.538   6.432  12.575  0.3706  0.1289  0.4695
17544TIP3    H174047   1.564   6.341  12.588  0.8748  0.0614 -0.9081
17544TIP3    H274048   1.621   6.480  12.572  0.1445  0.5067  0.2341
17545TIP3   OH274049   1.351   0.105   4.252  0.2269  0.0650  0.0853
17545TIP3    H174050   1.347   0.150   4.168  0.4988 -0.1555 -0.0468
17545TIP3    H274051   1.440   0.117   4.283 -0.0107  0.5832  0.5928
17546TIP3   OH274052   5.353   5.328   5.563  0.0232 -0.4970 -0.2995
17546TIP3    H174053   5.315   5.297   5.645  0.7545  1.2201  0.7470
17546TIP3    H274054   5.426   5.267   5.546 -2.1161 -2.9061 -1.5508
17547TIP3   OH274055   6.464   1.316   2.874  0.1033  0.6205 -0.6841
17547TIP3    H174056   6.413   1.331   2.795 -0.8513 -0.3355 -0.2672
17547TIP3    H274057   6.402   1.279   2.937  0.7522  1.6525  0.6353
17548TIP3   OH274058   3.222   5.565  14.259  0.0816  0.1150  0.1528
17548TIP3    H174059   3.172   5.627  14.206  0.9179  0.2050 -0.5507
17548TIP3    H274060   3.226   5.606  14.346  1.2037  1.4169 -0.4653
17549TIP3   OH274061   0.211   4.709   0.140  0.1843 -0.5158  0.4864
17549TIP3    H174062   0.221   4.760   0.220 -0.1028 -0.1339  0.2849
17549TIP3    H274063   0.121   4.726   0.112 -0.1678 -1.7337  0.8130
17550TIP3   OH274064   6.433   1.872   0.585  0.6335  0.1241  0.3931
17550TIP3    H174065   6.456   1.818   0.508  0.1755  0.5608 -0.0535
17550TIP3    H274066   6.349   1.911   0.563  0.3711  0.0470  1.2372
17551TIP3   OH274067   1.025   5.818   0.664 -0.2808 -0.9155  0.0146
17551TIP3    H174068   0.950   5.861   0.704 -0.2642  0.2579 -1.1490
17551TIP3    H274069   1.094   5.824   0.730 -0.3899  0.5531  0.0322
17552TIP3   OH274070   4.189   5.336  14.034  0.9047  0.1083 -0.0884
17552TIP3    H174071   4.202   5.364  14.124  0.3178 -1.6717  0.6046
17552TIP3    H274072   4.197   5.240  14.037 -2.7800 -0.3971 -1.1785
17553TIP3   OH274073   3.699   0.852  10.844 -0.6442 -0.4604  0.6825
17553TIP3    H174074   3.719   0.768  10.803 -0.4067 -0.5380  0.9556
17553TIP3    H274075   3.663   0.905  10.773  0.3049 -0.3947  0.2380
17554TIP3   OH274076   4.748   3.451  15.232  0.0897  0.1838 -0.7758
17554TIP3    H174077   4.736   3.449  15.327 -0.6980 -0.9371 -0.8740
17554TIP3    H274078   4.799   3.530  15.216  1.5670 -0.4000  0.7198
17555TIP3   OH274079   4.715   4.432   6.130 -0.3739  0.2420 -0.3913
17555TIP3    H174080   4.672   4.396   6.208 -1.1271  0.2432 -0.7949
17555TIP3    H274081   4.795   4.380   6.121  0.1180  0.7605  0.8238
17556TIP3   OH274082   6.023   6.224  14.116  0.0299 -0.1078 -0.4650
17556TIP3    H174083   6.038   6.159  14.047 -1.8944 -0.2600 -0.7801
17556TIP3    H274084   6.042   6.178  14.198 -0.9833 -0.9876 -0.7066
17557TIP3   OH274085   3.263   3.376  16.637  0.4687 -0.8718  0.1869
17557TIP3    H174086   3.224   3.351  16.553  0.9615 -2.4190  0.3902
17557TIP3    H274087   3.191   3.416  16.686  0.4613  1.1881 -1.3887
17558TIP3   OH274088   1.086   4.430   5.285 -0.1259  0.2475  0.0550
17558TIP3    H174089   1.154   4.370   5.256 -0.0881 -0.1376  0.9230
17558TIP3    H274090   1.017   4.374   5.321 -1.1624  0.5981 -1.3086
17559TIP3   OH274091   0.408   6.578  14.369  0.0495  0.2718 -0.0282
17559TIP3    H174092   0.368   6.657  14.406  1.0951  0.0514  1.7164
17559TIP3    H274093   0.344   6.508  14.387 -0.4325  0.5468 -0.6630
17560TIP3   OH274094   2.671   1.377   0.671  0.1310  0.4356 -0.0858
17560TIP3    H174095   2.715   1.374   0.756  1.2219  0.0199 -0.6420
17560TIP3    H274096   2.587   1.419   0.689  0.9325  1.6878  0.9378
17561TIP3   OH274097   0.804   5.127   0.601 -0.0954  0.2062 -0.2530
17561TIP3    H174098   0.832   5.060   0.662  0.0165  1.9448  1.7207
17561TIP3    H274099   0.878   5.137   0.541  0.7377  0.0106  0.7201
17562TIP3   OH274100   1.374   1.435  16.216  0.4377  0.7835 -0.5003
17562TIP3    H174101   1.293   1.466  16.176 -0.4733  0.8623  1.3051
17562TIP3    H274102   1.412   1.514  16.257  0.1397  0.2996  0.7486
17563TIP3   OH274103   2.789   6.040  16.069 -0.1606 -0.1207  0.6292
17563TIP3    H174104   2.741   6.116  16.100 -0.6373  0.2262 -0.8605
17563TIP3    H274105   2.869   6.076  16.031 -0.8650 -0.1988 -1.0384
17564TIP3   OH274106   0.050   5.219   4.132 -0.0540 -0.2563  0.2266
17564TIP3    H174107   0.091   5.180   4.055  3.5537  0.9256  1.3526
17564TIP3    H274108   0.083   5.168   4.206 -2.4473 -0.5793  1.1791
17565TIP3   OH274109   0.193   2.101  12.461  0.9631 -0.1227 -0.6264
17565TIP3    H174110   0.190   2.080  12.555 -2.2654 -0.8117 -0.7765
17565TIP3    H274111   0.187   2.016  12.418  0.1522  0.3276 -1.4181
17566TIP3   OH274112   4.169   3.840   1.346  0.4172 -0.0183 -0.1651
17566TIP3    H174113   4.139   3.749   1.339  0.4020 -0.0654  0.4710
17566TIP3    H274114   4.152   3.864   1.437  2.2700 -0.0297  0.2143
17567TIP3   OH274115   2.458   4.399   5.827  0.2063  0.0575 -0.4171
17567TIP3    H174116   2.422   4.310   5.819  0.0672  0.2641 -2.5379
17567TIP3    H274117   2.384   4.456   5.809  0.1829  0.6590  1.4225
17568TIP3   OH274118   3.774   5.645   0.533  0.0607  0.3280 -0.1483
17568TIP3    H174119   3.779   5.721   0.590  1.3806 -0.3894  0.7402
17568TIP3    H274120   3.709   5.588   0.574  1.1791 -0.2965  0.8476
17569TIP3   OH274121   6.157   3.538   3.205  0.5718  0.1105 -0.0309
17569TIP3    H174122   6.228   3.550   3.142  0.6705 -2.2126 -0.4657
17569TIP3    H274123   6.194   3.477   3.270 -1.1307 -1.5925 -0.5612
17570TIP3   OH274124   4.684   2.256   2.949 -0.0963  0.3852 -0.1120
17570TIP3    H174125   4.698   2.174   2.902 -0.3820 -0.4986  1.2788
17570TIP3    H274126   4.590   2.274   2.938  0.4246  2.1578 -2.8695
17571TIP3   OH274127   3.776   3.036  12.026  0.1057  0.3058 -0.1438
17571TIP3    H174128   3.834   2.993  12.089 -0.1840  1.0634  0.6582
17571TIP3    H274129   3.804   3.128  12.027 -0.5665  0.5174 -0.3742
17572TIP3   OH274130   1.486   0.133   0.373 -0.7048 -0.2443 -0.1329
17572TIP3    H174131   1.486   0.055   0.428 -1.7279  1.0117  1.7769
17572TIP3    H274132   1.516   0.203   0.431  0.5255  0.7571 -1.8833
17573TIP3   OH274133   3.149   4.366   0.210 -0.1773  0.0102 -0.0105
17573TIP3    H174134   3.082   4.297   0.204 -1.2443  0.6655  2.7124
17573TIP3    H274135   3.111   4.430   0.270  1.9579  1.5944 -0.2459
17574TIP3   OH274136   0.021   5.263  13.678  0.1484 -0.2001 -0.4015
17574TIP3    H174137  -0.003   5.212  13.601  0.7667  1.0020 -1.4233
17574TIP3    H274138  -0.063   5.289  13.717 -0.1660 -0.6969 -0.7397
17575TIP3   OH274139   1.266   2.815  16.462 -0.0872 -0.6276 -0.6751
17575TIP3    H174140   1.298   2.725  16.472 -0.1294 -0.4897  0.9807
17575TIP3    H274141   1.336   2.870  16.498 -0.2732 -0.0168 -1.2205
17576TIP3   OH274142   1.359   0.920   3.927 -0.3094 -0.2221 -0.4019
17576TIP3    H174143   1.306   0.840   3.935 -1.7603  0.5414 -1.7564
17576TIP3    H274144   1.439   0.890   3.882  0.2646 -1.3120  1.2599
17577TIP3   OH274145   5.736   0.207   4.472  0.3710 -0.5376 -0.2005
17577TIP3    H174146   5.736   0.165   4.558  0.9248  0.3356  0.2358
17577TIP3    H274147   5.645   0.202   4.443  0.3145 -1.4891  0.1004
17578TIP3   OH274148   4.755   3.234   3.916 -0.1337  0.7923 -0.0518
17578TIP3    H174149   4.707   3.172   3.862  1.1394 -1.0508  0.8407
17578TIP3    H274150   4.787   3.183   3.989  2.7403  2.0250 -0.3262
17579TIP3   OH274151   4.774   1.561  16.574  0.0523  0.3798 -0.0319
17579TIP3    H174152   4.748   1.570  16.482  1.3432 -1.2320 -0.6208
17579TIP3    H274153   4.850   1.503  16.571  0.6161  0.9452  2.0069
17580TIP3   OH274154   3.315   6.335  12.230  0.6116 -0.1007 -0.3722
17580TIP3    H174155   3.293   6.290  12.149 -0.4201  0.4522 -0.4249
17580TIP3    H274156   3.230   6.347  12.274  1.1309 -0.1987  0.6806
17581TIP3   OH274157   1.494   3.800  15.164 -0.1807 -0.0243 -0.1178
17581TIP3    H174158   1.587   3.788  15.144 -0.5018 -1.4902 -0.8575
17581TIP3    H274159   1.454   3.716  15.142 -1.4957  0.1830  1.3318
17582TIP3   OH274160   1.665   1.398  12.387  0.2153  0.0451  0.1024
17582TIP3    H174161   1.729   1.468  12.370  2.4519 -1.8495  0.1728
17582TIP3    H274162   1.677   1.336  12.315 -0.4420 -1.1026  0.9454
17583TIP3   OH274163   0.445   2.949   1.402 -0.1047  1.0562  0.7962
17583TIP3    H174164   0.377   3.011   1.379 -1.3914  0.1010  1.8908
17583TIP3    H274165   0.403   2.888   1.463  1.7865  0.5718  1.6986
17584TIP3   OH274166   5.025   5.242  11.606 -0.3430 -0.5024 -0.2919
17584TIP3    H174167   5.108   5.286  11.587 -0.8657 -0.7320 -3.6926
17584TIP3    H274168   4.964   5.313  11.626  0.1228 -0.1637 -0.0540
17585TIP3   OH274169   4.848   0.924   3.548 -0.4530  0.1780 -0.3681
17585TIP3    H174170   4.861   0.894   3.458  1.6114 -0.4630  0.0934
17585TIP3    H274171   4.803   0.852   3.592 -0.5240  0.0607 -0.6333
17586TIP3   OH274172   1.390   5.003  15.675 -0.2122  0.5894  0.1454
17586TIP3    H174173   1.374   5.062  15.748  0.5571  1.3873 -0.3035
17586TIP3    H274174   1.458   4.944  15.707  0.7036  1.4392 -0.1576
17587TIP3   OH274175   5.095   1.885   2.417 -0.3634 -0.4491 -0.0815
17587TIP3    H174176   5.052   1.897   2.332  2.0308  0.0744 -1.3108
17587TIP3    H274177   5.117   1.974   2.445  0.6740 -0.7450  0.0717
17588TIP3   OH274178   5.750   0.309  11.902 -0.4243  0.3676  0.7045
17588TIP3    H174179   5.793   0.353  11.829  0.0414  0.4335  1.0130
17588TIP3    H274180   5.665   0.282  11.867  0.2434 -0.6219 -0.2133
17589TIP3   OH274181   2.004   2.588   5.042 -0.1613 -0.0886  0.4192
17589TIP3    H174182   1.930   2.529   5.059 -0.9313  1.0680  1.2650
17589TIP3    H274183   2.062   2.539   4.984 -2.2060 -0.5739 -1.3110
17590TIP3   OH274184   4.210   5.901   2.574  0.2387  0.3318 -0.0529
17590TIP3    H174185   4.138   5.919   2.635  0.7174 -0.4321  0.7783
17590TIP3    H274186   4.203   5.969   2.507  0.4853  2.0259  1.5672
17591TIP3   OH274187   6.578   3.522   5.564 -0.0316 -0.6074  0.0497
17591TIP3    H174188   6.617   3.607   5.586 -1.6288 -0.1372  1.2431
17591TIP3    H274189   6.579   3.519   5.468  0.5496  0.5013  0.0052
17592TIP3   OH274190   0.341   1.833   0.956  0.5684 -0.3284  0.7637
17592TIP3    H174191   0.266   1.863   0.904 -0.9399 -0.2987  2.8176
17592TIP3    H274192   0.394   1.782   0.895 -1.5150 -0.9635 -0.6177
17593TIP3   OH274193   2.490   0.096   0.385  0.3753  0.2031  0.4156
17593TIP3    H174194   2.400   0.073   0.408  0.5133 -1.1053 -0.2578
17593TIP3    H274195   2.526   0.136   0.464 -0.5725  0.0883  0.9217
17594TIP3   OH274196   3.569   2.272   4.186 -0.2867  0.3196  0.2727
17594TIP3    H174197   3.607   2.185   4.195  2.0941  1.1943 -0.5441
17594TIP3    H274198   3.622   2.314   4.118 -2.8362  1.6475 -1.0215
17595TIP3   OH274199   6.771   3.196  11.773  0.0050 -0.1531  0.0079
17595TIP3    H174200   6.723   3.266  11.729  1.0204  1.1708  0.8940
17595TIP3    H274201   6.809   3.239  11.850  1.7368 -1.3711 -0.1125
17596TIP3   OH274202   6.682   2.676  13.647  0.0535 -0.1232 -0.1579
17596TIP3    H174203   6.589   2.655  13.648 -0.2506  1.2068  0.1271
17596TIP3    H274204   6.689   2.755  13.594  1.0243 -0.1947 -0.1654
17597TIP3   OH274205   2.644   4.159   4.456 -0.1312 -0.3036 -0.2113
17597TIP3    H174206   2.549   4.155   4.442 -0.1904  1.1044 -0.3467
17597TIP3    H274207   2.666   4.251   4.442  0.9264 -0.1886  1.9559
17598TIP3   OH274208   0.193   5.665  10.754  0.4260 -0.2508 -0.1345
17598TIP3    H174209   0.122   5.625  10.703  2.4338 -0.0335 -3.3541
17598TIP3    H274210   0.210   5.602  10.824 -0.6662 -1.9647 -1.3210
17599TIP3   OH274211   5.264   0.779   0.749 -0.0143  0.0435  0.0029
17599TIP3    H174212   5.170   0.798   0.747  0.0383  0.3444 -3.0104
17599TIP3    H274213   5.269   0.686   0.768 -0.9279 -0.0342 -0.0943
17600TIP3   OH274214   1.193   4.979   3.641  0.0848  0.5425 -0.0903
17600TIP3    H174215   1.218   4.934   3.560 -0.9747  1.1247 -0.7801
17600TIP3    H274216   1.185   4.910   3.706 -0.2925 -0.1108 -0.8105
17601TIP3   OH274217   4.259   5.641  13.681  0.1285 -0.1548 -0.0688
17601TIP3    H174218   4.344   5.677  13.705  0.8015 -1.5930 -0.2087
17601TIP3    H274219   4.268   5.547  13.693 -1.2521 -0.3951 -0.6776
17602TIP3   OH274220   4.994   4.620  14.513 -0.0341  0.6620 -0.1578
17602TIP3    H174221   5.075   4.573  14.496 -1.1177 -2.5597  2.5851
17602TIP3    H274222   5.005   4.657  14.601 -0.5161  2.8182 -0.9255
17603TIP3   OH274223   0.566   0.111  14.578  0.5343 -0.1431 -0.3031
17603TIP3    H174224   0.579   0.070  14.663  1.1248  0.1909 -0.2237
17603TIP3    H274225   0.522   0.194  14.597  2.5015  0.9190 -0.0808
17604TIP3   OH274226   3.547   5.883   0.011  0.1474 -0.3054  0.1390
17604TIP3    H174227   3.601   5.924  -0.056 -0.9753  2.5890  0.8847
17604TIP3    H274228   3.609   5.859   0.081  0.6854  2.2087  0.6283
17605TIP3   OH274229   2.863   2.198   1.310  0.4253 -0.4905  0.0160
17605TIP3    H174230   2.955   2.193   1.334  0.7525  1.4359 -0.6269
17605TIP3    H274231   2.831   2.278   1.352 -1.1720 -1.5081  0.8505
17606TIP3   OH274232   6.710   2.706   1.397  0.2609 -0.3597  0.5600
17606TIP3    H174233   6.695   2.660   1.479  0.1787 -0.1517  0.6596
17606TIP3    H274234   6.745   2.791   1.422  1.5417 -0.7943  0.3498
17607TIP3   OH274235   1.477   6.371   5.608 -0.2448  0.6284  0.6218
17607TIP3    H174236   1.507   6.401   5.693  0.7066 -0.1139  0.5678
17607TIP3    H274237   1.472   6.276   5.616 -0.2858  0.5617 -0.1048
17608TIP3   OH274238   2.731   6.356  13.159  0.2031 -0.0284  0.3510
17608TIP3    H174239   2.646   6.386  13.129  0.0944  0.9597  1.5280
17608TIP3    H274240   2.714   6.313  13.243  0.7881 -0.2728  0.3524
17609TIP3   OH274241   2.750   6.105   2.951 -0.4676 -0.4010  0.3589
17609TIP3    H174242   2.828   6.097   2.896 -1.5124  0.8311 -1.4124
17609TIP3    H274243   2.741   6.020   2.993  1.8960 -0.5323  0.7656
17610TIP3   OH274244   1.810   0.033  10.831  0.1089  0.6392  0.8334
17610TIP3    H174245   1.749   0.041  10.905 -0.3951 -1.4034  0.6955
17610TIP3    H274246   1.835  -0.059  10.830  0.1309  0.6121 -1.5424
17611TIP3   OH274247   4.649   6.514   1.314 -0.7912  0.1930 -0.2513
17611TIP3    H174248   4.726   6.567   1.295  0.6376 -2.0038 -0.9652
17611TIP3    H274249   4.659   6.489   1.406 -2.1992  2.1889  0.5155
17612TIP3   OH274250   1.592   1.606   4.278 -0.2443 -0.3709 -0.0934
17612TIP3    H174251   1.545   1.525   4.295 -0.8975 -0.2017 -0.9565
17612TIP3    H274252   1.682   1.580   4.261 -0.5221 -0.9558 -0.6932
17613TIP3   OH274253   0.322   2.475  11.324  0.6345  0.1460 -0.1356
17613TIP3    H174254   0.345   2.400  11.379  1.7711 -0.2762 -1.1473
17613TIP3    H274255   0.254   2.441  11.266  1.3895 -0.2124 -0.8209
17614TIP3   OH274256   1.747   1.069   0.305  0.0930  0.3877  0.5763
17614TIP3    H174257   1.805   0.995   0.288 -0.9278 -0.1293 -0.8733
17614TIP3    H274258   1.777   1.104   0.389 -0.0659 -2.3371  1.8974
17615TIP3   OH274259   1.672   0.505  11.308 -0.0314  0.2626 -0.4924
17615TIP3    H174260   1.681   0.509  11.403  0.5384 -2.2267 -0.3692
17615TIP3    H274261   1.743   0.562  11.275 -0.8234  1.9079  0.5088
17616TIP3   OH274262   5.354   5.779   2.718  0.5936 -0.4565 -0.4848
17616TIP3    H174263   5.375   5.691   2.748  0.3585 -0.5205 -0.5006
17616TIP3    H274264   5.283   5.766   2.655 -1.1501 -0.0810  1.3004
17617TIP3   OH274265   2.166   1.250  15.603 -0.0235 -0.1379 -0.0273
17617TIP3    H174266   2.260   1.267  15.596  0.2648 -1.6038 -0.0087
17617TIP3    H274267   2.130   1.286  15.521  0.4253  1.0414  0.2608
17618TIP3   OH274268   3.057   3.763  16.743  0.7611  0.1812  0.2172
17618TIP3    H174269   3.003   3.839  16.763  2.4737  1.4540  0.2833
17618TIP3    H274270   3.136   3.800  16.704  1.0129 -1.6927 -1.1946
17619TIP3   OH274271   1.528   6.273  15.396 -0.1269  0.3195 -0.4057
17619TIP3    H174272   1.483   6.190  15.385 -0.6985  0.8279 -2.3038
17619TIP3    H274273   1.615   6.249  15.430  0.6300 -1.3355 -3.1752
17620TIP3   OH274274   1.176   1.056  12.486 -0.0581  0.0686 -0.2539
17620TIP3    H174275   1.164   1.145  12.520 -1.2315 -0.4067  0.6543
17620TIP3    H274276   1.131   1.057  12.402  1.6884  0.8671 -1.2510
17621TIP3   OH274277   3.249   4.890  15.713 -0.1240  0.1072  0.4558
17621TIP3    H174278   3.343   4.909  15.710  0.2364 -1.4711  0.8129
17621TIP3    H274279   3.207   4.976  15.727  1.3333  0.6730  1.5612
17622TIP3   OH274280   1.830   5.239   3.068 -0.9805  0.3648 -0.0266
17622TIP3    H174281   1.804   5.228   2.977 -1.1535  0.8472 -0.0380
17622TIP3    H274282   1.748   5.257   3.114 -0.7452  1.3750  0.0206
17623TIP3   OH274283   2.546   5.085  16.842 -0.0537 -0.0175  0.6739
17623TIP3    H174284   2.562   5.055  16.931  1.7623 -1.3160 -0.0179
17623TIP3    H274285   2.491   5.017  16.803 -0.1866  0.1468  0.5700
17624TIP3   OH274286   4.169   5.293  15.854 -0.1124  0.4643  0.2903
17624TIP3    H174287   4.150   5.381  15.886 -0.7807 -0.1833  1.8207
17624TIP3    H274288   4.111   5.280  15.780 -0.1707  1.2298  0.2016
17625TIP3   OH274289   1.710   3.826  13.490  0.3078  0.5888  0.1901
17625TIP3    H174290   1.741   3.904  13.536 -1.9876  1.4249  0.4460
17625TIP3    H274291   1.653   3.783  13.554  0.7629 -0.7854 -0.3036
17626TIP3   OH274292   1.273   2.620  16.899 -0.6110  0.3222 -0.0665
17626TIP3    H174293   1.349   2.570  16.929 -0.2482  2.0893  2.2514
17626TIP3    H274294   1.302   2.660  16.816  1.6362  2.1364  1.4751
17627TIP3   OH274295   4.152   1.748   0.997 -0.2884 -0.2527 -0.2200
17627TIP3    H174296   4.141   1.760   1.091 -0.7177 -0.3291 -0.2604
17627TIP3    H274297   4.193   1.662   0.989  1.6296  0.5876 -0.0024
17628TIP3   OH274298   3.314   3.439   2.471  0.5504  0.4242  0.3023
17628TIP3    H174299   3.303   3.347   2.498 -1.4818  0.5027 -0.0585
17628TIP3    H274300   3.333   3.434   2.378 -3.0301  0.3394 -0.5807
17629TIP3   OH274301   0.483   5.455   0.258  0.2042  0.0696 -0.1481
17629TIP3    H174302   0.539   5.528   0.231 -0.1753  1.9173  3.4500
17629TIP3    H274303   0.523   5.422   0.338 -2.0676 -0.6935  0.7497
17630TIP3   OH274304   3.385   2.952   0.925  0.1815  0.1905 -0.1750
17630TIP3    H174305   3.428   2.875   0.961 -1.1489 -0.1720  0.7014
17630TIP3    H274306   3.446   3.024   0.943  0.9111 -0.4689  0.0405
17631TIP3   OH274307   6.476   1.278  16.174 -0.3198  0.0426  0.2383
17631TIP3    H174308   6.511   1.214  16.112  0.8033 -0.5392  1.4209
17631TIP3    H274309   6.547   1.291  16.237 -0.9850  1.5355  0.7289
17632TIP3   OH274310   2.741   1.418  12.935  0.2708 -0.0322  0.3437
17632TIP3    H174311   2.674   1.352  12.948  1.0823 -0.6636  1.4771
17632TIP3    H274312   2.763   1.448  13.023 -1.1476  2.9051 -0.1395
17633TIP3   OH274313   0.831   4.764  13.783 -0.9283  0.6502  0.8255
17633TIP3    H174314   0.772   4.815  13.838 -1.6231  0.9515 -0.1670
17633TIP3    H274315   0.872   4.702  13.842 -2.0520  0.6043  1.5803
17634TIP3   OH274316   1.152   1.845  15.531 -0.0919  0.4366 -0.2117
17634TIP3    H174317   1.169   1.939  15.530  1.3974  0.2057  0.2577
17634TIP3    H274318   1.063   1.837  15.563  0.2126  1.6534  1.0466
17635TIP3   OH274319   0.968   2.623   5.810 -0.4578 -0.1716  0.3923
17635TIP3    H174320   0.872   2.620   5.809 -0.4819  0.4743  0.0309
17635TIP3    H274321   0.989   2.704   5.764  0.2779 -0.5697  0.0264
17636TIP3   OH274322   5.935   4.063  16.224  0.5144  0.1607 -0.2032
17636TIP3    H174323   6.004   4.074  16.289  0.7772  0.3801 -0.5189
17636TIP3    H274324   5.921   4.150  16.188  0.4489  0.0205 -0.5233
17637TIP3   OH274325   3.524   1.372  12.505  0.3573 -0.5420  0.1928
17637TIP3    H174326   3.465   1.340  12.437 -0.8039 -1.1242  1.4177
17637TIP3    H274327   3.607   1.329  12.486  0.4195  0.2559 -1.5467
17638TIP3   OH274328   4.079   3.215   5.339 -0.0594  0.4788 -0.0736
17638TIP3    H174329   4.016   3.262   5.393  0.0778  0.5545  0.0231
17638TIP3    H274330   4.160   3.217   5.390  0.4166  1.6541 -0.8466
17639TIP3   OH274331   2.808   0.621  16.211  0.1555  0.3274 -0.3398
17639TIP3    H174332   2.728   0.602  16.162  0.5840 -1.0142 -0.5792
17639TIP3    H274333   2.830   0.538  16.254 -0.2555  1.4540  2.2695
17640TIP3   OH274334   3.637   6.161  16.558 -0.4940  0.3606 -0.7436
17640TIP3    H174335   3.581   6.223  16.512 -1.9137  2.2515  3.1068
17640TIP3    H274336   3.576   6.102  16.603  0.5096  1.4507  2.2567
17641TIP3   OH274337   5.109   0.422  13.469 -0.0697 -0.0363 -0.5009
17641TIP3    H174338   5.202   0.425  13.489  0.2386 -3.7917 -0.5677
17641TIP3    H274339   5.066   0.448  13.551  1.1602 -2.5338  1.0731
17642TIP3   OH274340   3.401   0.793   1.779 -0.1770 -0.0185  0.6681
17642TIP3    H174341   3.491   0.775   1.807  0.7556  5.3997  2.2384
17642TIP3    H274342   3.408   0.816   1.687 -0.0929 -0.3378  0.5948
17643TIP3   OH274343   3.516   1.760   0.171 -0.3357  0.1281 -0.8131
17643TIP3    H174344   3.610   1.744   0.158 -0.2494  0.8085 -1.0792
17643TIP3    H274345   3.504   1.750   0.266  0.7169  3.3245 -0.2019
17644TIP3   OH274346   5.157   1.611  11.712  0.1019 -0.0117  0.1372
17644TIP3    H174347   5.082   1.554  11.731  0.2719 -0.0960  0.5592
17644TIP3    H274348   5.126   1.668  11.641  0.5104 -1.8145 -1.5735
17645TIP3   OH274349   3.166   3.638   4.537  0.6540 -0.2628  0.0287
17645TIP3    H174350   3.237   3.696   4.563  0.4827 -0.3363  0.6696
17645TIP3    H274351   3.209   3.553   4.523  1.0402  0.1690 -1.6882
17646TIP3   OH274352   6.424   6.373   2.208  0.0969 -0.2111  0.4495
17646TIP3    H174353   6.497   6.313   2.196  0.3627 -0.0829  1.3545
17646TIP3    H274354   6.394   6.357   2.297 -0.0709  0.7275  0.5726
17647TIP3   OH274355   4.515   4.559   0.714 -0.0377 -0.1879 -0.3972
17647TIP3    H174356   4.473   4.557   0.628  0.9126 -0.5887 -0.8574
17647TIP3    H274357   4.495   4.647   0.748 -1.2170 -0.3551 -0.6045
17648TIP3   OH274358   4.422   5.157   4.798  0.2281 -0.5381 -0.0563
17648TIP3    H174359   4.391   5.110   4.721  1.4002  0.3177 -1.0989
17648TIP3    H274360   4.515   5.173   4.781  0.6122 -0.6496  1.7105
17649TIP3   OH274361   1.462   2.328  11.860 -0.1291 -0.4909 -0.5269
17649TIP3    H174362   1.414   2.247  11.841  2.5020 -2.0687 -0.9273
17649TIP3    H274363   1.466   2.331  11.956  0.1974 -1.1369 -0.5160
17650TIP3   OH274364   0.304   2.390   1.153 -0.7420  0.6588  0.1735
17650TIP3    H174365   0.373   2.353   1.098 -0.8687  0.3652  0.2110
17650TIP3    H274366   0.228   2.334   1.138 -1.2254  1.4586 -0.4957
17651TIP3   OH274367   4.647   1.906  12.097  0.3631 -0.0716  0.1696
17651TIP3    H174368   4.561   1.948  12.092  0.3776 -0.1892 -1.4558
17651TIP3    H274369   4.690   1.949  12.171 -1.1980 -0.2276  1.1999
17652TIP3   OH274370   4.897   5.888  11.730  0.2070  0.7717  0.4281
17652TIP3    H174371   4.816   5.867  11.776  0.8375  1.2712  1.8075
17652TIP3    H274372   4.879   5.971  11.685 -0.2362  0.5621  0.2122
17653TIP3   OH274373   6.088   2.398  12.651 -0.4019  0.0212  0.1124
17653TIP3    H174374   6.093   2.442  12.736 -1.1735  0.7834 -0.2312
17653TIP3    H274375   6.143   2.450  12.593 -1.2474  0.4926 -0.2736
17654TIP3   OH274376   3.397   2.533  10.124  0.1329  0.8577  0.0760
17654TIP3    H174377   3.400   2.620  10.083 -0.8843  0.3444 -1.1473
17654TIP3    H274378   3.474   2.488  10.090 -0.8793  0.3178 -1.6420
17655TIP3   OH274379   2.011   4.245   1.101  0.6022  0.8995 -0.1619
17655TIP3    H174380   2.034   4.336   1.121  1.0559  0.4546  1.5892
17655TIP3    H274381   2.007   4.203   1.187  1.1341 -0.9041 -0.9766
17656TIP3   OH274382   4.526   2.442   0.782  0.2416  0.3306  0.1156
17656TIP3    H174383   4.518   2.416   0.874  0.9445  0.5096  0.2364
17656TIP3    H274384   4.529   2.538   0.785  3.2501  0.3399  0.2247
17657TIP3   OH274385   1.236   3.601   4.477  0.2564 -0.9307  0.2446
17657TIP3    H174386   1.217   3.678   4.530 -1.4159 -0.4167 -0.9896
17657TIP3    H274387   1.329   3.584   4.491  1.8651  3.7498 -2.3912
17658TIP3   OH274388   2.440   2.565   2.395  0.2562  0.5729  0.1004
17658TIP3    H174389   2.389   2.578   2.475  1.1758  1.6759  0.5367
17658TIP3    H274390   2.519   2.617   2.408  0.4493  0.7446 -1.5122
17659TIP3   OH274391   1.298   0.251  12.218  0.0513 -0.1058 -0.1932
17659TIP3    H174392   1.281   0.224  12.128 -0.0563  1.3009 -0.6158
17659TIP3    H274393   1.347   0.333  12.210 -1.8176  1.2121  0.9900
17660TIP3   OH274394   4.266   2.195  10.909  0.1430  0.1311 -0.0343
17660TIP3    H174395   4.314   2.157  10.835 -0.3046 -0.1313 -0.1947
17660TIP3    H274396   4.307   2.281  10.922  0.9623 -0.2702  0.1386
17661TIP3   OH274397   5.014   2.603  14.011 -0.3990  0.0590 -0.4664
17661TIP3    H174398   4.941   2.560  14.056  0.6653 -1.2186  0.1014
17661TIP3    H274399   5.037   2.676  14.067 -0.0372 -0.6604  0.3503
17662TIP3   OH274400   0.753   0.012   0.830  0.2175 -0.5154 -0.2912
17662TIP3    H174401   0.739   0.049   0.743 -0.5882 -1.0468 -0.4001
17662TIP3    H274402   0.831  -0.042   0.821  1.2897  0.9547 -0.1843
17663TIP3   OH274403   2.206   0.143  16.385  0.2171  0.3804 -0.6168
17663TIP3    H174404   2.132   0.194  16.353  0.0966  0.8809  0.4367
17663TIP3    H274405   2.222   0.176  16.473  0.0122 -1.5128  0.1831
17664TIP3   OH274406   2.859   6.473   1.219  0.0597  0.0106  0.1008
17664TIP3    H174407   2.796   6.428   1.163  1.6639  0.1141 -1.9132
17664TIP3    H274408   2.864   6.562   1.182  2.1937 -0.3370 -0.5819
17665TIP3   OH274409   5.421   3.520  12.041  0.1907  0.6650  0.7386
17665TIP3    H174410   5.414   3.563  12.126 -1.7801 -0.2941  1.1093
17665TIP3    H274411   5.341   3.469  12.032  0.4342  0.5476 -1.6156
17666TIP3   OH274412   3.506   0.612  11.963  0.2693 -0.2958  0.1284
17666TIP3    H174413   3.580   0.663  11.994  0.7043 -1.3639  0.8853
17666TIP3    H274414   3.536   0.574  11.880 -0.5160  1.6703 -1.1594
17667TIP3   OH274415   3.975   5.784  12.360 -0.4631 -0.1226  0.2619
17667TIP3    H174416   3.992   5.762  12.452 -0.9563 -0.3242  0.3076
17667TIP3    H274417   3.929   5.708  12.325  0.2576 -0.3031 -0.3206
17668TIP3   OH274418   4.732   6.428   5.522 -0.3328 -0.1656 -0.0789
17668TIP3    H174419   4.752   6.397   5.433 -0.7928  1.5633 -0.8260
17668TIP3    H274420   4.744   6.523   5.518 -1.7394  0.1234  1.3121
17669TIP3   OH274421   5.320   1.802  14.986  0.1711 -0.0607  0.2389
17669TIP3    H174422   5.284   1.883  15.023  0.0639  0.9769 -1.9566
17669TIP3    H274423   5.255   1.735  15.006 -0.0319  0.5107  1.5891
17670TIP3   OH274424   3.394   0.443   3.964 -0.3556 -0.3583 -0.0346
17670TIP3    H174425   3.385   0.356   4.004 -0.0086 -0.5870 -0.4367
17670TIP3    H274426   3.341   0.438   3.885 -0.8902  0.0295  0.2977
17671TIP3   OH274427   5.441   5.652   4.561 -0.6213 -0.5079 -0.3780
17671TIP3    H174428   5.515   5.604   4.524  0.3089  0.2964  0.3820
17671TIP3    H274429   5.463   5.664   4.653 -1.7502 -0.3233 -0.1121
17672TIP3   OH274430   6.608   0.340  10.921 -0.5731  0.2895  0.1642
17672TIP3    H174431   6.631   0.433  10.929  0.4846  0.0546 -0.0710
17672TIP3    H274432   6.514   0.341  10.900 -0.6334  1.2908  0.4130
17673TIP3   OH274433   0.509   6.191   0.217  0.0050 -0.4279  0.3207
17673TIP3    H174434   0.520   6.193   0.312 -1.2520 -1.2380  0.5189
17673TIP3    H274435   0.426   6.237   0.202 -0.4291 -1.3513 -0.2407
17674TIP3   OH274436   5.834   1.885  13.668 -0.2530  0.3847 -0.3455
17674TIP3    H174437   5.907   1.824  13.665 -0.4676  0.1238 -0.3007
17674TIP3    H274438   5.806   1.884  13.759  0.0751  0.9472 -0.2330
17675TIP3   OH274439   4.326   2.420  11.614  0.0015  0.0948  0.4324
17675TIP3    H174440   4.264   2.349  11.626  2.9218 -2.6389  0.8208
17675TIP3    H274441   4.347   2.449  11.703 -0.5894  0.9746  0.3057
17676TIP3   OH274442   5.617   4.320  12.196  0.1245 -0.4118  0.1880
17676TIP3    H174443   5.548   4.385  12.189 -0.0954 -0.6932 -0.3262
17676TIP3    H274444   5.668   4.347  12.272 -0.3250  0.0105  0.3441
17677TIP3   OH274445   2.240   2.862  16.474 -0.4849  0.7182 -0.5637
17677TIP3    H174446   2.160   2.811  16.462  0.6593 -1.4468  0.4911
17677TIP3    H274447   2.309   2.807  16.436  0.7706  1.5838  0.3863
17678TIP3   OH274448   2.276   5.770  12.972  0.2251  0.3446  0.2760
17678TIP3    H174449   2.207   5.704  12.975 -0.7169  1.2932  0.4782
17678TIP3    H274450   2.245   5.839  13.031  1.0066  1.1200 -0.1917
17679TIP3   OH274451   1.012   1.835   0.777 -0.2669  0.4758 -0.1677
17679TIP3    H174452   1.043   1.904   0.835  0.9718 -0.8404  0.8222
17679TIP3    H274453   1.026   1.754   0.827  0.3914 -0.6825 -2.1058
17680TIP3   OH274454   5.952   3.457  12.019 -0.0980 -0.2859 -0.2374
17680TIP3    H174455   5.972   3.364  12.007  0.0068 -0.1820 -0.9018
17680TIP3    H274456   5.860   3.459  12.044 -0.0713 -0.5737 -0.1165
17681TIP3   OH274457   4.411   0.384  15.173  0.4644  0.1962 -0.2805
17681TIP3    H174458   4.487   0.361  15.227 -0.2074  1.3331  1.2147
17681TIP3    H274459   4.449   0.412  15.089  1.6003 -0.5006 -0.0225
17682TIP3   OH274460   3.668   3.903  15.101  0.7717 -0.6928 -0.1201
17682TIP3    H174461   3.666   3.977  15.041 -0.8207 -1.0986 -0.6194
17682TIP3    H274462   3.616   3.931  15.176 -0.5745 -1.5642 -0.6860
17683TIP3   OH274463   5.006   0.728   0.125  0.0753  0.1644  0.0732
17683TIP3    H174464   4.982   0.666   0.056 -1.5907  0.4562  0.3396
17683TIP3    H274465   5.102   0.726   0.128  0.0942 -1.6025 -0.6390
17684TIP3   OH274466   3.357   3.035   4.629  0.0910 -0.5560  0.3818
17684TIP3    H174467   3.363   2.970   4.699  1.5149  0.3604  1.1570
17684TIP3    H274468   3.332   2.984   4.552  1.1882 -2.0501  0.9483
17685TIP3   OH274469   5.394   3.505   1.436  0.2454 -0.0278 -0.1382
17685TIP3    H174470   5.372   3.412   1.438 -2.8440  0.6140  1.0155
17685TIP3    H274471   5.340   3.541   1.365  2.4392  0.7594 -1.5360
17686TIP3   OH274472   1.979   4.289   3.942 -0.1403 -0.0968 -0.4775
17686TIP3    H174473   1.962   4.372   3.986 -0.3317  0.0434 -0.8112
17686TIP3    H274474   2.023   4.235   4.008  0.6411  0.5214 -0.4837
17687TIP3   OH274475   1.711   2.878  12.899  0.3966  0.1297 -0.5399
17687TIP3    H174476   1.691   2.900  12.990  0.0912  0.6353 -0.7276
17687TIP3    H274477   1.726   2.962  12.856  3.2652 -0.1890 -0.3656
17688TIP3   OH274478   2.758   2.690   4.142 -0.2579  0.8283  0.3194
17688TIP3    H174479   2.698   2.754   4.181  1.0039  1.0102  2.0945
17688TIP3    H274480   2.756   2.616   4.203 -0.9299 -0.4583 -1.1823
17689TIP3   OH274481   3.676   4.406  13.425 -0.1223 -0.1168  0.0352
17689TIP3    H174482   3.756   4.354  13.436  0.5459  0.8356 -0.1417
17689TIP3    H274483   3.634   4.403  13.511 -1.0875 -2.4695 -0.4435
17690TIP3   OH274484   3.078   5.351  15.577  0.0399 -0.2471  0.0483
17690TIP3    H174485   3.132   5.418  15.534  0.5841 -2.2114 -2.6439
17690TIP3    H274486   2.990   5.389  15.577  0.6717  1.3427  0.7062
17691TIP3   OH274487   6.180   2.695   3.968 -0.1878 -0.1735  0.2289
17691TIP3    H174488   6.125   2.737   4.034  0.7206  0.5439  0.5572
17691TIP3    H274489   6.269   2.699   4.005  0.7089  2.1433 -1.8548
17692TIP3   OH274490   1.155   0.309   1.937  0.3761 -0.2780 -0.4149
17692TIP3    H174491   1.192   0.252   2.004  1.4029  0.4195 -0.3622
17692TIP3    H274492   1.147   0.254   1.859  0.3389 -0.7695 -0.0642
17693TIP3   OH274493   5.308   4.766   5.913 -0.3499  0.6427 -0.8588
17693TIP3    H174494   5.255   4.833   5.957 -2.8063 -0.6914 -1.6189
17693TIP3    H274495   5.288   4.777   5.820  0.2949 -0.2391 -1.1075
17694TIP3   OH274496   6.530   2.378   3.065 -0.4349  0.3041 -0.7731
17694TIP3    H174497   6.449   2.331   3.079  0.5497 -0.8721  1.3857
17694TIP3    H274498   6.575   2.330   2.995 -1.7353  1.2677 -2.3517
17695TIP3   OH274499   5.880   6.000  14.442  0.5595 -0.0996  0.4711
17695TIP3    H174500   5.891   6.013  14.348 -0.1308 -1.7356  0.1300
17695TIP3    H274501   5.954   6.047  14.482  0.9385  0.4999 -0.8777
17696TIP3   OH274502   2.921   6.198   1.941 -0.4925  0.0505 -0.8356
17696TIP3    H174503   2.850   6.242   1.989 -1.4840  1.0661 -3.0871
17696TIP3    H274504   2.932   6.251   1.862  1.8397 -0.9166 -1.2179
17697TIP3   OH274505   1.615   6.310  16.230 -0.1708  0.0534  0.5950
17697TIP3    H174506   1.547   6.324  16.165  0.7002  1.4208 -0.0627
17697TIP3    H274507   1.620   6.392  16.278  1.4526  0.2470  0.1720
17698TIP3   OH274508   1.043   5.350  13.655  0.2467 -0.8631  0.1553
17698TIP3    H174509   1.019   5.438  13.681  2.6147  0.6735 -2.3149
17698TIP3    H274510   1.045   5.300  13.736 -2.1515  1.0550  1.4887
17699TIP3   OH274511   3.037   3.562   0.680 -0.5122 -0.7275 -0.7564
17699TIP3    H174512   2.992   3.645   0.695  0.3927 -0.5300  1.0768
17699TIP3    H274513   2.974   3.510   0.630 -1.5879  0.6033 -0.8490
17700TIP3   OH274514   0.357   1.472   3.750 -0.1266  0.6754  0.0630
17700TIP3    H174515   0.423   1.533   3.718  0.3802  0.1758  0.1502
17700TIP3    H274516   0.396   1.386   3.738 -0.1319  0.4468  1.5432
17701TIP3   OH274517   2.935   5.814  12.648 -0.0023 -0.6683 -0.0901
17701TIP3    H174518   2.973   5.726  12.653  1.0927 -0.1992  0.2521
17701TIP3    H274519   2.973   5.852  12.568  0.5607 -0.0659  0.4474
17702TIP3   OH274520   3.503   1.682   2.069 -0.4615 -0.7766  0.0943
17702TIP3    H174521   3.464   1.668   1.982 -0.4642 -1.0179  0.1338
17702TIP3    H274522   3.428   1.697   2.126 -0.3742  2.4503 -0.4624
17703TIP3   OH274523   5.217   5.069  12.739 -0.5311 -0.6562  0.3695
17703TIP3    H174524   5.276   5.040  12.669  1.7920 -0.9479  2.3377
17703TIP3    H274525   5.187   5.156  12.711  2.8649  0.6436  0.3687
17704TIP3   OH274526   5.617   2.747   0.345 -0.0927  0.2465 -0.3307
17704TIP3    H174527   5.648   2.838   0.342  1.6849 -0.2721  0.9681
17704TIP3    H274528   5.691   2.695   0.314 -1.1766 -0.7674 -1.2942
17705TIP3   OH274529   4.433   3.875  17.078  0.7707  0.2413 -0.0649
17705TIP3    H174530   4.493   3.947  17.093  1.8175 -0.3703 -1.1442
17705TIP3    H274531   4.402   3.851  17.166  0.4409  1.9415  0.3022
17706TIP3   OH274532   2.558   1.034   2.369  0.0225  0.4478  0.0530
17706TIP3    H174533   2.614   1.099   2.328 -1.6063  0.8057 -1.7500
17706TIP3    H274534   2.482   1.083   2.399 -0.3708 -0.3527  0.4118
17707TIP3   OH274535   2.859   1.850  10.962  0.1484  0.0629 -0.3400
17707TIP3    H174536   2.947   1.877  10.936  0.0799  0.4887 -0.1286
17707TIP3    H274537   2.838   1.778  10.902  0.9083 -0.5083  0.0652
17708TIP3   OH274538   5.206   6.065  10.959 -0.5216  0.0281 -0.5225
17708TIP3    H174539   5.129   6.081  10.904  0.1913  0.7281 -1.3376
17708TIP3    H274540   5.263   6.011  10.905  0.0684  0.4931 -0.3726
17709TIP3   OH274541   5.021   2.156  10.966 -0.6508  0.7159 -0.4434
17709TIP3    H174542   4.977   2.073  10.986 -2.0917  1.3128 -1.0495
17709TIP3    H274543   5.102   2.152  11.018 -1.3443 -0.4553  0.6251
17710TIP3   OH274544   5.366   0.205   1.359 -0.7602 -0.2461 -0.7175
17710TIP3    H174545   5.432   0.204   1.289 -0.2118 -1.9922 -0.2161
17710TIP3    H274546   5.315   0.125   1.346 -1.6736  0.2098 -0.0565
17711TIP3   OH274547   3.224   1.563   3.264  0.5126  0.0519  0.0045
17711TIP3    H174548   3.258   1.534   3.179  0.5710  1.3604 -0.4357
17711TIP3    H274549   3.218   1.658   3.257 -1.2262  0.0496  0.8256
17712TIP3   OH274550   0.052   1.753   5.916  0.4071 -0.1946 -0.2810
17712TIP3    H174551  -0.031   1.777   5.875  0.2127 -0.5865 -0.1219
17712TIP3    H274552   0.054   1.658   5.913  1.2348 -0.1709 -1.0327
17713TIP3   OH274553   4.258   6.321  14.029  0.0211  0.7549 -0.2153
17713TIP3    H174554   4.251   6.235  14.069  3.0481  0.9444  0.9864
17713TIP3    H274555   4.178   6.331  13.978 -0.2579 -2.9234 -0.7198
17714TIP3   OH274556   0.225   0.205   4.613 -0.1762 -0.3067  0.5710
17714TIP3    H174557   0.278   0.153   4.553  0.9195 -1.5820  2.5406
17714TIP3    H274558   0.267   0.194   4.699 -1.1389  2.1605  1.4484
17715TIP3   OH274559   5.989   5.114   0.131 -0.1310 -0.0905  0.1629
17715TIP3    H174560   6.011   5.185   0.192 -1.1716 -0.5083  1.0653
17715TIP3    H274561   5.893   5.108   0.136 -0.1139 -1.0718 -0.4602
17716TIP3   OH274562   2.311   6.054  12.505  0.0300  0.3309 -0.2379
17716TIP3    H174563   2.346   6.009  12.582  0.4939  1.4127  0.1953
17716TIP3    H274564   2.366   6.023  12.433  0.8121  0.7371  0.1698
17717TIP3   OH274565   5.927   4.924  14.630 -0.7016 -0.2137  0.0076
17717TIP3    H174566   6.020   4.943  14.635 -0.7796  0.1169  0.1898
17717TIP3    H274567   5.884   4.995  14.678 -1.0511 -0.3320 -0.1214
17718TIP3   OH274568   3.511   4.923  12.386 -0.0100 -0.0858  0.0742
17718TIP3    H174569   3.511   4.888  12.475  0.5535  0.4045  0.2707
17718TIP3    H274570   3.419   4.941  12.368 -0.2458 -1.1144  0.1826
17719TIP3   OH274571   6.175   4.691   1.130 -0.2400 -0.5066 -0.3513
17719TIP3    H174572   6.183   4.606   1.173  2.1904  1.2490  3.1461
17719TIP3    H274573   6.256   4.700   1.079 -1.1198 -0.7557 -1.8687
17720TIP3   OH274574   6.278   3.806   4.913 -0.7065  0.6879  0.2671
17720TIP3    H174575   6.192   3.780   4.947 -0.8868  0.6897 -0.1832
17720TIP3    H274576   6.272   3.792   4.819 -0.1725  0.5861  0.2473
17721TIP3   OH274577   5.151   1.642  13.598 -0.1581  0.2578 -0.3503
17721TIP3    H174578   5.235   1.659  13.640  0.3706 -1.5660 -0.5813
17721TIP3    H274579   5.093   1.709  13.633  0.7685  0.0485  1.7576
17722TIP3   OH274580   1.877   2.057  11.724 -0.7454 -0.7628 -0.2418
17722TIP3    H174581   1.862   2.003  11.802 -2.1605 -0.9342 -0.6089
17722TIP3    H274582   1.818   2.132  11.735  1.7634  1.2460  0.6747
17723TIP3   OH274583   0.132   6.749   1.895 -0.0983 -0.0442 -0.0990
17723TIP3    H174584   0.207   6.690   1.886  0.3184  0.2059  1.4044
17723TIP3    H274585   0.159   6.829   1.850 -0.1328 -0.5206 -0.9825
17724TIP3   OH274586   5.686   5.954  16.115 -0.0569 -0.3525 -0.1852
17724TIP3    H174587   5.661   6.024  16.055 -0.1557 -1.1542 -1.1076
17724TIP3    H274588   5.614   5.892  16.111 -0.1835 -0.3074  0.9797
17725TIP3   OH274589   3.657   1.266   5.563 -0.0303 -0.4927  0.1677
17725TIP3    H174590   3.742   1.295   5.596  0.6621 -0.1100 -1.7912
17725TIP3    H274591   3.600   1.264   5.640  1.5109  0.1271  1.3702
17726TIP3   OH274592   0.519   6.607  14.699  0.0028  0.1222  0.1056
17726TIP3    H174593   0.614   6.610  14.706 -0.0023  1.2869 -0.1771
17726TIP3    H274594   0.502   6.543  14.629  0.5971  0.3549 -0.2547
17727TIP3   OH274595   0.618   1.180   2.497 -0.5349  0.1102  0.2678
17727TIP3    H174596   0.552   1.113   2.516 -0.1129 -0.0566  1.1986
17727TIP3    H274597   0.692   1.158   2.554 -0.3517  1.3157  0.5220
17728TIP3   OH274598   1.356   6.591  13.734 -0.0861 -0.8739  0.0357
17728TIP3    H174599   1.306   6.665  13.700  1.0512  0.4770  1.1885
17728TIP3    H274600   1.415   6.566  13.662  0.4902  0.2684  0.0930
17729TIP3   OH274601   5.406   5.749  11.635 -0.2627 -0.1373  0.0762
17729TIP3    H174602   5.459   5.751  11.715  0.4852 -2.2123 -0.3191
17729TIP3    H274603   5.467   5.724  11.567 -1.4457 -1.0434 -0.6777
17730TIP3   OH274604   5.770   0.909  16.901  0.2237 -0.0944  0.7989
17730TIP3    H174605   5.819   0.974  16.952  1.2772 -0.1371 -0.1236
17730TIP3    H274606   5.720   0.961  16.838  0.8000 -0.1279  0.2917
17731TIP3   OH274607   0.618   5.315  13.112 -0.1287 -0.6991 -0.0550
17731TIP3    H174608   0.584   5.226  13.100 -2.0566  0.0552 -0.4736
17731TIP3    H274609   0.543   5.366  13.141  1.3718  0.4250  2.1635
17732TIP3   OH274610   1.871   4.751   2.576 -0.4861 -0.0425 -0.0358
17732TIP3    H174611   1.928   4.786   2.645  0.4556 -1.7418  0.1215
17732TIP3    H274612   1.855   4.825   2.518 -0.0185  1.0533  1.1736
17733TIP3   OH274613   3.577   3.666  12.463  0.3479  0.2771 -0.4231
17733TIP3    H174614   3.486   3.645  12.443  0.8968 -1.9231 -0.9071
17733TIP3    H274615   3.573   3.717  12.544 -1.3799  1.6226 -1.2872
17734TIP3   OH274616   3.466   5.647   3.737 -0.3071 -0.1593  0.2879
17734TIP3    H174617   3.455   5.593   3.659 -3.9603 -0.0554  0.5475
17734TIP3    H274618   3.441   5.590   3.810 -0.3096  0.7236  0.9990
17735TIP3   OH274619   3.852   2.872   0.095 -0.1214  0.5559 -0.0045
17735TIP3    H174620   3.898   2.918   0.025  0.1069  1.1966  0.5458
17735TIP3    H274621   3.921   2.825   0.142 -0.3773 -0.4828 -0.6573
17736TIP3   OH274622   2.917   6.355  11.957  0.7447  0.1742 -0.5396
17736TIP3    H174623   2.896   6.319  12.043  0.6765 -1.5906 -1.2501
17736TIP3    H274624   2.971   6.288  11.915  0.1585  0.6621 -2.1551
17737TIP3   OH274625   4.703   0.755  14.340  0.0769  0.4799 -0.2191
17737TIP3    H174626   4.769   0.689  14.363 -0.6723 -0.4570 -0.6434
17737TIP3    H274627   4.712   0.823  14.406 -1.3429 -1.6363  2.3454
17738TIP3   OH274628   2.134   2.540  14.689 -0.3589 -0.0381 -0.3770
17738TIP3    H174629   2.168   2.623  14.724  2.9346 -0.3119 -2.4681
17738TIP3    H274630   2.190   2.473  14.727 -1.8952 -1.1831 -0.0403
17739TIP3   OH274631   5.778   1.526   3.568 -0.2824 -0.1709 -0.2407
17739TIP3    H174632   5.697   1.542   3.617 -0.0462 -1.4445  0.6107
17739TIP3    H274633   5.767   1.576   3.487 -1.1374  1.1183  0.6389
17740TIP3   OH274634   6.363   3.360   1.200  0.3617  0.0312 -0.2962
17740TIP3    H174635   6.284   3.312   1.223  0.5390 -0.1624 -0.0831
17740TIP3    H274636   6.401   3.311   1.127 -0.2347  0.6808 -1.0498
17741TIP3   OH274637   6.431   1.443  15.369  0.1099 -0.2260 -0.3655
17741TIP3    H174638   6.380   1.409  15.295 -0.6770 -1.5832  0.7400
17741TIP3    H274639   6.493   1.373  15.388  0.4551  0.2092  0.1111
17742TIP3   OH274640   1.637   4.788  11.551  0.4933  0.4083 -0.2203
17742TIP3    H174641   1.582   4.756  11.622 -0.9500  1.4323 -0.8282
17742TIP3    H274642   1.676   4.709  11.513 -0.8257 -0.3870  0.0158
17743TIP3   OH274643   6.470   1.385   3.821 -0.2534  0.1495  0.3763
17743TIP3    H174644   6.529   1.459   3.835 -1.9497  1.3091  1.8174
17743TIP3    H274645   6.391   1.424   3.784 -1.3197 -0.8558  1.5176
17744TIP3   OH274646   0.830   6.364   6.760  0.1330 -0.0713  0.1148
17744TIP3    H174647   0.772   6.306   6.809 -0.6290  0.6320  0.0771
17744TIP3    H274648   0.859   6.311   6.685 -1.2305 -0.1481 -0.3880
17745TIP3   OH274649   1.334   6.124   0.062  0.2512  0.0037  0.7321
17745TIP3    H174650   1.240   6.107   0.069  0.1619  0.5659  0.9802
17745TIP3    H274651   1.346   6.154  -0.028  0.0023  0.9988  1.0104
17746TIP3   OH274652   2.893   6.273   2.335  0.1345  0.0611  0.2169
17746TIP3    H174653   2.815   6.320   2.305 -0.3046 -0.2358  0.8672
17746TIP3    H274654   2.858   6.197   2.383  0.8087  0.1892  0.9322
17747TIP3   OH274655   4.512   5.274  10.987 -0.3112 -0.4461 -0.0376
17747TIP3    H174656   4.465   5.275  11.071  0.0498 -0.6401  0.1688
17747TIP3    H274657   4.453   5.319  10.927  0.3018  1.4942  0.7670
17748TIP3   OH274658   6.695   2.490   0.456 -0.2563 -0.3568 -1.0681
17748TIP3    H174659   6.674   2.516   0.545  0.0845 -0.4598 -0.9603
17748TIP3    H274660   6.612   2.500   0.409 -0.1919  0.7166 -0.9841
17749TIP3   OH274661   5.462   5.816  14.812 -0.3921  0.4502  0.0783
17749TIP3    H174662   5.373   5.850  14.823 -0.5609 -0.3246  1.2772
17749TIP3    H274663   5.451   5.722  14.802  0.3181  0.3079  0.5534
17750TIP3   OH274664   5.854   1.368  12.025 -0.3719  0.1625 -0.2425
17750TIP3    H174665   5.851   1.274  12.006 -0.1171  0.4353 -1.7360
17750TIP3    H274666   5.948   1.387  12.033 -0.4569  0.1141  1.1154
17751TIP3   OH274667   0.706   5.229  11.695  0.2564  0.4431  0.0990
17751TIP3    H174668   0.664   5.147  11.669  0.0651  1.0903 -1.7544
17751TIP3    H274669   0.800   5.210  11.689  0.2154  0.5323 -0.9739
17752TIP3   OH274670   0.231   5.435  13.161 -0.1150  0.1716 -0.2003
17752TIP3    H174671   0.142   5.467  13.173  0.0411  0.0313  1.6247
17752TIP3    H274672   0.277   5.507  13.118 -1.1734  0.0907 -1.5312
17753TIP3   OH274673   4.486   1.527  15.875 -0.0512 -0.3748  0.3637
17753TIP3    H174674   4.393   1.544  15.856  0.3952  1.5003 -0.2928
17753TIP3    H274675   4.516   1.474  15.802 -0.4931 -0.6461  0.3736
17754TIP3   OH274676   2.179   4.854  14.215  0.5333  0.4615 -0.0556
17754TIP3    H174677   2.234   4.876  14.290  1.1810 -1.3166  0.0292
17754TIP3    H274678   2.089   4.863  14.248  0.7849  1.5079  0.3666
17755TIP3   OH274679   0.285   3.037   5.956 -0.3457  0.4945  0.1783
17755TIP3    H174680   0.363   3.091   5.950 -0.4782  0.8036  0.9921
17755TIP3    H274681   0.315   2.954   5.994 -0.2339  0.1918 -0.5565
17756TIP3   OH274682   0.699   4.965  11.542 -0.5036  0.1488  0.4195
17756TIP3    H174683   0.671   5.024  11.472  0.1491  0.5310  0.4642
17756TIP3    H274684   0.776   4.921  11.506  0.4039  1.0337  1.2151
17757TIP3   OH274685   6.442   0.235  14.293  0.5764 -0.2033  0.4740
17757TIP3    H174686   6.509   0.242  14.225  0.9986  3.2507  1.0214
17757TIP3    H274687   6.390   0.315  14.284  0.0456 -0.0564  3.5542
17758TIP3   OH274688   0.569   0.928   2.054 -0.2317  0.2870  0.0312
17758TIP3    H174689   0.595   0.845   2.094 -0.4625 -0.0756 -0.5606
17758TIP3    H274690   0.512   0.968   2.120 -1.4588 -0.7854 -0.3360
17759TIP3   OH274691   4.321   6.772   2.054  0.4481 -0.1680  0.6820
17759TIP3    H174692   4.326   6.840   2.121  1.0711  1.8950 -1.3349
17759TIP3    H274693   4.412   6.746   2.040  0.5274  0.6975 -0.5477
17760TIP3   OH274694   5.558   4.646  14.493 -0.3628 -0.3495 -0.2155
17760TIP3    H174695   5.492   4.710  14.518 -0.4781  0.8151 -3.1623
17760TIP3    H274696   5.637   4.697  14.476  0.3351 -1.3262 -0.0121
17761TIP3   OH274697   0.080   1.015  15.757 -0.1894  0.4591 -0.7728
17761TIP3    H174698   0.077   1.008  15.852  2.3353  1.7155 -0.5292
17761TIP3    H274699  -0.012   1.009  15.730 -0.8290 -2.1313  1.4972
17762TIP3   OH274700   6.398   2.097   3.398  0.6180  0.5295  0.5261
17762TIP3    H174701   6.351   2.054   3.328 -0.1389  1.0772  0.6809
17762TIP3    H274702   6.352   2.072   3.478  0.5411  1.1115  0.6756
17763TIP3   OH274703   4.576   0.664   3.962 -0.4615 -0.1381 -0.5444
17763TIP3    H174704   4.510   0.615   4.011 -0.7430  0.1078 -0.6769
17763TIP3    H274705   4.559   0.643   3.870 -0.9789  0.6908 -0.6471
17764TIP3   OH274706   2.733   3.170   1.553  0.4238 -0.1139  0.1991
17764TIP3    H174707   2.810   3.227   1.552  0.8223 -0.5630  1.8520
17764TIP3    H274708   2.769   3.082   1.556 -0.1762 -0.3754 -0.1595
17765TIP3   OH274709   0.161   2.597  11.892 -0.3513 -0.0202  0.8922
17765TIP3    H174710   0.256   2.589  11.886 -0.3477 -1.2355  2.0956
17765TIP3    H274711   0.140   2.568  11.981 -1.9184 -0.5736  0.3746
17766TIP3   OH274712   1.962   6.220   1.048 -0.3216  0.2507 -0.5617
17766TIP3    H174713   1.946   6.126   1.056  0.2867  0.1637 -0.3063
17766TIP3    H274714   2.051   6.232   1.079 -0.6140  1.0043  0.0155
17767TIP3   OH274715   6.541   2.327   3.961 -0.4522 -0.1700  0.3558
17767TIP3    H174716   6.482   2.379   3.906 -0.2959 -0.6306 -0.2558
17767TIP3    H274717   6.544   2.241   3.919 -0.3847 -0.5558  1.1307
17768TIP3   OH274718   5.793   5.582  10.742  0.0553 -0.3595 -0.8577
17768TIP3    H174719   5.711   5.593  10.791 -0.4066  2.0311 -2.0643
17768TIP3    H274720   5.774   5.510  10.682  0.4214 -2.9276  1.8337
17769TIP3   OH274721   3.078   6.637  12.070 -0.2202 -0.0454  0.1823
17769TIP3    H174722   3.028   6.559  12.094  0.9011 -0.3670  1.6542
17769TIP3    H274723   3.120   6.664  12.152  2.4917 -0.1679 -1.0377
17770TIP3   OH274724   4.178   5.994  14.493  0.6086  0.0839 -0.1070
17770TIP3    H174725   4.253   6.005  14.552 -0.5744 -0.7914  1.6309
17770TIP3    H274726   4.203   5.920  14.437  0.8759 -0.5374  0.8006
17771TIP3   OH274727   4.787   4.962  13.408  0.3096 -0.5243  0.1494
17771TIP3    H174728   4.838   4.945  13.487  1.1901  1.2674  0.0291
17771TIP3    H274729   4.835   4.919  13.338  1.5590  0.8692  0.0886
17772TIP3   OH274730   3.425   2.382   1.255 -0.3817  0.6356 -0.3244
17772TIP3    H174731   3.436   2.448   1.187  1.7329 -2.4608 -3.3410
17772TIP3    H274732   3.513   2.372   1.293 -0.9051  0.2386  0.8348
17773TIP3   OH274733   5.413   4.614  12.274 -0.5512 -0.7182 -0.1114
17773TIP3    H174734   5.426   4.695  12.226  1.1399 -0.0428  1.3601
17773TIP3    H274735   5.318   4.601  12.274 -1.2444  2.9637  2.1686
17774TIP3   OH274736   4.313   3.461  11.183  0.3005 -0.0220 -0.2727
17774TIP3    H174737   4.372   3.532  11.209  0.3266 -0.0192 -0.3401
17774TIP3    H274738   4.370   3.397  11.139  0.0693  0.5412 -1.4407
17775TIP3   OH274739   5.414   5.163  11.150 -0.1551  0.4046 -0.0091
17775TIP3    H174740   5.442   5.074  11.128  1.3772  0.1369  2.5894
17775TIP3    H274741   5.491   5.217  11.132 -0.6596  1.0245 -0.3468
17776TIP3   OH274742   4.829   5.392  16.821 -0.1480 -0.2736 -0.0645
17776TIP3    H174743   4.775   5.458  16.864  0.6543 -0.7814  1.7864
17776TIP3    H274744   4.767   5.327  16.789 -0.7988  0.3986 -0.1902
17777TIP3   OH274745   2.506   0.420  11.012  0.1338 -0.4377 -0.1054
17777TIP3    H174746   2.563   0.424  10.935 -0.5533 -1.3376 -0.6776
17777TIP3    H274747   2.467   0.508  11.017  0.0433 -0.4214 -0.9074
17778TIP3   OH274748   3.534   2.271   0.111  0.5995  0.0272  0.6988
17778TIP3    H174749   3.566   2.254   0.200 -0.4875  1.5847  1.4380
17778TIP3    H274750   3.465   2.206   0.098  1.0209 -0.4555  0.8289
17779TIP3   OH274751   2.873   3.239   4.825 -0.2625 -0.1169  0.5033
17779TIP3    H174752   2.962   3.256   4.795 -0.3723  0.5915  0.5632
17779TIP3    H274753   2.866   3.143   4.826 -0.1558 -0.1752 -1.3905
17780TIP3   OH274754   3.139   3.094   0.890  0.3993  0.0551  0.2937
17780TIP3    H174755   3.158   3.116   0.799  1.7605  0.7176  0.7069
17780TIP3    H274756   3.223   3.104   0.935  0.2217 -2.2192  1.2621
17781TIP3   OH274757   2.418   1.295  12.500  0.3289 -0.0041 -0.0584
17781TIP3    H174758   2.383   1.206  12.496  0.9659 -0.2539 -0.2170
17781TIP3    H274759   2.420   1.325  12.409 -0.5273  0.4382  0.0555
17782TIP3   OH274760   2.217   4.090  10.618 -0.7358  0.7404 -0.2663
17782TIP3    H174761   2.139   4.047  10.653 -0.7592  1.3741  0.4949
17782TIP3    H274762   2.188   4.178  10.596 -0.1801  1.0843  0.3287
17783TIP3   OH274763   1.864   2.675  15.864  0.3555  0.2194  0.3908
17783TIP3    H174764   1.944   2.623  15.868  0.7957  0.8976  0.6571
17783TIP3    H274765   1.877   2.733  15.789 -1.2343 -1.7711 -1.5605
17784TIP3   OH274766   6.468   4.302   3.605  0.5979  0.4696 -0.3099
17784TIP3    H174767   6.416   4.378   3.630 -2.1276 -2.0781  2.5648
17784TIP3    H274768   6.409   4.250   3.551  1.5100 -0.8088 -0.1104
17785TIP3   OH274769   0.988   6.465   1.712 -0.6679 -0.2548 -1.0456
17785TIP3    H174770   0.992   6.369   1.711 -0.0837 -0.2400 -2.1296
17785TIP3    H274771   0.923   6.487   1.645 -1.4038  0.1097 -0.2394
17786TIP3   OH274772   3.525   2.772  15.086  0.1972 -0.0717  0.3555
17786TIP3    H174773   3.554   2.818  15.165  0.1549 -0.9316  0.8867
17786TIP3    H274774   3.598   2.781  15.025  0.5556 -0.0558  0.7763
17787TIP3   OH274775   4.145   6.764  16.742 -0.1769 -0.4368  0.0634
17787TIP3    H174776   4.069   6.723  16.699 -0.5124  0.7878 -0.5529
17787TIP3    H274777   4.155   6.848  16.697  1.5525 -0.5776  0.1398
17788TIP3   OH274778   3.459   1.513   5.860  0.6049 -0.0236 -0.4467
17788TIP3    H174779   3.450   1.521   5.955  0.1802  0.9075 -0.5556
17788TIP3    H274780   3.466   1.419   5.844  1.8059 -0.1476  0.6020
17789TIP3   OH274781   2.988   1.130   1.525 -0.2886 -0.4337 -0.1957
17789TIP3    H174782   3.054   1.146   1.457  0.7496  0.2219  0.9283
17789TIP3    H274783   2.931   1.207   1.521 -0.9842 -0.9695 -1.1228
17790TIP3   OH274784   4.008   2.448   5.258 -0.5803  0.1555 -0.1345
17790TIP3    H174785   4.016   2.442   5.353 -3.4049  0.1039  0.1710
17790TIP3    H274786   4.011   2.357   5.228  3.0270  0.2304 -0.5154
17791TIP3   OH274787   3.661   0.407  12.727  0.2062  0.5491 -0.2202
17791TIP3    H174788   3.624   0.404  12.639 -1.2528  1.3597  0.3289
17791TIP3    H274789   3.644   0.320  12.763  0.0251  0.4943 -0.4367
17792TIP3   OH274790   6.584   0.041  11.766  0.3439  0.8226  0.0467
17792TIP3    H174791   6.641  -0.023  11.810  0.9475  0.2536 -1.5002
17792TIP3    H274792   6.503   0.039  11.816 -0.4881 -2.8061 -1.1429
17793TIP3   OH274793   2.420   3.514  14.957  0.6614  0.2666 -0.3233
17793TIP3    H174794   2.414   3.489  15.049  1.2801 -1.8267 -0.8030
17793TIP3    H274795   2.391   3.437  14.909 -0.7875  1.7118 -1.9011
17794TIP3   OH274796   1.556   3.458   5.143  0.5029 -0.3570 -0.1890
17794TIP3    H174797   1.552   3.426   5.233  1.9434  0.7126  0.2743
17794TIP3    H274798   1.649   3.466   5.124  0.2864  2.9800 -0.4600
17795TIP3   OH274799   1.890   0.917  16.306 -0.5656  0.1055 -0.1991
17795TIP3    H174800   1.809   0.950  16.266 -0.5045  2.0841  1.1826
17795TIP3    H274801   1.950   0.992  16.304  1.6020 -1.5229 -1.9266
17796TIP3   OH274802   4.948   5.533   0.076  0.2293  0.4308 -0.1553
17796TIP3    H174803   5.030   5.483   0.074  0.3597  0.6081 -2.2508
17796TIP3    H274804   4.970   5.615   0.032 -0.5670  1.3593  1.1387
17797TIP3   OH274805   3.223   5.663   0.199 -0.0228  0.3515  0.1763
17797TIP3    H174806   3.228   5.575   0.238 -0.0279  0.8016  1.2212
17797TIP3    H274807   3.192   5.719   0.270 -1.5637  0.9341 -0.9115
17798TIP3   OH274808   1.826   4.242  15.805  0.1391  0.1339  0.0702
17798TIP3    H174809   1.768   4.173  15.773  0.0858 -0.0755  0.6038
17798TIP3    H274810   1.881   4.198  15.871  0.2614  0.5442  0.2454
17799TIP3   OH274811   6.372   0.611   6.184 -0.1460 -0.1025  0.1972
17799TIP3    H174812   6.443   0.587   6.124  0.1048  1.5054 -0.2148
17799TIP3    H274813   6.316   0.534   6.187 -1.0144  0.2114 -3.3893
17800TIP3   OH274814   0.760   4.848  12.876 -0.1070 -0.1034 -0.2859
17800TIP3    H174815   0.706   4.857  12.954  0.0766  1.5242 -0.3078
17800TIP3    H274816   0.850   4.861  12.908  0.1658 -1.3671 -0.4782
17801TIP3   OH274817   0.960   1.905  14.853 -0.8017 -0.4309 -0.6155
17801TIP3    H174818   0.887   1.960  14.824 -0.1868  0.0303 -1.3175
17801TIP3    H274819   1.011   1.890  14.774  0.9850  0.9458  0.2139
17802TIP3   OH274820   1.188   0.540   5.873 -0.4558  0.0407  0.1493
17802TIP3    H174821   1.266   0.528   5.818  1.4003  1.4882  2.2545
17802TIP3    H274822   1.193   0.470   5.938  0.9229  1.8679  2.1520
17803TIP3   OH274823   6.271   2.488   1.567 -0.3926  0.7453  0.0478
17803TIP3    H174824   6.292   2.475   1.660 -0.5232 -1.3939 -0.1542
17803TIP3    H274825   6.194   2.433   1.552 -1.3472  2.3171 -0.9942
17804TIP3   OH274826   5.342   5.315  11.908  0.4777  0.4221  0.7720
17804TIP3    H174827   5.323   5.222  11.905 -1.2025  0.7293  1.1721
17804TIP3    H274828   5.373   5.337  11.820  1.0115 -0.5121  0.7136
17805TIP3   OH274829   6.451   5.834  14.111 -0.1120  0.1285  0.0332
17805TIP3    H174830   6.471   5.928  14.117 -0.6693  0.3952 -1.6646
17805TIP3    H274831   6.528   5.796  14.068 -0.0329 -0.1436  0.4124
17806TIP3   OH274832   5.065   2.555   3.994 -0.1751  0.0937  0.5398
17806TIP3    H174833   5.084   2.467   4.027  1.3988  0.1725 -0.0494
17806TIP3    H274834   5.122   2.612   4.045 -1.3873  0.8312  1.1097
17807TIP3   OH274835   3.391   4.804   4.602 -0.2400 -0.0850  1.1719
17807TIP3    H174836   3.304   4.776   4.572 -0.2678 -1.1724  2.1987
17807TIP3    H274837   3.451   4.771   4.535 -0.3484 -2.0193  1.9699
17808TIP3   OH274838   2.348   3.922   5.668 -0.3170 -0.1313 -0.9749
17808TIP3    H174839   2.253   3.909   5.665 -0.2533 -0.8323 -0.1529
17808TIP3    H274840   2.364   3.964   5.753  0.3287 -2.0425 -0.1060
17809TIP3   OH274841   4.411   2.837   2.763  0.2442 -0.1813  0.1809
17809TIP3    H174842   4.452   2.811   2.845 -0.0621  1.0898  0.7611
17809TIP3    H274843   4.362   2.760   2.735  0.2611 -0.6000  1.2570
17810TIP3   OH274844   4.321   3.434  16.835  0.2116 -0.0558  0.1202
17810TIP3    H174845   4.228   3.457  16.837  0.4755  1.3628 -1.6366
17810TIP3    H274846   4.329   3.377  16.759  0.8375  0.1452  0.0332
17811TIP3   OH274847   2.353   6.073  11.953  0.4198  0.3325 -0.0308
17811TIP3    H174848   2.269   6.103  11.988 -1.1028 -3.7289  0.4237
17811TIP3    H274849   2.349   6.092  11.859  0.1677  2.4405  0.3734
17812TIP3   OH274850   4.276   6.285  15.234 -0.4101  0.5858 -0.2805
17812TIP3    H174851   4.318   6.345  15.295 -0.7005  0.6573 -0.1491
17812TIP3    H274852   4.213   6.339  15.186 -0.4924  0.4400 -0.3397
17813TIP3   OH274853   3.638   0.803  13.978  0.0267  0.3600  0.1624
17813TIP3    H174854   3.723   0.764  13.957 -0.7938 -1.2345 -0.4347
17813TIP3    H274855   3.583   0.784  13.901 -0.7312  1.8573  0.2908
17814TIP3   OH274856   5.294   1.782  15.566 -0.3929 -0.2288 -0.1700
17814TIP3    H174857   5.236   1.801  15.492  0.6272 -1.9945 -1.5268
17814TIP3    H274858   5.256   1.704  15.606 -0.7358  0.5116  0.9785
17815TIP3   OH274859   4.620   2.053   0.893  0.4047 -0.3869 -0.1931
17815TIP3    H174860   4.648   2.031   0.804 -1.7795 -1.0802 -0.7656
17815TIP3    H274861   4.539   2.103   0.881 -0.4906 -1.3706  1.4160
17816TIP3   OH274862   2.769   0.522  13.639 -0.1216 -0.0707 -0.3511
17816TIP3    H174863   2.795   0.477  13.559 -1.1625  0.1841 -0.8531
17816TIP3    H274864   2.830   0.490  13.705 -0.7784 -2.2095 -0.6843
17817TIP3   OH274865   0.040   3.538  11.786 -0.1891  0.5597  0.5436
17817TIP3    H174866  -0.049   3.511  11.763  0.7225 -1.6257 -0.6782
17817TIP3    H274867   0.075   3.465  11.837  1.3458  0.7641 -0.1729
17818TIP3   OH274868   4.359   2.064  13.755  0.0934 -0.2466 -0.1417
17818TIP3    H174869   4.292   1.996  13.750 -1.2283  0.8426  1.8355
17818TIP3    H274870   4.404   2.049  13.838 -0.2831  1.3322  0.3750
17819TIP3   OH274871   4.229   5.833   2.244 -0.6256 -0.1228  0.1233
17819TIP3    H174872   4.214   5.869   2.156 -0.1303  1.8207  0.7684
17819TIP3    H274873   4.305   5.776   2.234 -1.3131 -0.8836 -0.9200
17820TIP3   OH274874   2.158   4.545  11.972 -0.3031  0.2653  0.1131
17820TIP3    H174875   2.075   4.585  11.949 -0.3548  0.5352  0.7667
17820TIP3    H274876   2.220   4.579  11.907 -0.6582  0.2100 -0.2564
17821TIP3   OH274877   4.336   3.788  14.614  0.2757  0.6301 -0.3001
17821TIP3    H174878   4.267   3.724  14.635 -0.5938  1.8107  0.5652
17821TIP3    H274879   4.398   3.780  14.686 -0.4451  1.5805  0.4401
17822TIP3   OH274880   1.894   2.352  12.665  0.0730  0.7259 -0.5158
17822TIP3    H174881   1.982   2.389  12.675  0.5948 -0.4205 -0.7371
17822TIP3    H274882   1.835   2.424  12.689  1.0781  0.8524  1.8281
17823TIP3   OH274883   0.693   5.348  15.370 -0.3691  0.1136 -0.0281
17823TIP3    H174884   0.736   5.316  15.290 -0.8832 -0.8915  0.0794
17823TIP3    H274885   0.747   5.422  15.398 -1.0563  1.5510 -2.1873
17824TIP3   OH274886   5.220   1.692  11.964 -0.0627  0.1586 -0.5542
17824TIP3    H174887   5.176   1.775  11.947  0.1135  0.5052  0.6236
17824TIP3    H274888   5.217   1.646  11.880 -2.0333  0.4651 -0.7138
17825TIP3   OH274889   0.909   3.568  11.902 -0.0222 -0.4225  0.5537
17825TIP3    H174890   0.918   3.498  11.967  0.6194  0.7515  1.7840
17825TIP3    H274891   0.994   3.570  11.858  0.0233 -0.3158  0.6442
17826TIP3   OH274892   3.920   4.239  12.441 -0.3882 -0.0007  0.1028
17826TIP3    H174893   3.851   4.304  12.446  0.0232  0.4924 -0.5397
17826TIP3    H274894   3.897   4.174  12.508 -0.5848  1.0055  1.0284
17827TIP3   OH274895   3.367   6.088   4.264  0.0158  0.1017 -0.4007
17827TIP3    H174896   3.377   6.014   4.324 -2.4917 -0.4918 -0.5889
17827TIP3    H274897   3.438   6.147   4.287  0.1065 -0.8343  2.0704
17828TIP3   OH274898   3.844   0.024  15.011 -0.0488  0.4897 -0.5413
17828TIP3    H174899   3.780  -0.038  15.046 -0.1809 -1.2365 -3.4584
17828TIP3    H274900   3.792   0.101  14.987 -0.2290  0.9555  1.2046
17829TIP3   OH274901   5.111   5.103  15.859 -0.0424 -0.7775 -0.7492
17829TIP3    H174902   5.182   5.083  15.921 -1.4072 -0.6147  0.9385
17829TIP3    H274903   5.061   5.021  15.854  0.0380 -0.7780 -1.6514
17830TIP3   OH274904   4.947   4.250  14.369 -0.4093  0.1776  0.9118
17830TIP3    H174905   5.031   4.205  14.373  0.8055  2.1179 -0.8301
17830TIP3    H274906   4.882   4.180  14.376  1.3077 -1.3567  2.4570
17831TIP3   OH274907   0.776   5.804  15.007 -0.3522 -0.1534 -0.0747
17831TIP3    H174908   0.766   5.714  15.035 -0.9941  0.4378  1.7313
17831TIP3    H274909   0.754   5.856  15.084  0.7301  1.5455 -0.8467
17832TIP3   OH274910   2.322   6.356  15.599  0.4817 -0.8235 -0.2927
17832TIP3    H174911   2.321   6.451  15.610 -2.5570 -0.6545 -1.2056
17832TIP3    H274912   2.278   6.322  15.677 -0.1835 -1.3295 -0.8828
17833TIP3   OH274913   3.076   5.334  11.181 -0.1186  0.2261  0.0029
17833TIP3    H174914   3.048   5.291  11.100  3.1624 -1.6024 -0.3137
17833TIP3    H274915   3.023   5.292  11.249 -0.2072 -1.0227 -0.8042
17834TIP3   OH274916   0.407   2.655  17.102  0.4945  0.3296  0.2887
17834TIP3    H174917   0.326   2.674  17.149  0.4623  1.2554 -0.1408
17834TIP3    H274918   0.447   2.584  17.153 -1.2138 -1.0953 -0.2348
17835TIP3   OH274919   0.465   1.189  14.544 -0.2833 -0.0298 -0.3814
17835TIP3    H174920   0.379   1.151  14.559  0.8508 -2.5876  0.1622
17835TIP3    H274921   0.498   1.144  14.466  1.8793 -1.7599  1.3886
17836TIP3   OH274922   2.801   4.821   3.281 -0.2894 -0.8061  0.3828
17836TIP3    H174923   2.852   4.902   3.275 -0.4490 -0.7230  0.1661
17836TIP3    H274924   2.744   4.834   3.357  0.1993 -1.0062  0.7879
17837TIP3   OH274925   1.861   4.672   3.483  0.2920  0.4679  0.0160
17837TIP3    H174926   1.857   4.583   3.519  0.8471 -0.5581 -2.2642
17837TIP3    H274927   1.817   4.665   3.399  1.1161  2.1573 -0.5883
17838TIP3   OH274928   3.695   0.827  16.446 -0.5272 -0.6100 -0.4074
17838TIP3    H174929   3.729   0.784  16.525  1.7183 -0.6755 -1.3201
17838TIP3    H274930   3.705   0.921  16.464 -1.1427 -0.5947 -0.1511
17839TIP3   OH274931   1.626   3.259   3.519 -0.0121 -0.2614  0.1875
17839TIP3    H174932   1.697   3.197   3.531 -0.5958 -0.9695  0.0096
17839TIP3    H274933   1.548   3.205   3.508 -0.1856  0.4047 -2.3896
17840TIP3   OH274934   2.058   6.205  10.882 -0.4000  0.5448 -0.3522
17840TIP3    H174935   2.082   6.290  10.845  1.4312  0.8162  1.2895
17840TIP3    H274936   2.076   6.143  10.811  1.7430  1.1672 -0.4148
17841TIP3   OH274937   5.402   3.854   2.882  0.2201 -0.5448  0.1098
17841TIP3    H174938   5.319   3.812   2.906 -0.2546 -0.0771 -0.6722
17841TIP3    H274939   5.415   3.829   2.790 -1.1111  2.5856 -1.0575
17842TIP3   OH274940   3.428   1.142  11.596  0.5097  0.2943 -0.0287
17842TIP3    H174941   3.342   1.114  11.626  0.8201 -2.4012 -1.4049
17842TIP3    H274942   3.477   1.160  11.677 -0.9336  0.6637  0.7896
17843TIP3   OH274943   4.743   5.029   0.844 -0.3333  0.1302 -0.4882
17843TIP3    H174944   4.749   5.081   0.924  1.2593  0.6458 -0.9067
17843TIP3    H274945   4.800   4.953   0.860  1.7135  1.2925 -1.8527
17844TIP3   OH274946   2.497   5.398  15.953 -0.0158 -0.4586  0.3461
17844TIP3    H174947   2.528   5.468  15.894  1.8394 -0.7055  0.9814
17844TIP3    H274948   2.573   5.375  16.005 -0.9194 -2.1645  0.9710
17845TIP3   OH274949   3.515   1.225   5.827  0.2314  0.4433 -0.3191
17845TIP3    H174950   3.435   1.173   5.826  0.1229  0.6101 -0.1869
17845TIP3    H274951   3.563   1.194   5.904 -0.5340  1.6079  0.6573
17846TIP3   OH274952   0.257   6.651  12.129  0.1239 -0.0325 -0.0580
17846TIP3    H174953   0.219   6.613  12.050  1.4706 -1.1098 -0.2305
17846TIP3    H274954   0.294   6.734  12.101 -0.0242 -0.0841 -0.4073
17847TIP3   OH274955   5.534   1.093   1.512  0.1070  0.0378  0.3847
17847TIP3    H174956   5.570   1.010   1.480 -0.3351  0.6943 -2.0676
17847TIP3    H274957   5.600   1.126   1.572  1.1944 -1.1611 -0.0996
17848TIP3   OH274958   2.673   4.790  16.846 -0.4175  0.1675 -0.0280
17848TIP3    H174959   2.690   4.699  16.869  2.2266  0.7842  0.7121
17848TIP3    H274960   2.607   4.785  16.776  0.0232 -2.3091 -0.3485
17849TIP3   OH274961   1.751   5.298  16.838  0.3019 -0.1847 -0.3916
17849TIP3    H174962   1.813   5.254  16.895 -0.1114 -3.5543 -2.2627
17849TIP3    H274963   1.802   5.365  16.793  1.5087 -0.0835  1.0564
17850TIP3   OH274964   3.240   5.955  13.819 -0.2149  0.3857 -0.3819
17850TIP3    H174965   3.292   5.942  13.740 -1.3470 -2.1795 -0.7821
17850TIP3    H274966   3.268   5.885  13.879 -2.2611 -0.2827 -0.1377
17851TIP3   OH274967   1.995   4.710   5.648 -0.1325 -0.0269 -0.2751
17851TIP3    H174968   1.911   4.677   5.680 -0.0773  0.4234  0.3444
17851TIP3    H274969   2.041   4.738   5.727  0.3496  0.3104 -0.6741
17852TIP3   OH274970   3.217   6.693  11.197 -0.5361  0.6411 -0.0906
17852TIP3    H174971   3.255   6.609  11.172 -0.5650  1.0330 -1.4901
17852TIP3    H274972   3.122   6.679  11.193 -0.5434  0.8713 -0.8066
17853TIP3   OH274973   5.035   1.849  14.482  0.5339  0.3575 -0.4546
17853TIP3    H174974   5.120   1.815  14.512 -0.7505 -2.8795 -0.0247
17853TIP3    H274975   4.971   1.794  14.528 -1.8273  2.6326 -0.8300
17854TIP3   OH274976   0.942   0.589  11.340 -0.0062 -0.2381 -0.1194
17854TIP3    H174977   0.981   0.672  11.368 -2.4773  0.4937  1.5201
17854TIP3    H274978   0.989   0.566  11.261  1.0605  2.5212 -0.4115
17855TIP3   OH274979   6.692   4.380   1.222  0.3335  0.3648 -0.0859
17855TIP3    H174980   6.745   4.304   1.246 -0.3482 -0.1206 -0.0944
17855TIP3    H274981   6.637   4.396   1.298  0.9039  1.2486  0.1628
17856TIP3   OH274982   3.599   6.584  13.682  0.0528 -0.0139  0.0577
17856TIP3    H174983   3.646   6.501  13.677  1.8556  0.9078  0.7308
17856TIP3    H274984   3.542   6.575  13.758 -1.0347 -1.2291 -0.8792
17857TIP3   OH274985   0.405   4.957  16.088 -0.3296 -0.0121 -0.0668
17857TIP3    H174986   0.433   4.937  15.999 -0.0860  0.6319 -0.1448
17857TIP3    H274987   0.486   4.965  16.138 -0.4941 -1.1941  0.4072
17858TIP3   OH274988   0.647   4.027  14.131 -0.2183  0.4095 -0.1784
17858TIP3    H174989   0.700   4.064  14.201 -2.2755  1.1104  1.0765
17858TIP3    H274990   0.614   3.944  14.166 -0.4504  0.2795 -0.6923
17859TIP3   OH274991   1.546   2.450  11.612 -0.0531  0.0025  0.0574
17859TIP3    H174992   1.547   2.545  11.606 -2.2310 -0.0056 -1.7165
17859TIP3    H274993   1.488   2.431  11.685 -0.0535  0.0360  0.0663
17860TIP3   OH274994   5.747   3.060  16.092 -0.1909 -0.2741 -0.6986
17860TIP3    H174995   5.758   3.006  16.014 -0.7998 -2.4071  0.6188
17860TIP3    H274996   5.658   3.094  16.086 -0.2264 -0.4132 -0.9508
17861TIP3   OH274997   4.906   1.187  12.653  0.3422 -0.3483 -0.3685
17861TIP3    H174998   4.990   1.206  12.695 -0.2083  3.1272 -0.5342
17861TIP3    H274999   4.842   1.196  12.724 -0.2045  1.1395 -1.0203
17862TIP3   OH275000   1.175   0.581  16.721  0.4963  0.5291 -0.0382
17862TIP3    H175001   1.084   0.605  16.705  0.3906 -0.0588 -0.3793
17862TIP3    H275002   1.210   0.651  16.775  0.2587  1.5250 -1.1335
17863TIP3   OH275003   5.544   4.627   5.917  0.0353 -1.8605 -0.6047
17863TIP3    H175004   5.586   4.668   5.841  1.0779  1.5598  1.5860
17863TIP3    H275005   5.462   4.674   5.928  1.2182 -0.1600  1.9448
17864TIP3   OH275006   5.129   2.808   4.956 -0.3549 -0.0674  0.3357
17864TIP3    H175007   5.206   2.820   5.012 -0.1849  0.3486  0.0160
17864TIP3    H275008   5.157   2.744   4.891 -0.7418 -1.0016  1.0720
17865TIP3   OH275009   2.387   4.931  16.612  0.8273 -0.6717 -0.5984
17865TIP3    H175010   2.331   4.917  16.689  1.7974  1.5353  0.6275
17865TIP3    H275011   2.456   4.865  16.621  0.8103 -0.5882  0.3357
17866TIP3   OH275012   5.838   4.380   1.767  0.3816  0.0982  0.5576
17866TIP3    H175013   5.828   4.434   1.689  1.5040  0.0272  0.3398
17866TIP3    H275014   5.772   4.311   1.758  1.5783 -0.8810 -1.1922
17867TIP3   OH275015   1.509   0.841   1.391 -0.3351 -0.1648 -0.1504
17867TIP3    H175016   1.462   0.899   1.452 -0.2633  0.2327 -0.4744
17867TIP3    H275017   1.467   0.855   1.307  0.1183 -0.0851 -0.3681
17868TIP3   OH275018   2.671   5.901   4.763 -0.4477  0.5208 -0.6991
17868TIP3    H175019   2.628   5.816   4.757 -1.1278  0.8160 -0.1046
17868TIP3    H275020   2.600   5.964   4.770  0.0642  1.0542 -0.1482
17869TIP3   OH275021   5.542   1.408  10.464 -0.0778  0.5238 -0.7154
17869TIP3    H175022   5.504   1.481  10.512 -1.1794  1.2190 -2.5573
17869TIP3    H275023   5.477   1.338  10.472  1.5670 -0.8621  2.2111
17870TIP3   OH275024   6.768   2.787   5.779 -0.2865  0.5798  0.1732
17870TIP3    H175025   6.822   2.717   5.818 -1.0919  0.7745  1.7108
17870TIP3    H275026   6.832   2.846   5.739  0.5108 -0.2111  0.2236
17871TIP3   OH275027   2.664   1.383  16.086 -0.0275 -0.4080  0.0949
17871TIP3    H175028   2.707   1.466  16.064  0.0651 -1.1051 -2.6443
17871TIP3    H275029   2.733   1.331  16.127  0.9124 -0.3880 -1.4134
17872TIP3   OH275030   0.616   6.765   2.837  0.4226 -0.7851 -0.5277
17872TIP3    H175031   0.691   6.720   2.877 -0.1753 -1.0083  0.3948
17872TIP3    H275032   0.650   6.850   2.811  0.9124 -0.7271  0.2489
17873TIP3   OH275033   4.943   2.499  13.154  0.1503 -0.6553 -0.1303
17873TIP3    H175034   4.993   2.423  13.184  2.4232  0.4334 -0.9725
17873TIP3    H275035   4.979   2.520  13.069  0.7691  2.3355  0.7496
17874TIP3   OH275036   2.213   6.721  15.051  0.6547  0.1325 -0.3453
17874TIP3    H175037   2.284   6.777  15.021  1.6656 -0.0399  1.5952
17874TIP3    H275038   2.244   6.684  15.134 -1.1892 -0.9484 -0.0753
17875TIP3   OH275039   3.640   6.123  11.695  0.1556  0.0653 -0.3942
17875TIP3    H175040   3.588   6.166  11.763 -0.0744  1.7607 -1.5693
17875TIP3    H275041   3.707   6.075  11.742 -0.7448  0.1823  1.0594
17876TIP3   OH275042   4.794   6.649   3.393 -0.5865 -0.9703  0.4583
17876TIP3    H175043   4.884   6.630   3.420  0.2356  1.2866 -0.3873
17876TIP3    H275044   4.794   6.632   3.299 -0.2844  1.2509 -0.0054
17877TIP3   OH275045   4.952   6.047  16.772 -0.5537 -0.2044 -0.4457
17877TIP3    H175046   5.025   6.090  16.727 -0.9415  3.0650  1.6824
17877TIP3    H275047   4.991   5.972  16.816  1.5460  1.2856  0.3939
17878TIP3   OH275048   3.005   5.406   3.933  0.5558 -0.4071  0.2264
17878TIP3    H175049   2.975   5.466   3.865  0.5083 -1.5755 -0.8173
17878TIP3    H275050   3.047   5.463   3.998  0.5046  0.7533 -0.7179
17879TIP3   OH275051   2.748   5.132  15.682 -0.2182 -0.4226 -0.2881
17879TIP3    H175052   2.739   5.100  15.772  0.1500  2.4621  0.8512
17879TIP3    H275053   2.801   5.211  15.689  0.8745 -0.7714 -3.2306
17880TIP3   OH275054   4.938   4.829  13.607  0.8013  0.5080 -0.5083
17880TIP3    H175055   4.953   4.764  13.538  2.2281 -0.4931  0.6660
17880TIP3    H275056   4.970   4.786  13.687 -2.3414  0.9108  1.1539
17881TIP3   OH275057   0.425   3.440  11.508  0.2483  0.0938  0.2363
17881TIP3    H175058   0.482   3.501  11.555 -0.1222  0.2871  0.4403
17881TIP3    H275059   0.480   3.405  11.437  0.3284  1.0154 -0.1672
17882TIP3   OH275060   6.330   4.556   5.240 -0.1098 -0.0293 -0.3571
17882TIP3    H175061   6.279   4.490   5.193  0.1024 -0.8489  0.5293
17882TIP3    H275062   6.291   4.639   5.215 -1.0784 -0.5626 -0.6565
17883TIP3   OH275063   6.331   4.921  10.737 -0.7753 -0.6079 -0.1120
17883TIP3    H175064   6.280   4.952  10.663  0.3146  0.4227 -0.4507
17883TIP3    H275065   6.407   4.878  10.698 -0.1755 -0.0240  0.4015
17884TIP3   OH275066   2.317   4.654   2.284 -0.0963 -0.1870 -0.4826
17884TIP3    H175067   2.248   4.638   2.348  0.7763  3.5655  1.7072
17884TIP3    H275068   2.271   4.664   2.201 -2.0032  0.3669  0.5781
17885TIP3   OH275069   1.222   4.992   4.281 -0.7900  0.5605 -0.0376
17885TIP3    H175070   1.205   4.903   4.313 -2.1026  0.1357 -1.7522
17885TIP3    H275071   1.135   5.030   4.269 -0.3611  1.0260 -2.0380
17886TIP3   OH275072   4.508   3.146  11.291 -0.5553  0.1415 -0.3538
17886TIP3    H175073   4.519   3.063  11.246  1.7694  0.2098 -0.0476
17886TIP3    H275074   4.458   3.200  11.230 -0.5406 -0.9103 -1.3305
17887TIP3   OH275075   1.880   4.361   5.706 -0.3793  0.6461  1.3499
17887TIP3    H175076   1.830   4.428   5.660  0.9400  0.1009 -1.0374
17887TIP3    H275077   1.901   4.401   5.791 -1.7259  2.2619  0.9688
17888TIP3   OH275078   3.543   5.366  12.429 -0.4262  0.2343  0.1298
17888TIP3    H175079   3.456   5.392  12.458 -0.9903  1.0383 -2.0704
17888TIP3    H275080   3.603   5.409  12.490 -1.5200 -0.1473  1.5340
17889TIP3   OH275081   6.130   1.525   1.014  0.0186  0.2813  0.4482
17889TIP3    H175082   6.172   1.607   0.988 -0.1804 -0.1787 -1.5121
17889TIP3    H275083   6.044   1.527   0.971 -0.4172 -0.4734  1.2525
17890TIP3   OH275084   4.517   3.418   3.953  0.1418  0.2778  0.9311
17890TIP3    H175085   4.563   3.334   3.954  1.4752  0.9761  0.3037
17890TIP3    H275086   4.546   3.461   3.873 -1.3375  0.9265  0.7049
17891TIP3   OH275087   1.396   6.020   2.426  1.2266 -0.1261  0.3057
17891TIP3    H175088   1.400   5.931   2.462  2.0951  0.1368  0.8965
17891TIP3    H275089   1.327   6.016   2.360  0.9719 -1.1352  0.6125
17892TIP3   OH275090   3.240   2.553  15.063  0.0994  0.2273  0.4564
17892TIP3    H175091   3.333   2.567  15.045  0.4611  0.3504  2.2443
17892TIP3    H275092   3.204   2.519  14.980  1.9537 -0.9189  0.0661
17893TIP3   OH275093   4.956   3.311   3.081  0.1903  0.5878  0.2721
17893TIP3    H175094   4.963   3.271   2.994 -0.7137 -0.9336  0.8495
17893TIP3    H275095   4.874   3.276   3.116  0.7260  0.8879  1.8828
17894TIP3   OH275096   0.655   1.737  16.376 -0.4167  0.0298 -0.3762
17894TIP3    H175097   0.704   1.806  16.420 -0.3570 -0.5224  0.4474
17894TIP3    H275098   0.718   1.699  16.314 -0.4529  0.7091 -0.8355
17895TIP3   OH275099   6.739   1.298  12.732 -0.2728 -0.1917  0.3534
17895TIP3    H175100   6.688   1.230  12.687 -0.5819  0.8854 -0.9565
17895TIP3    H275101   6.759   1.259  12.818  0.6952 -2.4721 -0.8102
17896TIP3   OH275102   4.844   1.629  13.640 -0.1256 -0.0415 -0.4622
17896TIP3    H175103   4.755   1.596  13.652  0.0319 -0.2648  0.1110
17896TIP3    H275104   4.899   1.551  13.649  0.1698  0.1937 -0.2210
17897TIP3   OH275105   0.786   3.032  11.111  0.1612  0.0161 -0.7901
17897TIP3    H175106   0.737   3.111  11.088  2.1430  1.3760 -0.5315
17897TIP3    H275107   0.819   3.000  11.027 -1.0851 -0.8928 -0.9627
17898TIP3   OH275108   5.965   1.873  12.941  0.1040  0.0611  0.0178
17898TIP3    H175109   6.058   1.897  12.938  0.1161 -0.0967 -0.9032
17898TIP3    H275110   5.921   1.944  12.895  0.0538 -1.2017 -1.9876
17899TIP3   OH275111   0.690   5.428  16.639 -0.2238  0.4095  0.5299
17899TIP3    H175112   0.688   5.415  16.545 -1.7247 -0.6940  0.6751
17899TIP3    H275113   0.711   5.341  16.675 -1.1363  0.4596  1.2360
17900TIP3   OH275114   4.399   0.588   0.828  0.1152 -0.3666  0.0339
17900TIP3    H175115   4.396   0.507   0.879  0.7192 -1.9662 -2.3246
17900TIP3    H275116   4.311   0.597   0.792 -0.5803  1.2578  1.9460
17901TIP3   OH275117   2.757   6.542   0.286 -0.8219  0.4676 -0.0310
17901TIP3    H175118   2.751   6.551   0.381  0.2128  1.4612 -0.0368
17901TIP3    H275119   2.840   6.496   0.271 -1.6780 -1.0154 -0.4173
17902TIP3   OH275120   0.310   6.258   5.902 -0.1927  0.1369 -0.3830
17902TIP3    H175121   0.343   6.347   5.897 -1.5321  0.6271 -1.0673
17902TIP3    H275122   0.219   6.268   5.930 -0.2475 -1.0487 -0.0786
17903TIP3   OH275123   5.820   2.907   4.550 -0.2563 -0.2598 -0.1037
17903TIP3    H175124   5.915   2.906   4.533 -0.1417  0.0245  0.4876
17903TIP3    H275125   5.813   2.897   4.645 -0.7534  1.4328  0.0646
17904TIP3   OH275126   3.912   0.782   0.574  0.0585 -0.0583  0.9587
17904TIP3    H175127   3.990   0.834   0.590 -0.4290  0.9094  0.2756
17904TIP3    H275128   3.890   0.744   0.659 -0.6457  2.3444  1.9337
17905TIP3   OH275129   5.472   5.689   4.840 -0.8762 -0.2158 -0.6957
17905TIP3    H175130   5.532   5.675   4.913 -0.7882 -2.8180 -1.1964
17905TIP3    H275131   5.401   5.742   4.877 -0.3751 -0.6902  1.0283
17906TIP3   OH275132   4.472   4.535   4.288 -0.1197 -0.0337 -0.7899
17906TIP3    H175133   4.419   4.478   4.344  1.7469  0.1894  1.3387
17906TIP3    H275134   4.411   4.603   4.258 -1.4217 -0.7684  0.0896
17907TIP3   OH275135   2.225   1.025  14.659  0.6178 -0.2923  0.0233
17907TIP3    H175136   2.137   0.994  14.639  0.9553  0.1845 -2.5887
17907TIP3    H275137   2.218   1.062  14.747 -1.5843 -0.9346  0.1840
17908TIP3   OH275138   2.381   0.634   5.729  0.5941  0.3833 -0.9273
17908TIP3    H175139   2.448   0.630   5.662  1.8152  0.1230  0.2759
17908TIP3    H275140   2.322   0.562   5.709  0.9964  0.2482 -1.6471
17909TIP3   OH275141   4.945   2.037   4.814  0.3113  0.3073  0.3432
17909TIP3    H175142   4.991   1.968   4.861  0.5866  0.1991 -0.0741
17909TIP3    H275143   4.946   2.008   4.722  1.8052  1.5986 -0.0957
17910TIP3   OH275144   6.284   5.859   0.618 -0.0329 -0.1237  0.3816
17910TIP3    H175145   6.235   5.921   0.564 -0.4297  0.2370  1.1517
17910TIP3    H275146   6.250   5.871   0.706 -1.6593 -2.8798  0.2571
17911TIP3   OH275147   1.771   2.938  12.391  0.0945 -0.5403  0.5471
17911TIP3    H175148   1.688   2.979  12.417  0.1171 -1.5158  2.3724
17911TIP3    H275149   1.760   2.846  12.412  1.1331 -0.9542 -0.5963
17912TIP3   OH275150   5.805   6.181  11.736 -0.0186  0.4454 -0.2661
17912TIP3    H175151   5.830   6.167  11.645 -2.1561 -0.7047 -0.7540
17912TIP3    H275152   5.745   6.255  11.733  0.4606  0.8622  0.3185
17913TIP3   OH275153   3.224   4.585  13.868  0.2832 -0.1903  0.6768
17913TIP3    H175154   3.129   4.579  13.862  0.2658  0.7795 -0.5263
17913TIP3    H275155   3.254   4.494  13.877 -0.7705 -0.4557  1.6709
17914TIP3   OH275156   3.764   6.771   0.952  0.1333 -0.4798 -0.2936
17914TIP3    H175157   3.777   6.725   1.035 -0.0262 -1.8086 -0.9666
17914TIP3    H275158   3.853   6.792   0.923  0.1410  1.3933  0.9195
17915TIP3   OH275159   5.139   1.411  15.424  0.5566  0.1931 -0.2974
17915TIP3    H175160   5.220   1.414  15.474 -0.5581  0.0779  1.6485
17915TIP3    H275161   5.120   1.317  15.413  0.6212  0.2182 -0.6271
17916TIP3   OH275162   0.712   4.806   2.306  0.0825 -0.3131 -0.2227
17916TIP3    H175163   0.719   4.901   2.296 -0.8153 -0.1994  0.1526
17916TIP3    H275164   0.798   4.779   2.339 -0.3294  0.6557  1.7648
17917TIP3   OH275165   0.217   6.336   0.604  0.1120 -0.8883 -0.3767
17917TIP3    H175166   0.228   6.374   0.691  0.9378  0.2232 -0.9281
17917TIP3    H275167   0.195   6.411   0.548  0.4763 -1.4293 -1.2742
17918TIP3   OH275168   3.654   0.902   4.997  0.0802  0.2641 -0.2808
17918TIP3    H175169   3.631   0.899   4.904  2.3989  0.7699 -0.9356
17918TIP3    H275170   3.623   0.987   5.028 -0.4415  0.2109 -0.6506
17919TIP3   OH275171   3.068   6.591  15.141  0.6319 -0.3192  0.3566
17919TIP3    H175172   3.139   6.568  15.200  0.4746 -1.6811  0.0458
17919TIP3    H275173   3.043   6.509  15.099  0.3895  0.5074 -1.2246
17920TIP3   OH275174   5.727   1.320   0.941 -0.0546 -0.2866 -0.4184
17920TIP3    H175175   5.669   1.284   1.008 -0.0770 -1.7534 -1.1830
17920TIP3    H275176   5.797   1.255   0.933  0.4707  0.3434 -1.1378
17921TIP3   OH275177   2.782   0.506  12.530 -0.5833 -0.5375  0.0493
17921TIP3    H175178   2.725   0.448  12.480 -1.1060  1.8596 -2.3818
17921TIP3    H275179   2.867   0.501  12.487 -0.8018  0.9082 -0.6171
17922TIP3   OH275180   4.617   0.653   5.684  0.1664 -0.1070 -0.0440
17922TIP3    H175181   4.585   0.642   5.773  3.1932 -0.8219  1.0857
17922TIP3    H275182   4.596   0.571   5.640  1.6954 -1.1684  1.1260
17923TIP3   OH275183   5.806   3.382  13.688 -0.0526 -0.5003 -0.3598
17923TIP3    H175184   5.730   3.383  13.630  0.1625 -1.2114 -0.6588
17923TIP3    H275185   5.769   3.388  13.776 -0.4538 -0.7980 -0.5073
17924TIP3   OH275186   5.514   0.832  11.705  0.0655  0.3763  0.4813
17924TIP3    H175187   5.544   0.920  11.731  3.7173 -0.4651 -0.2020
17924TIP3    H275188   5.572   0.809  11.632 -1.9424 -1.9802 -0.4919
17925TIP3   OH275189   4.338   1.301   2.532 -0.5029  0.0504 -0.2225
17925TIP3    H175190   4.372   1.376   2.483  2.7909 -2.4859 -2.2566
17925TIP3    H275191   4.287   1.252   2.468 -1.3894 -0.2130  0.6685
17926TIP3   OH275192   5.030   3.201  17.061  0.2221 -0.2031 -0.3398
17926TIP3    H175193   4.988   3.116  17.051  0.7463 -0.8067  1.8513
17926TIP3    H275194   4.965   3.264  17.033 -1.3656 -1.2023  0.9440
17927TIP3   OH275195   3.317   0.156  13.488 -0.3713  0.4104  0.2627
17927TIP3    H175196   3.399   0.185  13.448 -0.9434  1.0982 -0.4349
17927TIP3    H275197   3.327   0.061  13.499  1.4265  0.7601  2.3226
17928TIP3   OH275198   4.254   3.312  15.803 -0.5263  0.4576 -0.1182
17928TIP3    H175199   4.286   3.389  15.849 -1.2992  0.7848 -0.1097
17928TIP3    H275200   4.176   3.342  15.757 -1.1439 -0.4318  0.3072
17929TIP3   OH275201   1.383   5.216   4.304  0.1799 -0.1371 -0.4771
17929TIP3    H175202   1.316   5.283   4.289  0.6602 -0.3325 -4.4577
17929TIP3    H275203   1.335   5.134   4.304  0.0306 -0.0674  0.6437
17930TIP3   OH275204   4.512   5.604   3.075 -0.0390  0.7821 -0.4567
17930TIP3    H175205   4.594   5.562   3.102 -0.4744  0.3717  0.2405
17930TIP3    H275206   4.444   5.541   3.097 -0.4917  0.7586 -1.8193
17931TIP3   OH275207   0.721   1.892   0.732  0.6293 -0.8104  0.1849
17931TIP3    H175208   0.648   1.832   0.715  1.5950 -1.6824 -1.0295
17931TIP3    H275209   0.789   1.865   0.670  0.9188  1.8981 -0.7709
17932TIP3   OH275210   1.204   0.047  12.663 -0.0845  0.4445  0.0821
17932TIP3    H175211   1.245  -0.039  12.655 -0.0212  0.3924  0.9089
17932TIP3    H275212   1.176   0.053  12.754 -0.8148  0.9801 -0.1596
17933TIP3   OH275213   5.479   1.666  16.279 -0.1994  0.7359  0.2291
17933TIP3    H175214   5.420   1.591  16.281 -0.6484  1.0848  2.0152
17933TIP3    H275215   5.423   1.741  16.265 -0.1392  1.0101  1.3550
17934TIP3   OH275216   4.230   2.338  11.196 -0.0729  0.3962 -0.4655
17934TIP3    H175217   4.226   2.414  11.254  1.3847  2.7590 -3.2203
17934TIP3    H275218   4.220   2.374  11.108 -2.1012 -2.9926 -1.7915
17935TIP3   OH275219   5.039   3.043  14.269  0.2384  0.0070 -0.1145
17935TIP3    H175220   5.064   3.103  14.340 -0.9482  0.7436 -0.2824
17935TIP3    H275221   4.947   3.064  14.252  0.3270 -0.5941 -1.4559
17936TIP3   OH275222   2.923   2.351   3.440  0.8344 -0.0281 -0.0720
17936TIP3    H175223   2.989   2.415   3.467  0.4166  1.2755 -1.9826
17936TIP3    H275224   2.841   2.399   3.436  0.3841 -0.8211 -0.9376
17937TIP3   OH275225   3.354   6.515   4.578  0.0731 -0.7610 -0.2671
17937TIP3    H175226   3.401   6.545   4.500  0.4330  0.4669  0.4074
17937TIP3    H275227   3.306   6.438   4.548 -2.3493  1.4387 -2.5846
17938TIP3   OH275228   0.056   0.035  16.120  0.3954  0.5704 -0.3668
17938TIP3    H175229  -0.039   0.027  16.112  0.0695  4.3122 -2.5562
17938TIP3    H275230   0.069   0.117  16.167  2.4823  1.1719 -1.8558
17939TIP3   OH275231   1.625   2.200  15.600  0.4752  0.4630  0.1010
17939TIP3    H175232   1.589   2.174  15.515 -2.2685 -0.7846  1.4932
17939TIP3    H275233   1.663   2.286  15.585 -1.4703  1.0505 -2.0578
17940TIP3   OH275234   3.968   5.137  16.198  0.2561 -0.1395  0.0203
17940TIP3    H175235   3.988   5.229  16.216 -0.0386 -0.0415 -0.1577
17940TIP3    H275236   4.043   5.089  16.234  0.6148  0.1967 -0.2766
17941TIP3   OH275237   4.046   0.005   4.942 -0.2925 -0.0795 -0.1058
17941TIP3    H175238   4.053  -0.051   5.020  0.7947  0.1074 -0.0547
17941TIP3    H275239   4.130  -0.007   4.897 -0.2954  1.0316 -0.4162
17942TIP3   OH275240   4.985   5.060   5.622  0.6006  0.1834  0.3813
17942TIP3    H175241   5.025   4.982   5.658  0.9314  0.5303  0.7736
17942TIP3    H275242   4.923   5.089   5.689 -0.0252 -0.1279 -0.0555
17943TIP3   OH275243   1.194   2.834  10.405 -0.4103  0.0852 -0.3284
17943TIP3    H175244   1.158   2.757  10.449  1.2721 -0.2052  0.6227
17943TIP3    H275245   1.123   2.865  10.348 -1.7212 -1.1072  0.6022
17944TIP3   OH275246   2.484   3.924   1.195  0.2819 -0.0891 -0.3198
17944TIP3    H175247   2.421   3.970   1.251 -0.3765 -0.6779 -0.5759
17944TIP3    H275248   2.569   3.941   1.237 -0.1355 -0.0130  0.5179
17945TIP3   OH275249   6.282   5.668  12.797  0.0976 -0.2377 -0.4245
17945TIP3    H175250   6.354   5.690  12.737 -1.1070 -1.4724 -2.4427
17945TIP3    H275251   6.318   5.599  12.853  0.5483 -0.8056 -1.3782
17946TIP3   OH275252   5.625   1.009   4.395  0.3436  0.3273  0.0913
17946TIP3    H175253   5.653   1.028   4.485  0.1037  0.3640  0.1607
17946TIP3    H275254   5.545   1.061   4.384  0.5802  0.6133 -0.2739
17947TIP3   OH275255   3.596   2.682   5.227  0.3637 -0.1920 -0.6544
17947TIP3    H175256   3.524   2.724   5.273 -0.0228 -1.2241 -0.2829
17947TIP3    H275257   3.664   2.671   5.293  0.2419 -0.6621 -0.6058
17948TIP3   OH275258   2.500   6.027   5.554  0.7266  0.3556  0.2895
17948TIP3    H175259   2.583   6.039   5.600  0.9073 -0.6178  0.2512
17948TIP3    H275260   2.515   6.065   5.468  2.2423 -2.4861 -0.8402
17949TIP3   OH275261   5.758   3.877   3.311  0.1727 -0.1377 -0.1988
17949TIP3    H175262   5.693   3.860   3.379 -1.0070  0.8764 -1.0181
17949TIP3    H275263   5.839   3.840   3.345 -0.3319  0.5200  1.8352
17950TIP3   OH275264   4.069   5.386  15.249  0.2402  0.1143  1.0986
17950TIP3    H175265   4.117   5.453  15.297 -0.6981 -0.0567  2.3194
17950TIP3    H275266   4.075   5.414  15.157 -0.3067  2.0054  1.5831
17951TIP3   OH275267   5.450   2.448   1.916 -0.4044  0.0783 -0.2126
17951TIP3    H175268   5.487   2.411   1.996 -0.5574 -1.0261 -0.6394
17951TIP3    H275269   5.429   2.539   1.940 -1.6499 -0.5719  1.4079
17952TIP3   OH275270   2.602   3.455   0.063  0.3361 -0.5805  0.2696
17952TIP3    H175271   2.600   3.549   0.043 -1.4763 -0.2438  1.7435
17952TIP3    H275272   2.685   3.425   0.028  0.0376  1.1280 -2.1465
17953TIP3   OH275273   4.363   0.139   3.894 -0.0253 -0.1467  0.1059
17953TIP3    H175274   4.397   0.209   3.951  1.0252 -1.3209  0.9838
17953TIP3    H275275   4.326   0.185   3.819 -0.2661  1.3935  1.1298
17954TIP3   OH275276   1.239   2.953  14.715 -0.0209 -0.4028  0.6655
17954TIP3    H175277   1.166   2.913  14.668 -1.0105  0.6318  1.2722
17954TIP3    H275278   1.261   2.890  14.783 -2.5468  0.5876  2.5644
17955TIP3   OH275279   1.979   3.078   1.544 -0.1065  0.2761 -0.0779
17955TIP3    H175280   1.902   3.109   1.496  0.5802  1.6573 -0.3347
17955TIP3    H275281   2.022   3.017   1.484 -0.0311  0.8856 -0.6464
17956TIP3   OH275282   0.849   2.352  13.410 -0.1171 -0.4512  0.2821
17956TIP3    H175283   0.868   2.411  13.483 -0.2240  0.4118 -0.3830
17956TIP3    H275284   0.769   2.307  13.436  0.1363 -0.5521  0.9297
17957TIP3   OH275285   1.713   2.482   1.897 -0.2163  0.1556 -0.2019
17957TIP3    H175286   1.800   2.454   1.927 -0.6315  0.5236  1.4761
17957TIP3    H275287   1.653   2.447   1.963 -1.4248 -0.4962 -1.5856
17958TIP3   OH275288   5.598   0.358   4.089  0.5688 -0.0213  0.0333
17958TIP3    H175289   5.582   0.436   4.036 -0.0549  0.4028  0.8387
17958TIP3    H275290   5.599   0.286   4.025 -0.3512  0.4578 -0.5475
17959TIP3   OH275291   3.419   2.550   0.409 -0.5136 -0.0973  0.0744
17959TIP3    H175292   3.445   2.482   0.472 -0.9126 -2.1679 -1.8525
17959TIP3    H275293   3.500   2.570   0.361 -0.6108  0.0592 -0.0243
17960TIP3   OH275294   6.745   5.346   1.933  0.2930 -0.3830  0.7787
17960TIP3    H175295   6.799   5.341   2.012  0.5313  1.0126  0.7368
17960TIP3    H275296   6.808   5.342   1.861  0.1414 -0.9215  0.6760
17961TIP3   OH275297   5.987   5.790   0.402 -0.0354  0.1681 -0.2510
17961TIP3    H175298   6.021   5.746   0.324 -1.7157  1.1806 -1.6358
17961TIP3    H275299   6.044   5.867   0.412  0.3166 -0.0765 -0.3290
17962TIP3   OH275300   1.234   5.746   1.547 -0.1993 -0.0304  0.2049
17962TIP3    H175301   1.200   5.657   1.561 -1.7098  0.3624 -0.7112
17962TIP3    H275302   1.262   5.774   1.634 -1.2986 -0.7886  0.8450
17963TIP3   OH275303   6.325   1.929   3.147  0.2953 -0.1830  0.0459
17963TIP3    H175304   6.338   1.909   3.054 -0.7719  0.1329 -0.1830
17963TIP3    H275305   6.403   1.895   3.190  1.3299  0.6621 -1.1082
17964TIP3   OH275306   1.375   2.801  16.143 -0.0029 -0.1816  0.1054
17964TIP3    H175307   1.385   2.706  16.153 -0.6054 -0.3176 -0.4755
17964TIP3    H275308   1.391   2.836  16.231 -0.4965 -0.8924  0.4928
17965TIP3   OH275309   1.394   5.644  12.322  0.0545  0.5483  0.7059
17965TIP3    H175310   1.356   5.586  12.387 -1.1333 -0.5572 -0.8905
17965TIP3    H275311   1.451   5.588  12.270 -0.6245  0.9065 -0.4770
17966TIP3   OH275312   1.072   5.227  17.143  0.5514 -0.2613 -0.1904
17966TIP3    H175313   1.012   5.241  17.070  1.5693  0.0955 -0.9867
17966TIP3    H275314   1.020   5.182  17.209 -0.2839 -1.0003 -1.3210
17967TIP3   OH275315   3.688   3.286  15.397 -0.4357 -0.6101 -0.2483
17967TIP3    H175316   3.741   3.363  15.416 -1.1198 -0.5287  1.5832
17967TIP3    H275317   3.729   3.216  15.448 -0.8612 -1.0198 -0.4576
17968TIP3   OH275318   4.068   0.642  14.621  0.0185  0.2981  0.0938
17968TIP3    H175319   4.023   0.672  14.543 -3.9955 -1.6794  1.3950
17968TIP3    H275320   4.133   0.579  14.589 -1.8336 -0.8262 -1.6761
17969TIP3   OH275321   2.823   4.769  10.665  0.3106  0.0470  0.6183
17969TIP3    H175322   2.791   4.859  10.676  1.1367  0.1387  2.5363
17969TIP3    H275323   2.817   4.754  10.570  2.3455  2.9897 -0.1334
17970TIP3   OH275324   3.816   1.034   0.235  0.2146 -0.3319 -0.3751
17970TIP3    H175325   3.779   1.107   0.285 -2.2714 -2.7598  1.6769
17970TIP3    H275326   3.910   1.045   0.241 -0.0649  1.3253  2.0882
17971TIP3   OH275327   2.305   1.735   2.902 -0.7767  0.2357  0.1032
17971TIP3    H175328   2.290   1.775   2.816  0.0040 -1.0411 -0.6554
17971TIP3    H275329   2.357   1.799   2.950  0.0352  0.3477 -0.9057
17972TIP3   OH275330   0.344   0.631  16.191 -0.9056  0.3771  0.1314
17972TIP3    H175331   0.359   0.640  16.097 -0.8360 -0.9123  0.0062
17972TIP3    H275332   0.352   0.720  16.225  1.2219  0.5806 -0.7670
17973TIP3   OH275333   1.994   5.513   4.410 -0.2768  0.0636  0.5707
17973TIP3    H175334   2.032   5.578   4.469  0.3224  0.6208 -0.4076
17973TIP3    H275335   2.060   5.500   4.342 -0.0515 -2.1475  1.1198
17974TIP3   OH275336   0.431   1.206  12.062 -0.3379 -0.7659 -0.1716
17974TIP3    H175337   0.485   1.274  12.022 -1.5914  0.7785  0.6529
17974TIP3    H275338   0.479   1.125  12.045  1.0513  0.2597 -1.4685
17975TIP3   OH275339   5.397   0.902  16.864  0.1896  0.2561 -0.3322
17975TIP3    H175340   5.443   0.871  16.786  1.3736 -1.6032  1.0350
17975TIP3    H275341   5.311   0.927  16.832  0.2372 -1.5459 -2.0872
17976TIP3   OH275342   2.499   2.946   4.593 -0.2463 -0.5803  0.5187
17976TIP3    H175343   2.514   3.041   4.590 -0.6269 -0.5368 -0.6568
17976TIP3    H275344   2.470   2.929   4.682 -1.0280  0.5523  0.4968
17977TIP3   OH275345   0.457   0.485   5.229 -0.4797 -0.0164  0.0279
17977TIP3    H175346   0.508   0.565   5.217 -0.0064 -0.5574 -1.9955
17977TIP3    H275347   0.428   0.488   5.320  0.2194  2.0327  0.2311
17978TIP3   OH275348   1.772   4.408   3.605  0.0013 -1.2328  0.3137
17978TIP3    H175349   1.842   4.396   3.668 -1.1530 -0.6201  1.7743
17978TIP3    H275350   1.771   4.327   3.554  1.9620 -1.1087 -0.0003
17979TIP3   OH275351   3.698   4.738  11.871 -0.1921 -0.6514 -0.3835
17979TIP3    H175352   3.640   4.663  11.881 -0.9448 -0.3315 -1.9000
17979TIP3    H275353   3.639   4.814  11.871  0.1184 -0.3389 -2.3082
17980TIP3   OH275354   6.040   3.646  15.388 -0.6470  0.5783  0.2628
17980TIP3    H175355   6.001   3.654  15.301 -0.3480 -1.1482 -0.0846
17980TIP3    H275356   5.965   3.644  15.448 -0.9362  0.3568 -0.0996
17981TIP3   OH275357   5.649   1.795  11.828  0.2228 -0.3237  0.2996
17981TIP3    H175358   5.654   1.858  11.900  0.2472 -0.5677  0.5136
17981TIP3    H275359   5.661   1.710  11.870 -2.2125 -0.6866  0.3965
17982TIP3   OH275360   4.189   3.988  13.565  0.4147 -0.1267 -0.1758
17982TIP3    H175361   4.181   4.058  13.630  0.7848 -0.2489  0.0043
17982TIP3    H275362   4.243   3.921  13.608  0.7645 -0.1565 -0.6529
17983TIP3   OH275363   0.404   5.101   4.116  0.0793  0.0784 -0.6585
17983TIP3    H175364   0.398   5.182   4.168 -1.2590  1.4539 -2.7769
17983TIP3    H275365   0.382   5.031   4.177  0.2709  1.4313  1.0182
17984TIP3   OH275366   1.899   5.872  16.685 -0.1727  0.0203 -0.1890
17984TIP3    H175367   1.863   5.809  16.622  2.7006 -2.1840  0.1561
17984TIP3    H275368   1.861   5.846  16.769 -0.0100 -0.4117 -0.2460
17985TIP3   OH275369   4.667   1.862  17.076  0.2770 -0.1706  0.4700
17985TIP3    H175370   4.666   1.925  17.003  0.9367  0.3080  0.8587
17985TIP3    H275371   4.758   1.831  17.079  0.2762 -0.1216  1.1359
17986TIP3   OH275372   3.949   5.556  15.681  0.3309 -0.4810  0.1401
17986TIP3    H175373   4.036   5.582  15.713  1.2647 -1.4884 -1.4109
17986TIP3    H275374   3.960   5.464  15.658 -1.1658 -0.6094 -0.1028
17987TIP3   OH275375   2.248   6.574   4.743  0.0750 -0.5842 -0.2057
17987TIP3    H175376   2.222   6.666   4.746  1.3313 -0.1938  2.9876
17987TIP3    H275377   2.304   6.567   4.666  0.2427  1.4301 -0.3150
17988TIP3   OH275378   1.149   5.022  14.376 -0.4868 -0.6811 -0.7554
17988TIP3    H175379   1.170   4.981  14.291 -1.8199 -1.8753 -0.5366
17988TIP3    H275380   1.097   4.956  14.422  0.5850 -0.2249  1.1969
17989TIP3   OH275381   5.302   4.264   1.085  0.1517  0.1741  0.1147
17989TIP3    H175382   5.389   4.243   1.050 -0.2603  0.2747 -1.0171
17989TIP3    H275383   5.278   4.346   1.043 -1.3047 -0.8354 -1.1489
17990TIP3   OH275384   4.179   0.861  16.493 -0.3234  0.2914  0.5097
17990TIP3    H175385   4.245   0.930  16.495 -0.2879  0.3043 -0.3895
17990TIP3    H275386   4.110   0.896  16.436 -0.7039 -0.0709  0.7429
17991TIP3   OH275387   1.442   4.916  12.660 -0.1487  0.2581 -0.6799
17991TIP3    H175388   1.518   4.897  12.605  1.1870  0.1130  1.0962
17991TIP3    H275389   1.410   5.000  12.629  0.6731  0.2711 -1.5523
17992TIP3   OH275390   1.652   4.715  12.186  0.1705 -0.2950  0.3141
17992TIP3    H175391   1.717   4.645  12.197 -0.0687 -0.6061 -0.2287
17992TIP3    H275392   1.578   4.687  12.240  0.9198  0.6362  1.8887
17993TIP3   OH275393   0.198   1.053   5.216  0.6516  0.4148  0.5702
17993TIP3    H175394   0.280   1.079   5.259 -0.0691  3.5892  0.2770
17993TIP3    H275395   0.186   1.118   5.147 -1.4696 -0.7718 -0.2644
17994TIP3   OH275396   0.382   4.287  17.102  0.3917 -0.2749 -0.0270
17994TIP3    H175397   0.292   4.261  17.078  0.0963  0.7515 -0.0767
17994TIP3    H275398   0.420   4.317  17.020  0.7234 -0.5319  0.0335
17995TIP3   OH275399   2.682   6.553  15.598  0.0220 -0.3236 -0.2612
17995TIP3    H175400   2.749   6.585  15.538  0.3907 -1.1146 -0.2792
17995TIP3    H275401   2.692   6.607  15.676  0.8805 -0.6270 -0.1535
17996TIP3   OH275402   1.745   4.418   3.238 -0.2386  0.2240 -0.1020
17996TIP3    H175403   1.732   4.490   3.178 -3.5062 -1.6121 -1.8434
17996TIP3    H275404   1.804   4.358   3.192  1.3299  1.0543  0.7502
17997TIP3   OH275405   4.716   2.887  12.487  0.6013  0.3646  0.0063
17997TIP3    H175406   4.667   2.876  12.569  0.4099 -0.0589 -0.1582
17997TIP3    H275407   4.780   2.956  12.506 -0.6387  1.5652 -0.0392
17998TIP3   OH275408   0.149   1.951   1.797 -0.0669  0.0524  0.0096
17998TIP3    H175409   0.245   1.946   1.796  0.0650  2.0390 -0.3953
17998TIP3    H275410   0.121   1.864   1.826  1.8251 -0.8006 -0.5998
17999TIP3   OH275411   2.453   5.510  10.913  0.0531 -0.2118 -0.7546
17999TIP3    H175412   2.519   5.491  10.980  1.2089 -1.1533 -2.1272
17999TIP3    H275413   2.499   5.563  10.848 -0.1129 -1.9763 -2.3901
18000TIP3   OH275414   5.454   0.640  12.884 -0.2446 -0.3557 -0.0672
18000TIP3    H175415   5.443   0.555  12.928 -2.6155 -0.0116  0.1245
18000TIP3    H275416   5.379   0.646  12.825  1.3778  0.4352 -2.1594
18001TIP3   OH275417   4.151   0.009  13.983  0.2733  0.2985  0.2614
18001TIP3    H175418   4.222   0.055  13.938  1.5858 -1.6102  0.2810
18001TIP3    H275419   4.096  -0.024  13.913  0.1802  0.5730  0.2019
18002TIP3   OH275420   2.873   6.318   5.491  0.2651  0.1008  0.2906
18002TIP3    H175421   2.917   6.375   5.553 -1.7307  0.0375  1.8605
18002TIP3    H275422   2.831   6.378   5.429 -0.1333  0.2796  0.7292
18003TIP3   OH275423   3.648   5.875  14.816 -0.0990 -0.0562 -0.0494
18003TIP3    H175424   3.709   5.947  14.797  0.4451 -0.3271  0.5841
18003TIP3    H275425   3.683   5.800  14.768 -1.3828  0.3821 -1.7443
18004TIP3   OH275426   6.422   0.843   4.029  0.2182 -0.5209  0.0571
18004TIP3    H175427   6.511   0.811   4.015  0.1991 -1.4548  1.8110
18004TIP3    H275428   6.434   0.936   4.049  0.7147 -0.4519 -0.5266
18005TIP3   OH275429   3.253   6.624   3.230  0.1688  0.6027  0.6106
18005TIP3    H175430   3.233   6.537   3.265  0.6579  0.2393  0.0152
18005TIP3    H275431   3.170   6.653   3.191 -0.1036  0.5787  1.1670
18006TIP3   OH275432   1.441   4.852  12.943  0.2199 -0.2897  0.4486
18006TIP3    H175433   1.458   4.924  13.004  0.0414 -0.6695  0.9463
18006TIP3    H275434   1.458   4.890  12.857  1.8897 -0.1603  0.7986
18007TIP3   OH275435   3.290   2.601   1.870 -0.3344 -0.0364 -0.1295
18007TIP3    H175436   3.268   2.674   1.811 -1.4762  2.5029  3.1329
18007TIP3    H275437   3.327   2.534   1.812  0.8391  3.0953 -3.3820
18008TIP3   OH275438   5.543   0.426  16.555  0.6455  0.0095  0.7092
18008TIP3    H175439   5.558   0.513  16.593 -0.3451  0.2377  0.6065
18008TIP3    H275440   5.628   0.382  16.561  1.4467  1.3658 -0.2232
18009TIP3   OH275441   0.949   5.140   0.197 -0.2312  0.2692 -0.0281
18009TIP3    H175442   0.976   5.069   0.255  1.0055  1.8006  1.3917
18009TIP3    H275443   0.874   5.179   0.241 -1.4576 -0.6542 -1.2443
18010TIP3   OH275444   4.635   6.262   5.725  0.0617 -0.2609  1.1024
18010TIP3    H175445   4.657   6.321   5.653  0.8234 -2.3417 -0.4701
18010TIP3    H275446   4.540   6.262   5.728  0.0268  1.8339  1.8892
18011TIP3   OH275447   4.490   2.073  15.791 -0.2561  0.1803  0.5093
18011TIP3    H175448   4.404   2.031  15.787 -0.4894  0.7001 -2.4584
18011TIP3    H275449   4.551   2.000  15.802 -0.9515 -0.4380  0.3902
18012TIP3   OH275450   4.788   1.927   2.977  0.2123 -0.3037 -0.1297
18012TIP3    H175451   4.797   1.834   2.997 -3.3290 -0.6124  0.7623
18012TIP3    H275452   4.720   1.930   2.909 -1.3469  1.6308  1.3704
18013TIP3   OH275453   6.651   0.699   4.094  0.2322 -0.0681  0.1758
18013TIP3    H175454   6.733   0.699   4.044 -0.6571  2.9123 -1.5479
18013TIP3    H275455   6.677   0.724   4.183  1.3993 -1.4651  0.2619
18014TIP3   OH275456   4.021   1.388  15.745 -0.1361 -0.4443  1.4758
18014TIP3    H175457   3.978   1.426  15.822 -0.1042 -2.0864  2.3581
18014TIP3    H275458   4.067   1.311  15.779  1.3203 -0.2454  0.0934
18015TIP3   OH275459   2.896   0.873  15.679  0.2224 -0.2275 -0.2373
18015TIP3    H175460   2.899   0.808  15.750 -0.5998  0.7359  0.7027
18015TIP3    H275461   2.978   0.859  15.631  0.4555 -1.3881  0.4566
18016TIP3   OH275462   2.580   3.806   5.266  0.1663  0.7317 -0.0798
18016TIP3    H175463   2.644   3.741   5.235 -0.6386  0.6732 -1.7272
18016TIP3    H275464   2.555   3.775   5.353  2.2940  0.7225  0.6033
18017TIP3   OH275465   3.117   0.731   1.746 -0.0170  0.2066  0.3901
18017TIP3    H175466   3.100   0.745   1.653  0.2403  1.2869  0.4906
18017TIP3    H275467   3.204   0.769   1.761 -0.7521  1.6395  1.3916
18018TIP3   OH275468   5.476   1.286  12.169  0.0903  0.3151  0.5340
18018TIP3    H175469   5.479   1.278  12.074  2.0443 -0.4986  0.6158
18018TIP3    H275470   5.383   1.283  12.190 -0.4895  2.1406 -1.4340
18019TIP3   OH275471   2.345   0.617   6.235  0.6439  0.1269 -0.2812
18019TIP3    H175472   2.368   0.536   6.281 -3.6125 -0.2304  1.7503
18019TIP3    H275473   2.340   0.593   6.143  0.1623 -1.7876  0.2060
18020TIP3   OH275474   3.263   3.566  14.972  0.2146 -0.1477  0.3100
18020TIP3    H175475   3.195   3.499  14.963 -0.0644  0.1017  0.5393
18020TIP3    H275476   3.274   3.601  14.883 -2.1460  1.9237  0.7157
18021TIP3   OH275477   2.578   6.634   2.562  0.3913 -0.0962  0.0459
18021TIP3    H175478   2.504   6.578   2.586  1.3860 -1.6228 -0.3007
18021TIP3    H275479   2.616   6.592   2.485  1.2938  0.9795 -0.1204
18022TIP3   OH275480   5.904   2.305   4.922 -0.3060 -0.0528  0.3884
18022TIP3    H175481   5.995   2.279   4.906 -0.6861 -1.2181  0.0808
18022TIP3    H275482   5.882   2.362   4.849 -0.5156 -1.5315 -0.7257
18023TIP3   OH275483   1.663   3.748  10.688  0.0954  0.8543  0.2397
18023TIP3    H175484   1.624   3.775  10.771 -0.2856  0.8142  0.0754
18023TIP3    H275485   1.716   3.671  10.711  1.8970  2.2216  0.8614
18024TIP3   OH275486   2.871   4.958  16.151 -0.0185  0.5913 -0.1855
18024TIP3    H175487   2.821   4.959  16.233  1.6540 -0.1282  0.8800
18024TIP3    H275488   2.934   5.029  16.161  1.6702 -0.8868  0.1435
18025TIP3   OH275489   2.989   5.609  13.685  0.8704  0.1014 -0.4762
18025TIP3    H175490   2.973   5.658  13.766 -0.3690  0.4445 -0.9032
18025TIP3    H275491   2.944   5.526  13.699  1.4298 -0.2097 -0.4737
18026TIP3   OH275492   5.965   1.789  15.776 -0.1163  0.1652 -0.3487
18026TIP3    H175493   6.010   1.801  15.860 -0.9003 -0.5250  0.1774
18026TIP3    H275494   5.898   1.857  15.774 -0.1675  0.1136 -0.3797
18027TIP3   OH275495   3.047   3.189  16.063 -0.3619 -0.0364  0.0551
18027TIP3    H175496   3.022   3.226  15.978 -1.3943 -0.6594  0.0693
18027TIP3    H275497   2.979   3.219  16.123  0.9439  1.2876  0.9104
18028TIP3   OH275498   3.362   2.255  10.663 -0.1416  0.0979  0.4232
18028TIP3    H175499   3.270   2.276  10.677 -0.1334 -0.4301  1.3423
18028TIP3    H275500   3.362   2.161  10.645  0.2557  0.0034  0.8893
18029TIP3   OH275501   1.772   3.621   4.174 -0.5428 -0.5917  0.2048
18029TIP3    H175502   1.790   3.625   4.080 -2.1049  0.5622 -0.0834
18029TIP3    H275503   1.678   3.604   4.180 -0.2951 -1.6235  1.5786
18030TIP3   OH275504   4.941   2.088   2.777 -0.3055  1.1165  0.4808
18030TIP3    H175505   5.013   2.028   2.761 -2.8666 -1.3932 -3.4561
18030TIP3    H275506   4.908   2.063   2.863  1.2293 -0.2393  0.7200
18031TIP3   OH275507   4.063   3.773  11.504  0.4719  0.1738  0.2994
18031TIP3    H175508   3.970   3.795  11.506 -0.0160 -1.6866  0.1933
18031TIP3    H275509   4.065   3.678  11.519  2.4502  0.3894  1.7901
18032TIP3   OH275510   4.451   6.429  17.035  0.5790  0.6131 -0.2007
18032TIP3    H175511   4.515   6.407  16.968  0.9287  2.8854 -0.7060
18032TIP3    H275512   4.424   6.519  17.014 -1.8157  0.2092  0.7541
18033TIP3   OH275513   2.430   2.658  13.731 -0.0605 -0.3800  0.0320
18033TIP3    H175514   2.361   2.659  13.664  1.6235  0.8444 -1.8019
18033TIP3    H275515   2.495   2.597  13.697  2.1322  2.3000 -1.0105
18034TIP3   OH275516   4.670   0.566  15.717 -0.4219  0.2024  0.8906
18034TIP3    H175517   4.702   0.639  15.664 -0.1942  1.7955  3.0898
18034TIP3    H275518   4.643   0.500  15.653 -0.8508  2.2858 -1.2080
18035TIP3   OH275519   0.965   5.467  11.278 -0.7948  0.3868  0.4350
18035TIP3    H175520   1.048   5.513  11.289 -0.5189  0.3941 -1.4420
18035TIP3    H275521   0.989   5.380  11.246 -1.5003  0.3606 -0.0588
18036TIP3   OH275522   4.114   5.378   4.160  0.0454 -0.2369  0.0265
18036TIP3    H175523   4.072   5.453   4.204  1.3554  0.0259  0.9095
18036TIP3    H275524   4.044   5.337   4.111 -0.5275  2.2104 -1.3824
18037TIP3   OH275525   3.059   5.287   3.314 -0.3779  0.2032 -0.6053
18037TIP3    H175526   3.059   5.372   3.270 -1.0138  0.7646  0.4370
18037TIP3    H275527   3.149   5.276   3.344 -0.3767  0.6859 -0.4210
18038TIP3   OH275528   5.235   1.539   2.737  0.0840 -0.0180  0.3864
18038TIP3    H175529   5.280   1.463   2.776  0.3649  0.5314  1.1643
18038TIP3    H275530   5.150   1.541   2.781  0.6515  0.9905  1.4973
18039TIP3   OH275531   1.389   5.581   0.439  0.0170 -0.9401 -0.1741
18039TIP3    H175532   1.364   5.625   0.358 -0.0604  0.3238  0.5238
18039TIP3    H275533   1.484   5.585   0.440 -0.0057 -0.4649  0.0673
18040TIP3   OH275534   4.692   4.701   4.366  0.3391  0.1771 -0.1011
18040TIP3    H175535   4.694   4.724   4.459  1.4986 -0.9513  0.1799
18040TIP3    H275536   4.619   4.641   4.357  2.1002 -2.2550  0.7730
18041TIP3   OH275537   3.504   3.330  16.111  0.2845 -0.0682 -0.3200
18041TIP3    H175538   3.433   3.390  16.131  0.0278 -0.3234 -0.4536
18041TIP3    H275539   3.580   3.365  16.158  0.1897  0.4716 -0.5638
18042TIP3   OH275540   3.400   5.373  15.103 -0.7636  0.3882 -0.3917
18042TIP3    H175541   3.435   5.297  15.148 -2.7347  0.0213  0.6347
18042TIP3    H275542   3.383   5.343  15.014 -0.4065  0.0056 -0.3332
18043TIP3   OH275543   3.126   2.047  11.801  0.3272  0.5329  0.4166
18043TIP3    H175544   3.199   2.082  11.751 -1.3386  2.2018 -1.0050
18043TIP3    H275545   3.088   2.124  11.845 -0.9993 -0.1505  0.5229
18044TIP3   OH275546   1.324   5.275  11.211 -0.0707  0.1152 -0.2669
18044TIP3    H175547   1.290   5.213  11.275 -0.9526  1.0168  0.1633
18044TIP3    H275548   1.418   5.275  11.226 -0.0555 -1.0564 -0.2304
18045TIP3   OH275549   6.154   6.462   2.384 -0.3544  0.2210 -0.1808
18045TIP3    H175550   6.139   6.373   2.416  0.1951  0.3796  0.5506
18045TIP3    H275551   6.092   6.472   2.312 -0.2526 -0.8413 -0.4393
18046TIP3   OH275552   4.976   5.252  15.070 -0.0772 -0.1354 -0.4435
18046TIP3    H175553   4.984   5.263  14.975 -1.1121  1.2605 -0.3941
18046TIP3    H275554   5.048   5.304  15.106  0.3512 -0.7113 -0.4398
18047TIP3   OH275555   0.707   2.288  14.452  0.1314  0.0087  0.8130
18047TIP3    H175556   0.768   2.298  14.524  0.7811 -0.2383  0.3023
18047TIP3    H275557   0.762   2.269  14.376 -0.6359 -1.6284  0.6055
18048TIP3   OH275558   4.034   6.132  15.518  0.5077  0.1071  0.0695
18048TIP3    H175559   4.120   6.107  15.552  0.1854 -1.6565 -0.3115
18048TIP3    H275560   4.049   6.145  15.424  0.5485  0.8367  0.1674
18049TIP3   OH275561   4.522   5.568  12.725  0.2101  0.2286  0.3041
18049TIP3    H175562   4.434   5.604  12.713 -0.0137 -0.2181  0.5713
18049TIP3    H275563   4.520   5.529  12.813  0.4355 -0.4607  0.0067
18050TIP3   OH275564   2.688   5.914  11.023  0.2477 -0.1491  0.0050
18050TIP3    H175565   2.620   5.979  11.005  0.6815  0.6017  0.9581
18050TIP3    H275566   2.663   5.838  10.971 -0.3743  0.7132 -1.0112
18051TIP3   OH275567   3.353   0.593  12.173 -0.5193  0.7357  0.8465
18051TIP3    H175568   3.396   0.602  12.088  1.9158  2.4061  2.1474
18051TIP3    H275569   3.363   0.678  12.214  1.1489 -0.8380  4.0278
18052TIP3   OH275570   5.708   0.808   0.253 -0.3589  0.1877  0.4531
18052TIP3    H175571   5.784   0.781   0.202  1.0284 -0.5459  2.7759
18052TIP3    H275572   5.664   0.727   0.276 -0.7614  0.4835  0.7363
18053TIP3   OH275573   4.786   2.162   3.191 -0.1261 -0.2480 -0.3929
18053TIP3    H175574   4.771   2.237   3.134 -0.8902 -1.2144 -1.4963
18053TIP3    H275575   4.716   2.167   3.256  1.6181  1.7269  1.5097
18054TIP3   OH275576   2.157   4.069  13.433 -0.0026 -0.1480  0.1347
18054TIP3    H175577   2.187   3.999  13.375 -0.5054 -0.1555 -0.1202
18054TIP3    H275578   2.216   4.065  13.508  1.0579  0.2642 -0.6516
18055TIP3   OH275579   5.661   5.554   3.757 -0.0251  0.4192  0.6153
18055TIP3    H175580   5.732   5.558   3.693  0.3173  2.5093  1.0318
18055TIP3    H275581   5.705   5.534   3.840 -0.2091 -0.3777  0.5213
18056TIP3   OH275582   3.590   4.960   3.662  0.5867  0.1262  0.3596
18056TIP3    H175583   3.600   5.051   3.690  0.8401 -0.4911  2.4444
18056TIP3    H275584   3.609   4.961   3.568  0.3617  2.2423  0.2986
18057TIP3   OH275585   1.975   0.134  16.809 -0.2359  0.1795 -0.1238
18057TIP3    H175586   2.016   0.196  16.870 -1.1821  0.4058  0.3107
18057TIP3    H275587   1.921   0.189  16.752  0.3155 -0.0794 -0.8939
18058TIP3   OH275588   2.007   1.993   2.019 -0.2628 -0.2877  0.4615
18058TIP3    H175589   2.040   2.055   1.954 -2.7292  0.9343  0.2743
18058TIP3    H275590   1.912   1.993   2.007 -0.4225 -4.1571  0.4653
18059TIP3   OH275591   1.749   5.678  16.598  0.0544 -0.1502 -0.2439
18059TIP3    H175592   1.754   5.609  16.531 -0.3023  0.1142 -0.5490
18059TIP3    H275593   1.681   5.648  16.658 -1.5441  0.8462 -1.4618
18060TIP3   OH275594   0.048   4.853  11.587 -0.3733 -0.5176  0.1200
18060TIP3    H175595   0.044   4.883  11.677  2.3109 -1.6408  0.7229
18060TIP3    H275596   0.141   4.836  11.571 -0.9940 -2.4535 -2.1371
18061TIP3   OH275597   1.701   0.062   0.688 -0.4413 -0.1099 -0.1725
18061TIP3    H175598   1.715  -0.001   0.758 -2.3561 -0.5325 -0.1101
18061TIP3    H275599   1.763   0.133   0.707  1.0536 -1.4856  0.3062
18062TIP3   OH275600   2.569   3.037   0.003 -1.0921 -0.4052 -0.0723
18062TIP3    H175601   2.640   2.996   0.053  0.0002 -0.8001 -1.8445
18062TIP3    H275602   2.513   3.077   0.069 -0.0174 -1.3499  1.4825
18063TIP3   OH275603   0.128   6.676   5.251 -0.3885  0.4262  0.6236
18063TIP3    H175604   0.129   6.581   5.250 -0.7505  0.3992  1.7741
18063TIP3    H275605   0.058   6.700   5.189 -3.0128 -0.1794  3.1238
18064TIP3   OH275606   4.579   4.647   0.233  0.8966  0.1141 -0.4232
18064TIP3    H175607   4.668   4.676   0.213  0.1923  1.5833 -1.5923
18064TIP3    H275608   4.527   4.672   0.157 -0.3990 -1.4314 -0.1206
18065TIP3   OH275609   2.912   0.313   3.417 -0.3164  0.5127 -0.0872
18065TIP3    H175610   3.000   0.288   3.446 -1.0258  0.5653  2.3408
18065TIP3    H275611   2.870   0.231   3.393 -0.1421  0.2919  0.3638
18066TIP3   OH275612   1.208   4.886   0.931 -0.4278 -0.5841 -0.0905
18066TIP3    H175613   1.277   4.927   0.879 -1.5172  1.2002 -0.1860
18066TIP3    H275614   1.248   4.870   1.016 -0.6380  3.1826  0.8701
18067TIP3   OH275615   5.774   3.705  12.442 -0.0220 -0.3407  0.4371
18067TIP3    H175616   5.815   3.772  12.497  0.0865 -0.4564  0.4948
18067TIP3    H275617   5.683   3.736  12.432  0.1544  0.0767  0.0531
18068TIP3   OH275618   3.424   3.702  13.788 -0.2476  0.2686 -0.3158
18068TIP3    H175619   3.500   3.668  13.741 -0.4809 -2.7497  1.2066
18068TIP3    H275620   3.459   3.767  13.848  1.6715 -2.5711  1.9123
18069TIP3   OH275621   2.851   6.288  15.418  0.3324 -0.7697 -0.3125
18069TIP3    H175622   2.787   6.248  15.357  1.1788 -1.8223 -0.5474
18069TIP3    H275623   2.877   6.369  15.375 -1.6060  0.2279  0.2816
18070TIP3   OH275624   6.327   0.070  11.872  0.7889  0.4909 -0.0669
18070TIP3    H175625   6.271   0.135  11.829  1.8671  1.5622  0.0905
18070TIP3    H275626   6.287   0.058  11.958  0.0705  0.2509 -0.4221
18071TIP3   OH275627   5.225   2.089  11.162 -0.2745 -0.1683 -0.0059
18071TIP3    H175628   5.253   2.179  11.144 -0.7531 -0.0330 -0.0934
18071TIP3    H275629   5.296   2.035  11.129 -1.5901 -0.0217 -3.5753
18072TIP3   OH275630   5.995   3.157  13.941 -0.0624  0.0753  0.0759
18072TIP3    H175631   5.988   3.141  13.846  0.5023 -0.8583  0.1768
18072TIP3    H275632   6.038   3.242  13.948 -0.9043  0.5708 -0.4986
18073TIP3   OH275633   3.633   2.710  15.947  0.3722 -0.1765 -0.6498
18073TIP3    H175634   3.631   2.801  15.976  0.6654  0.2996 -2.0865
18073TIP3    H275635   3.616   2.659  16.027 -1.1881  1.1655 -0.0714
18074TIP3   OH275636   0.112   3.848  10.897 -0.0909 -0.0004 -0.0501
18074TIP3    H175637   0.101   3.938  10.868  0.4001  0.1004  0.0711
18074TIP3    H275638   0.027   3.824  10.934  0.4154  1.1446  1.9483
18075TIP3   OH275639   1.536   0.671   3.081 -0.2929 -0.2906  0.0427
18075TIP3    H175640   1.620   0.704   3.112  0.4820 -0.6237 -1.5997
18075TIP3    H275641   1.489   0.749   3.052  0.5723 -0.3244 -1.5741
18076TIP3   OH275642   4.731   2.171   3.773 -0.2517 -0.4453  0.1090
18076TIP3    H175643   4.705   2.238   3.710  1.3558 -0.2606 -0.4214
18076TIP3    H275644   4.740   2.092   3.720  0.7119 -0.3835  0.1624
18077TIP3   OH275645   3.500   6.587   5.741  0.6179 -0.1056 -0.2531
18077TIP3    H175646   3.427   6.541   5.699 -1.0368  0.6352  1.6792
18077TIP3    H275647   3.524   6.531   5.814  3.3961 -1.3221 -1.9212
18078TIP3   OH275648   4.935   1.882  11.027 -0.7831  0.2722 -0.4921
18078TIP3    H175649   4.906   1.826  10.955 -0.2907 -0.2567 -0.2906
18078TIP3    H275650   4.863   1.880  11.089 -0.2650 -1.2234  0.1134
18079TIP3   OH275651   6.447   1.409  14.477  0.1939  0.2305  0.0651
18079TIP3    H175652   6.370   1.375  14.522  0.6463 -0.7988  0.0769
18079TIP3    H275653   6.510   1.426  14.547  0.3482  0.0889 -0.0401
18080TIP3   OH275654   3.498   2.782   3.393 -0.0164 -0.3023  0.2206
18080TIP3    H175655   3.572   2.831   3.431  0.7560 -2.0377  1.0792
18080TIP3    H275656   3.427   2.846   3.389  0.5487  0.5924  2.5216
18081TIP3   OH275657   1.456   5.817  11.154  0.7058  0.0477  0.5128
18081TIP3    H175658   1.500   5.895  11.121 -0.1595  0.4397  0.2376
18081TIP3    H275659   1.492   5.804  11.241  2.4538 -0.5372 -0.2418
18082TIP3   OH275660   3.906   0.830  14.435 -0.0090  0.6361  0.3564
18082TIP3    H175661   3.890   0.922  14.458 -1.0546  0.2601  1.2137
18082TIP3    H275662   3.821   0.788  14.444  0.3262 -0.3041 -0.6516
18083TIP3   OH275663   1.816   1.141  10.736 -0.2472 -0.6626 -0.2849
18083TIP3    H175664   1.809   1.046  10.747 -0.7819 -0.4308  1.9543
18083TIP3    H275665   1.907   1.156  10.710  0.0737 -1.7306  0.1732
18084TIP3   OH275666   0.891   2.332  14.696  0.0971  0.2745 -0.3384
18084TIP3    H175667   0.939   2.402  14.652  0.0221  0.5889  0.0681
18084TIP3    H275668   0.820   2.376  14.743  1.6123  0.3148  2.1325
18085TIP3   OH275669   2.642   1.637  13.178  0.3072  0.5827 -0.0081
18085TIP3    H175670   2.602   1.649  13.092  2.5648  1.4416 -1.0301
18085TIP3    H275671   2.646   1.725  13.216 -1.8044  0.0710  1.6115
18086TIP3   OH275672   3.012   6.426   4.022 -0.1244 -0.6794 -0.4054
18086TIP3    H175673   3.075   6.355   4.030  0.0472 -0.5368 -0.4910
18086TIP3    H275674   3.045   6.480   3.951 -0.0099 -0.2666 -0.0434
18087TIP3   OH275675   5.946   1.493  13.704  0.0017 -0.1045 -0.7822
18087TIP3    H175676   5.859   1.496  13.663 -1.1034  2.4665  1.4604
18087TIP3    H275677   6.000   1.548  13.647 -0.1950 -0.5326 -1.4026
18088TIP3   OH275678   3.620   4.553   5.799  0.8116  0.0956  0.1446
18088TIP3    H175679   3.610   4.633   5.851 -0.9520 -1.3895  2.2497
18088TIP3    H275680   3.633   4.484   5.863 -0.6931 -1.7329 -1.3992
18089TIP3   OH275681   1.087   1.169   3.112 -0.0353 -0.3688 -0.0549
18089TIP3    H175682   1.179   1.193   3.112  0.8181 -3.3220  0.7176
18089TIP3    H275683   1.054   1.200   3.027  1.7625  0.3292 -0.5284
18090TIP3   OH275684   2.872   3.813  13.401  0.1122 -0.1010 -0.1208
18090TIP3    H175685   2.898   3.723  13.418  0.1664 -0.1954 -0.6671
18090TIP3    H275686   2.881   3.857  13.485 -1.0464 -0.8670  0.4357
18091TIP3   OH275687   4.585   4.381  15.062 -0.0450  0.2336 -0.4228
18091TIP3    H175688   4.643   4.352  15.132 -0.1073 -0.6742 -0.7384
18091TIP3    H275689   4.618   4.338  14.983 -1.7232 -1.1606 -0.4474
18092TIP3   OH275690   4.076   2.261  16.366 -0.5550  0.0300 -0.1609
18092TIP3    H175691   4.040   2.226  16.448 -0.4773 -0.8159 -0.4876
18092TIP3    H275692   4.012   2.237  16.299 -1.0425  1.4517 -0.2394
18093TIP3   OH275693   4.964   3.474  13.856 -0.4873 -0.1078  0.8861
18093TIP3    H175694   5.023   3.439  13.923 -2.1344  0.1335  2.5418
18093TIP3    H275695   5.022   3.517  13.793  1.1250 -0.3207  2.1568
18094TIP3   OH275696   4.405   3.249   5.890  0.2257  0.5142  0.8205
18094TIP3    H175697   4.340   3.273   5.824  1.1547 -1.0913 -0.7760
18094TIP3    H275698   4.489   3.267   5.848  0.8435  0.3192  1.9378
18095TIP3   OH275699   3.757   0.624  12.368 -0.2472  0.1891  0.2009
18095TIP3    H175700   3.737   0.531  12.356 -2.3407  0.7735 -1.3697
18095TIP3    H275701   3.686   0.658  12.422  1.2171  0.6629  1.9195
18096TIP3   OH275702   1.798   0.786   0.190  0.5461  0.0961 -0.2479
18096TIP3    H175703   1.874   0.845   0.183  1.2329 -0.5405  1.4219
18096TIP3    H275704   1.809   0.724   0.118  0.9675  0.7218 -0.7299
18097TIP3   OH275705   1.165   6.219   2.025  0.4435  0.5516  0.0721
18097TIP3    H175706   1.139   6.308   2.004 -2.6444  0.1264  1.5487
18097TIP3    H275707   1.159   6.214   2.120 -1.2756 -1.6652 -0.0783
18098TIP3   OH275708   5.719   1.662  16.131  0.0094 -0.0955  0.3330
18098TIP3    H175709   5.715   1.754  16.106  2.3035 -0.0457 -0.0362
18098TIP3    H275710   5.630   1.641  16.159 -0.8522  1.8888 -0.7238
18099TIP3   OH275711   2.486   4.521   5.147  0.4238 -0.5601  0.7353
18099TIP3    H175712   2.410   4.553   5.196 -0.5547 -1.2569 -0.2824
18099TIP3    H275713   2.548   4.594   5.148 -1.1323  0.8454 -0.2292
18100TIP3   OH275714   3.609   0.329  13.449 -0.4219  0.4124  0.2096
18100TIP3    H175715   3.688   0.281  13.474  0.2238  1.2930 -0.0729
18100TIP3    H275716   3.566   0.349  13.532  0.6734  1.6011  0.5302
18101TIP3   OH275717   3.420   4.712  14.879  0.0403 -0.2133 -0.3366
18101TIP3    H175718   3.397   4.734  14.789 -0.3322 -2.1464 -0.7729
18101TIP3    H275719   3.496   4.654  14.870  1.4701  1.3925  0.7594
18102TIP3   OH275720   5.226   0.190  12.704  0.1705 -0.2607  0.6714
18102TIP3    H175721   5.161   0.132  12.663 -1.9369  1.7176  1.0258
18102TIP3    H275722   5.195   0.200  12.794  1.4047  0.1721  1.0661
18103TIP3   OH275723   6.507   1.666  11.972  0.2992 -0.4086 -0.4660
18103TIP3    H175724   6.584   1.647  12.026  2.0332 -0.3044 -2.7641
18103TIP3    H275725   6.483   1.581  11.934  1.3647  0.0544 -2.2885
18104TIP3   OH275726   3.807   6.664   0.551  0.0819 -0.3033 -0.2053
18104TIP3    H175727   3.880   6.603   0.550 -0.0811 -0.5021 -0.9985
18104TIP3    H275728   3.737   6.618   0.598 -0.5335 -1.3616 -2.0274
18105TIP3   OH275729   3.409   1.298   5.456  0.3630 -0.4999 -0.0165
18105TIP3    H175730   3.483   1.238   5.464  0.9636 -0.0037 -1.4873
18105TIP3    H275731   3.446   1.376   5.414 -0.7348  0.2822  0.4179
18106TIP3   OH275732   0.400   3.348  12.590 -0.3202  0.2584 -0.1438
18106TIP3    H175733   0.371   3.288  12.521  1.0294 -0.7997  0.1597
18106TIP3    H275734   0.428   3.291  12.661  0.7217  1.2511  0.2679
18107TIP3   OH275735   6.541   5.904  10.844 -0.3347  0.5345  0.1027
18107TIP3    H175736   6.469   5.849  10.875 -0.9469  1.5320  0.5340
18107TIP3    H275737   6.498   5.968  10.787  0.6283 -0.6290 -2.0094
18108TIP3   OH275738   6.672   1.471  14.269 -0.3594  0.1733  0.4580
18108TIP3    H175739   6.622   1.391  14.284 -1.8343  1.0592  0.4896
18108TIP3    H275740   6.608   1.532  14.231  0.7725  1.2772  0.2637
18109TIP3   OH275741   0.731   2.519  13.624 -0.2903  0.7326 -1.0188
18109TIP3    H175742   0.785   2.581  13.575  0.2588  0.2421 -1.0516
18109TIP3    H275743   0.702   2.568  13.701  3.0593  0.0951  0.8626
18110TIP3   OH275744   1.012   4.452   3.939  0.1255 -0.2198 -0.3823
18110TIP3    H175745   1.096   4.490   3.915 -0.5671  0.7327 -1.4013
18110TIP3    H275746   1.030   4.401   4.018  1.3778  1.1014  0.2246
18111TIP3   OH275747   1.427   2.233  15.354 -0.0766 -0.0215  0.3719
18111TIP3    H175748   1.422   2.329  15.350  0.5640  0.0361  0.7867
18111TIP3    H275749   1.339   2.205  15.376  0.2317  0.6274  2.7241
18112TIP3   OH275750   0.534   0.919   4.313 -0.1492 -0.0249  0.4222
18112TIP3    H175751   0.540   1.007   4.274 -0.1434 -0.9770 -1.8704
18112TIP3    H275752   0.452   0.920   4.363  0.0448  1.3866  0.7571
18113TIP3   OH275753   6.732   5.252   0.862  0.0094 -0.3022 -0.2889
18113TIP3    H175754   6.669   5.264   0.790  1.9116  0.9708 -1.8373
18113TIP3    H275755   6.699   5.311   0.931 -0.7645 -0.0185 -0.8741
18114TIP3   OH275756   4.322   1.778  14.218  0.1440 -0.1883  0.3535
18114TIP3    H175757   4.361   1.743  14.299 -1.0652 -0.5670  0.7966
18114TIP3    H275758   4.249   1.719  14.199 -1.7097  1.7797  0.8750
18115TIP3   OH275759   5.519   3.220   4.265 -0.2408 -0.4333  0.0283
18115TIP3    H175760   5.513   3.139   4.214  1.8779 -0.6628  0.0365
18115TIP3    H275761   5.607   3.253   4.247 -1.9397  3.4629 -2.1825
18116TIP3   OH275762   1.620   0.409   3.063 -0.1694 -0.2824 -0.0122
18116TIP3    H175763   1.716   0.403   3.060 -0.1496  0.1927 -2.7820
18116TIP3    H275764   1.602   0.502   3.076 -0.2735 -0.4307  0.9453
18117TIP3   OH275765   4.508   3.881   0.767 -0.3708 -0.0021 -0.1539
18117TIP3    H175766   4.574   3.822   0.731  0.2897  0.2409  0.6373
18117TIP3    H275767   4.426   3.832   0.759 -0.0569 -0.4442 -0.8269
18118TIP3   OH275768   4.285   5.442  11.211  0.2218  0.4210 -0.0945
18118TIP3    H175769   4.212   5.496  11.239 -0.9338 -1.4694  0.7549
18118TIP3    H275770   4.247   5.381  11.147  0.4763 -1.9355  1.8456
18119TIP3   OH275771   6.078   1.104   3.639 -0.1206 -0.4786 -0.3028
18119TIP3    H175772   6.129   1.086   3.718 -0.3849  0.4767  0.1036
18119TIP3    H275773   6.036   1.189   3.656 -1.2069 -0.8656 -0.9508
18120TIP3   OH275774   0.890   3.856  16.188 -0.0787 -0.2555 -0.0651
18120TIP3    H175775   0.888   3.947  16.157 -0.1626 -0.2602 -0.0733
18120TIP3    H275776   0.980   3.844  16.219 -0.9282  0.9149  3.2331
18121TIP3   OH275777   2.258   4.318  13.764  0.5535  0.4597 -0.1085
18121TIP3    H175778   2.227   4.407  13.782 -0.0568  0.4851 -1.1638
18121TIP3    H275779   2.291   4.322  13.674 -1.9869 -0.9813 -1.2049
18122TIP3   OH275780   4.209   5.873   4.776  0.2258 -0.3371  0.0299
18122TIP3    H175781   4.157   5.921   4.840  0.7075 -0.0860  0.2411
18122TIP3    H275782   4.293   5.859   4.819  0.0557 -1.4820  0.0177
18123TIP3   OH275783   4.816   2.622  16.273  0.0743  0.3413  0.5423
18123TIP3    H175784   4.733   2.666  16.286 -0.2216 -0.0987  0.1653
18123TIP3    H275785   4.808   2.540  16.322 -0.1917 -0.2767 -0.4988
18124TIP3   OH275786   0.743   5.091   2.184 -0.3249 -0.3245 -0.1055
18124TIP3    H175787   0.791   5.174   2.186 -0.3140 -0.3474  0.8026
18124TIP3    H275788   0.752   5.061   2.093  1.1115 -0.1726 -0.0308
18125TIP3   OH275789   6.592   0.024   3.335 -0.3609  0.6189 -0.4564
18125TIP3    H175790   6.647   0.095   3.368  1.1487 -0.8041  0.3036
18125TIP3    H275791   6.636  -0.006   3.255 -1.6247  1.2694 -1.4137
18126TIP3   OH275792   3.329   6.148  13.992 -0.4240  0.0141  0.1786
18126TIP3    H175793   3.383   6.080  14.031 -0.8198  0.0096  0.7230
18126TIP3    H275794   3.288   6.106  13.916  0.5689  0.1046 -0.4327
18127TIP3   OH275795   2.534   0.779   6.381 -0.3616 -0.3588 -0.4278
18127TIP3    H175796   2.467   0.752   6.318 -1.4771  1.7551 -0.2351
18127TIP3    H275797   2.547   0.873   6.364  0.5083 -0.0932  1.4021
18128TIP3   OH275798   2.085   6.786  11.189 -0.2844 -0.2201  0.5242
18128TIP3    H175799   2.014   6.773  11.126 -0.1142  0.3732  0.2012
18128TIP3    H275800   2.127   6.700  11.195 -1.8116 -0.9283  1.7095
18129TIP3   OH275801   4.189   2.416  16.552 -0.1216  0.4846 -0.3179
18129TIP3    H175802   4.150   2.368  16.479 -2.1763 -0.2942  1.2073
18129TIP3    H275803   4.228   2.348  16.607  0.0210  0.9157  0.1225
18130TIP3   OH275804   1.740   5.889   2.279  0.2117 -0.0949 -0.3464
18130TIP3    H175805   1.763   5.823   2.214  2.4858 -0.7285  0.9973
18130TIP3    H275806   1.710   5.839   2.355  0.0363  0.5145 -0.0074
18131TIP3   OH275807   4.449   4.753   3.093 -0.8010 -0.1025  0.7645
18131TIP3    H175808   4.433   4.674   3.041  1.9031 -1.3971  1.7191
18131TIP3    H275809   4.410   4.735   3.178  1.6830 -1.5033  1.7285
18132TIP3   OH275810   3.837   3.156  13.205  0.1663  0.6599 -0.2559
18132TIP3    H175811   3.843   3.139  13.299 -0.0707  0.7583 -0.2201
18132TIP3    H275812   3.914   3.208  13.184  0.2805  0.5378 -0.1379
18133TIP3   OH275813   4.359   0.140   0.865 -0.4986  0.4519 -0.0272
18133TIP3    H175814   4.319   0.143   0.952  0.0945 -0.9451  0.3104
18133TIP3    H275815   4.424   0.071   0.870 -1.2835 -0.5002 -1.9370
18134TIP3   OH275816   4.764   2.519   6.068  0.1726 -0.3273 -0.3796
18134TIP3    H175817   4.763   2.595   6.127  0.9949 -0.6922  0.1238
18134TIP3    H275818   4.708   2.455   6.110 -1.0471  0.2109 -1.1256
18135TIP3   OH275819   5.303   3.855  10.775 -0.1165  0.1565 -0.0347
18135TIP3    H175820   5.263   3.768  10.770 -0.3648  0.2124  0.7762
18135TIP3    H275821   5.390   3.843  10.737 -0.7420 -0.0484 -1.4927
18136TIP3   OH275822   5.803   2.833  15.228  0.6991  0.0700 -0.3580
18136TIP3    H175823   5.731   2.791  15.275  0.3102  0.0708 -0.9430
18136TIP3    H275824   5.788   2.810  15.136  1.7045 -0.3091 -0.4333
18137TIP3   OH275825   5.736   4.276  11.127  0.6092 -0.2423  0.0526
18137TIP3    H175826   5.790   4.355  11.127  0.9791 -0.4895  0.2234
18137TIP3    H275827   5.799   4.204  11.130  0.4289 -0.6453 -2.7682
18138TIP3   OH275828   1.133   2.951   4.228 -0.0008 -0.4509  0.0912
18138TIP3    H175829   1.049   2.955   4.274 -0.7610 -0.2157 -1.2890
18138TIP3    H275830   1.173   3.037   4.241 -1.0755  0.2746 -1.2600
18139TIP3   OH275831   0.823   1.621   3.560 -0.1322  0.1366 -0.6364
18139TIP3    H175832   0.880   1.648   3.488  0.4681  1.6090  0.3516
18139TIP3    H275833   0.840   1.527   3.570  0.7995  0.1935 -1.5051
18140TIP3   OH275834   4.941   5.450   4.642  0.0924 -0.0419  0.0621
18140TIP3    H175835   5.008   5.516   4.620  0.0399 -0.7146 -2.4072
18140TIP3    H275836   4.990   5.380   4.686  1.1081 -0.5976 -1.8396
18141TIP3   OH275837   3.497   5.621   3.275  0.7758  0.3698 -0.0941
18141TIP3    H175838   3.572   5.564   3.290  1.0504  1.0947  1.6106
18141TIP3    H275839   3.449   5.620   3.358 -0.1830  1.2143 -0.6091
18142TIP3   OH275840   0.378   2.239  16.018  0.0731 -0.3609  0.3712
18142TIP3    H175841   0.331   2.186  15.954 -1.6237 -0.6152  1.7330
18142TIP3    H275842   0.409   2.175  16.083 -1.9949  0.2023  2.0312
18143TIP3   OH275843   3.073   1.015   0.997 -0.1190  0.1764 -0.2177
18143TIP3    H175844   3.138   1.039   0.931  2.1645 -1.0457  1.4691
18143TIP3    H275845   3.093   0.924   1.019 -2.1655 -0.1119  0.6767
18144TIP3   OH275846   0.739   2.508   5.244  0.6260  0.0262 -0.2611
18144TIP3    H175847   0.830   2.480   5.251  2.1557  4.2519 -0.0684
18144TIP3    H275848   0.711   2.477   5.158  1.6381 -2.6387  0.2733
18145TIP3   OH275849   1.568   2.336   2.446 -0.1555 -0.0793  0.4448
18145TIP3    H175850   1.560   2.258   2.500 -0.9654 -0.4302 -0.1719
18145TIP3    H275851   1.662   2.348   2.436  0.0014 -0.3325  1.4512
18146TIP3   OH275852   1.063   3.469  16.030 -0.3471 -0.6505 -0.3402
18146TIP3    H175853   1.021   3.506  15.953  0.4808 -0.7894 -0.8709
18146TIP3    H275854   1.017   3.386  16.044  0.0914 -1.0623 -1.2397
18147TIP3   OH275855   0.748   3.581   3.567 -0.8861 -0.3941  0.0986
18147TIP3    H175856   0.763   3.658   3.621 -1.4034  0.7729 -1.3473
18147TIP3    H275857   0.803   3.595   3.490 -1.1604 -1.3651 -0.2924
18148TIP3   OH275858   0.473   1.652   4.253  0.8615 -0.3241 -0.9627
18148TIP3    H175859   0.469   1.736   4.208  1.8568  0.8536  1.0167
18148TIP3    H275860   0.567   1.632   4.259  0.7334 -0.6630  0.1630
18149TIP3   OH275861   2.200   3.130  17.048 -0.2199  0.5271  0.2183
18149TIP3    H175862   2.143   3.074  16.996  0.1288  0.9008 -0.5852
18149TIP3    H275863   2.264   3.071  17.087  0.0702  0.3368 -0.5247
18150TIP3   OH275864   4.733   6.404  12.729 -0.2946  0.4116 -0.1594
18150TIP3    H175865   4.722   6.367  12.642 -0.1996  1.2467 -0.5326
18150TIP3    H275866   4.824   6.388  12.751 -0.2510  0.4376 -0.3235
18151TIP3   OH275867   6.661   5.390  12.747 -0.0934  0.2244 -0.2604
18151TIP3    H175868   6.705   5.361  12.827  0.2236 -1.6142 -1.0288
18151TIP3    H275869   6.704   5.472  12.723  1.4457 -0.4115  0.2002
18152TIP3   OH275870   4.602   6.733   1.924  0.0514  1.1728  1.0239
18152TIP3    H175871   4.523   6.755   1.874  0.9814  2.4230  0.0336
18152TIP3    H275872   4.659   6.689   1.860  0.6705  1.4725  1.3551
18153TIP3   OH275873   0.525   5.875   6.068 -0.0480 -0.5771  0.5004
18153TIP3    H175874   0.563   5.869   6.156 -0.6800  0.5688  0.8670
18153TIP3    H275875   0.461   5.803   6.065  0.1225 -0.7509  0.8985
18154TIP3   OH275876   4.365   0.723   2.378 -0.3504 -0.4430  0.0358
18154TIP3    H175877   4.349   0.708   2.471  1.0024  0.9011  0.5339
18154TIP3    H275878   4.288   0.770   2.347  0.0548  0.9119  0.9964
18155TIP3   OH275879   3.458   4.764   2.882  0.0842  0.2096 -0.3851
18155TIP3    H175880   3.372   4.796   2.856  0.4323 -0.4723 -2.5637
18155TIP3    H275881   3.500   4.840   2.922 -1.5113  0.5390  0.7740
18156TIP3   OH275882   2.520   6.507  16.151 -0.2371  0.1053 -0.2228
18156TIP3    H175883   2.580   6.567  16.195  0.8473 -1.1685  0.1138
18156TIP3    H275884   2.527   6.529  16.058  0.5551  0.1628 -0.1567
18157TIP3   OH275885   6.648   5.830  15.123  0.2924 -0.1993 -0.2446
18157TIP3    H175886   6.640   5.762  15.190  0.2489 -0.2833 -0.3367
18157TIP3    H275887   6.740   5.858  15.130 -0.0668  0.7860  0.8292
18158TIP3   OH275888   1.410   4.258   4.543  0.2366 -0.1820  0.4181
18158TIP3    H175889   1.486   4.317   4.545  0.6630 -0.6911 -0.1301
18158TIP3    H275890   1.371   4.265   4.630  1.0205 -0.0405  0.7659
18159TIP3   OH275891   4.863   1.928   3.320  0.0101  0.0815 -0.2423
18159TIP3    H175892   4.852   1.999   3.256 -0.0731  0.5067  0.2376
18159TIP3    H275893   4.858   1.848   3.268 -0.3731  0.4153 -0.7303
18160TIP3   OH275894   3.016   4.590  16.628  0.1055  0.0132  0.0558
18160TIP3    H175895   3.087   4.583  16.564 -0.1129 -0.4575 -0.1436
18160TIP3    H275896   2.938   4.605  16.576  0.1536  1.2255  0.3217
18161TIP3   OH275897   3.049   0.881  12.184  0.0938 -0.0810 -0.3559
18161TIP3    H175898   3.141   0.854  12.185 -0.1342 -0.8768  0.5046
18161TIP3    H275899   3.023   0.875  12.092  0.9830  0.4698 -0.6545
18162TIP3   OH275900   0.533   5.367   3.727 -0.0397 -0.8963  0.1869
18162TIP3    H175901   0.536   5.273   3.705 -1.6735 -1.1133  0.6802
18162TIP3    H275902   0.601   5.378   3.793  3.0527 -0.8034 -2.7220
18163TIP3   OH275903   6.039   0.755   0.904  0.6559  0.1153  0.0790
18163TIP3    H175904   5.983   0.773   0.829  1.3309 -0.3564 -0.5469
18163TIP3    H275905   5.978   0.736   0.976  0.0009  1.0842 -0.2036
18164TIP3   OH275906   5.835   3.335  13.131 -0.1282  0.2007 -0.0314
18164TIP3    H175907   5.793   3.406  13.180  1.0005  1.7353 -1.1900
18164TIP3    H275908   5.873   3.278  13.198  0.2795  1.5420  0.9124
18165TIP3   OH275909   4.714   2.636  15.983 -0.1903 -0.1906 -0.3298
18165TIP3    H175910   4.777   2.592  15.926  1.8850  1.3126  0.6646
18165TIP3    H275911   4.691   2.570  16.048 -1.4197 -1.4463 -1.9558
18166TIP3   OH275912   5.634   3.940  10.960  0.2999  0.0786  0.3368
18166TIP3    H175913   5.712   3.884  10.969 -0.0095 -0.2385  1.1912
18166TIP3    H275914   5.622   3.950  10.866  0.9380 -0.4817  0.1864
18167TIP3   OH275915   2.995   6.770  11.739  0.2686 -0.1988  0.4470
18167TIP3    H175916   2.930   6.700  11.725 -1.6082  1.5996 -0.3668
18167TIP3    H275917   3.023   6.793  11.651  0.3359  0.5479  0.6645
18168TIP3   OH275918   4.745   3.160  12.939 -0.2254  0.5440  0.5063
18168TIP3    H175919   4.668   3.193  12.892 -1.5517 -1.2342  1.3351
18168TIP3    H275920   4.728   3.067  12.950  3.1465 -0.4569 -1.3384
18169TIP3   OH275921   2.229   6.032   5.922  0.5854 -0.6467  0.0666
18169TIP3    H175922   2.223   6.013   6.015 -1.1947  1.8257  0.5658
18169TIP3    H275923   2.146   6.003   5.885  0.4549  0.1762 -0.3325
18170TIP3   OH275924   1.473   4.207  12.109 -0.2924  0.5640 -0.6373
18170TIP3    H175925   1.477   4.171  12.197 -0.1604 -0.3016 -0.9798
18170TIP3    H275926   1.389   4.252  12.105 -1.1764 -0.9960 -0.6390
18171TIP3   OH275927   1.623   1.761   1.872 -0.6003  0.1255 -0.4041
18171TIP3    H175928   1.708   1.744   1.832 -0.4516 -1.3946  0.4724
18171TIP3    H275929   1.628   1.851   1.902  0.3743  0.3343 -1.1519
18172TIP3   OH275930   1.203   5.464  15.533 -0.7242  0.7180 -0.5907
18172TIP3    H175931   1.162   5.412  15.464 -0.3338  0.6448 -0.7696
18172TIP3    H275932   1.177   5.420  15.614  0.5274 -0.4500 -0.7871
18173TIP3   OH275933   1.244   3.277  13.056  0.5358 -0.1083 -0.0306
18173TIP3    H175934   1.191   3.357  13.052 -0.7559 -0.9607 -1.0537
18173TIP3    H275935   1.208   3.229  13.130  2.3044  0.8706  1.5369
18174TIP3   OH275936   4.682   0.022  13.514  0.3542  0.2270 -0.6778
18174TIP3    H175937   4.746   0.011  13.584 -4.0748 -1.4702  3.6815
18174TIP3    H275938   4.672  -0.066  13.477  0.2071  0.4103 -1.0777
18175TIP3   OH275939   3.267   0.395   5.899  0.5210  0.8416 -0.6231
18175TIP3    H175940   3.193   0.439   5.941  1.5552  2.2348 -0.1778
18175TIP3    H275941   3.234   0.370   5.813 -0.5636  1.1003 -0.3082
18176TIP3   OH275942   1.609   4.216  14.807  0.3800  0.1879  0.2530
18176TIP3    H175943   1.611   4.295  14.861  0.4713 -0.2527  0.9017
18176TIP3    H275944   1.522   4.217  14.767  0.1363  0.2613  0.7865
18177TIP3   OH275945   5.840   1.460   5.067  0.0064 -0.7215  0.1735
18177TIP3    H175946   5.855   1.379   5.018 -0.7383  0.0884 -1.4781
18177TIP3    H275947   5.922   1.509   5.058 -0.1796 -0.5127 -0.3880
18178TIP3   OH275948   1.036   4.000  13.214  0.2317  0.2845 -0.2406
18178TIP3    H175949   1.018   4.039  13.129  0.2713 -0.0896 -0.4230
18178TIP3    H275950   1.003   4.063  13.278 -2.0573 -0.5420 -0.5478
18179TIP3   OH275951   1.550   2.161   2.665  0.2333 -0.0346  0.2512
18179TIP3    H175952   1.520   2.177   2.755  0.2812 -0.3129  0.3161
18179TIP3    H275953   1.592   2.075   2.668  0.1295 -0.0984 -0.0627
18180TIP3   OH275954   3.691   3.771   4.112  0.7375 -0.4252  0.6798
18180TIP3    H175955   3.615   3.795   4.165  0.6337  1.8199 -0.3655
18180TIP3    H275956   3.764   3.769   4.174  0.1866 -0.5783  1.3393
18181TIP3   OH275957   1.187   4.020   2.813  0.2598 -0.3169 -0.6634
18181TIP3    H175958   1.192   4.113   2.791  0.4784 -0.7645 -2.6539
18181TIP3    H275959   1.094   3.999   2.805 -0.3535  0.3306  2.8234
18182TIP3   OH275960   2.517   0.316   1.253  0.7777 -0.2159  0.2861
18182TIP3    H175961   2.527   0.386   1.189 -1.9851  0.4572  0.4664
18182TIP3    H275962   2.580   0.338   1.322 -0.4395  2.5766  0.6609
18183TIP3   OH275963   4.636   3.742   4.998 -0.3335 -0.1662 -0.2210
18183TIP3    H175964   4.710   3.695   5.036 -1.3174 -2.1675 -0.6507
18183TIP3    H275965   4.608   3.803   5.066  0.6842 -0.5429  0.5586
18184TIP3   OH275966   2.370   2.696  14.969  0.3589  0.1154  0.2699
18184TIP3    H175967   2.300   2.760  14.954 -0.3229 -0.4882  0.8221
18184TIP3    H275968   2.341   2.646  15.045 -0.1724 -2.2677 -1.3873
18185TIP3   OH275969   0.735   1.082  12.149  0.7632 -0.4811  0.2699
18185TIP3    H175970   0.645   1.074  12.182  0.9545  0.3641  1.0110
18185TIP3    H275971   0.752   1.176  12.147  1.6554 -0.6365  0.1862
18186TIP3   OH275972   1.730   0.447  12.105 -0.0343 -0.2893  0.6658
18186TIP3    H175973   1.776   0.418  12.184  2.5773 -0.6210 -0.8304
18186TIP3    H275974   1.748   0.541  12.100  1.6783 -0.6277 -0.5583
18187TIP3   OH275975   6.353   3.878   3.845 -0.2434 -0.0766 -0.2704
18187TIP3    H175976   6.321   3.854   3.758 -0.1452  0.0605 -0.3433
18187TIP3    H275977   6.403   3.801   3.874  1.5052  0.6625 -1.1922
18188TIP3   OH275978   6.770   0.553  11.933 -0.3279 -0.2059 -0.4781
18188TIP3    H175979   6.799   0.644  11.929 -0.5494 -0.0342  1.2261
18188TIP3    H275980   6.828   0.512  11.997 -1.6886 -0.6763  0.4972
18189TIP3   OH275981   5.193   5.623   4.681  0.2034 -0.0843 -0.2449
18189TIP3    H175982   5.151   5.708   4.667  2.3360  1.3183  1.2361
18189TIP3    H275983   5.279   5.631   4.638  0.6885 -1.2607  0.4564
18190TIP3   OH275984   2.634   2.913  15.146 -0.2125 -0.0259  0.0173
18190TIP3    H175985   2.583   2.945  15.220 -2.6073 -1.9033 -0.6804
18190TIP3    H275986   2.653   2.991  15.094 -1.3903  0.8918  0.9083
18191TIP3   OH275987   4.955   3.168  15.485 -0.6161 -0.1812  0.0455
18191TIP3    H175988   5.007   3.248  15.473 -1.0502 -0.1498 -2.1669
18191TIP3    H275989   4.882   3.178  15.424 -0.7077 -2.2585 -0.2596
18192TIP3   OH275990   3.009   3.263  12.465  0.5380  0.3222 -0.3576
18192TIP3    H175991   3.072   3.280  12.535  0.3008  0.0892 -0.0802
18192TIP3    H275992   2.998   3.347  12.421  1.0505  0.3593 -0.4164
18193TIP3   OH275993   1.908   2.054   0.708 -0.2293 -0.3326  0.0516
18193TIP3    H175994   1.932   2.121   0.645 -0.6669  0.2931  0.5394
18193TIP3    H275995   1.846   2.097   0.766 -0.4302 -1.1282  0.4391
18194TIP3   OH275996   5.854   0.484  10.955 -0.3268  0.3541  0.1607
18194TIP3    H175997   5.944   0.453  10.944 -0.3267  0.3909  0.0605
18194TIP3    H275998   5.856   0.533  11.037 -0.4427 -0.3503  0.5985
18195TIP3   OH275999   1.478   2.662  15.871  0.2026  0.3249 -0.3361
18195TIP3    H176000   1.502   2.638  15.961  1.8584 -0.3764 -0.9413
18195TIP3    H276001   1.491   2.757  15.868 -0.9389  0.5339  0.4538
18196TIP3   OH276002   1.451   1.761   0.878 -0.2119  0.3398 -0.3756
18196TIP3    H176003   1.489   1.678   0.850  0.9193  1.0904 -1.1933
18196TIP3    H276004   1.403   1.793   0.801  0.7614  1.2056 -0.6469
18197TIP3   OH276005   0.498   2.877   2.897  0.6994  0.3661 -0.5119
18197TIP3    H176006   0.414   2.906   2.933  0.7112  0.7301 -0.7662
18197TIP3    H276007   0.561   2.941   2.929  1.0030 -0.3261  0.2793
18198TIP3   OH276008   2.244   4.162   4.813 -0.0682 -0.2576 -0.3211
18198TIP3    H176009   2.200   4.232   4.862 -2.6722 -1.9658 -0.0245
18198TIP3    H276010   2.326   4.148   4.861 -0.0588  1.6688  0.3510
18199TIP3   OH276011   6.348   4.067  14.617  0.1106  0.1264  0.3797
18199TIP3    H176012   6.282   4.012  14.658  0.7939 -3.0449 -2.3435
18199TIP3    H276013   6.432   4.027  14.643  0.6939  0.6351 -0.6489
18200TIP3   OH276014   1.340   2.025  16.540 -0.6229 -0.1774  0.1162
18200TIP3    H176015   1.380   1.985  16.463 -1.7042 -1.2052  0.0441
18200TIP3    H276016   1.289   1.954  16.580  0.6419  0.0722  2.3193
18201TIP3   OH276017   5.490   2.141   3.992 -0.5385  0.1144  0.3568
18201TIP3    H176018   5.526   2.224   4.023  0.5581 -0.0718 -0.3578
18201TIP3    H276019   5.518   2.135   3.901  1.4068 -2.0820  1.0040
18202TIP3   OH276020   5.782   6.337  17.014  0.2415  0.0149  0.1139
18202TIP3    H176021   5.689   6.316  17.001  0.0467  0.6261  0.5046
18202TIP3    H276022   5.782   6.420  17.061  0.9178 -1.2725  2.6200
18203TIP3   OH276023   5.273   5.501  11.119 -0.1709  0.4667  0.2118
18203TIP3    H176024   5.325   5.565  11.071 -0.4999 -0.3439 -1.2744
18203TIP3    H276025   5.182   5.526  11.101 -0.3083 -0.7075 -0.8257
18204TIP3   OH276026   4.542   4.334   1.939  0.1185  0.0370 -0.0624
18204TIP3    H176027   4.602   4.354   1.867 -2.0168  1.4369 -1.5696
18204TIP3    H276028   4.529   4.418   1.983 -0.7606 -0.2366  0.2127
18205TIP3   OH276029   3.527   2.518  12.563  0.3119 -0.2834 -0.2680
18205TIP3    H176030   3.465   2.449  12.584  0.1460  0.6375  2.8277
18205TIP3    H276031   3.549   2.557  12.647  4.6956 -0.1551 -1.2104
18206TIP3   OH276032   6.726   5.014  16.202 -0.2424 -0.1974  0.3046
18206TIP3    H176033   6.695   4.925  16.187  0.9715 -0.7563  0.9394
18206TIP3    H276034   6.731   5.022  16.297 -1.8850  1.1290  0.3211
18207TIP3   OH276035   6.729   2.604   1.053  0.2612 -0.2776  0.0771
18207TIP3    H176036   6.818   2.609   1.020 -0.3087 -3.3500 -2.4076
18207TIP3    H276037   6.678   2.659   0.994  0.1921 -0.4009  0.0206
18208TIP3   OH276038   2.508   5.919  14.285  0.2315  0.1766 -0.1556
18208TIP3    H176039   2.519   5.826  14.302 -0.3326 -0.0177 -0.7949
18208TIP3    H276040   2.436   5.923  14.222  1.0727  0.9659 -1.0985
18209TIP3   OH276041   4.268   4.929  13.386  0.6609  0.4265 -0.2295
18209TIP3    H176042   4.205   4.960  13.320 -0.6509  0.1519  0.8459
18209TIP3    H276043   4.214   4.911  13.463  1.7406 -1.8831  0.0588
18210TIP3   OH276044   0.143   2.439   5.633  0.1037 -0.2892  0.6218
18210TIP3    H176045   0.188   2.371   5.582 -1.8175 -1.3462  0.2203
18210TIP3    H276046   0.068   2.464   5.578  0.1043  1.3005  1.3077
18211TIP3   OH276047   2.380   4.372   1.375 -0.4568 -0.0566  0.2646
18211TIP3    H176048   2.349   4.282   1.387  1.6836 -0.7669  0.9810
18211TIP3    H276049   2.383   4.384   1.280  1.0968 -1.4911  0.0843
18212TIP3   OH276050   2.652   4.861   3.511  0.0910 -0.7328 -0.0631
18212TIP3    H176051   2.634   4.864   3.605  0.6982  1.2477  0.0313
18212TIP3    H276052   2.566   4.872   3.470  0.1561  2.2018  0.3457
18213TIP3   OH276053   6.778   2.365   1.308  0.1340  0.2372  0.0964
18213TIP3    H176054   6.814   2.300   1.247 -1.9890 -1.2156  0.2732
18213TIP3    H276055   6.835   2.360   1.385  0.2317 -1.2247 -0.0300
18214TIP3   OH276056   0.956   2.178   2.859  0.4144  0.6013  0.6616
18214TIP3    H176057   0.871   2.203   2.895 -0.0659  0.4934 -0.3504
18214TIP3    H276058   0.950   2.083   2.848  1.4738  0.2735  2.5785
18215TIP3   OH276059   4.328   3.687   2.403  0.4941 -0.0812 -0.0687
18215TIP3    H176060   4.320   3.770   2.450  0.0304 -0.9193  1.3788
18215TIP3    H276061   4.422   3.669   2.402  0.5011 -0.0884  0.6005
18216TIP3   OH276062   5.125   2.368  14.609  0.1642  0.0712 -0.0099
18216TIP3    H176063   5.176   2.290  14.587 -2.3925 -1.5987 -0.4864
18216TIP3    H276064   5.177   2.412  14.676  2.8477 -0.6926 -1.4434
18217TIP3   OH276065   4.387   2.875   4.863  0.0162 -0.3034  0.5101
18217TIP3    H176066   4.443   2.819   4.917 -0.5081 -0.0485  1.3330
18217TIP3    H276067   4.302   2.874   4.906 -0.2319  0.4489  0.0665
18218TIP3   OH276068   4.226   5.503   3.034  0.3094  0.5845 -0.4867
18218TIP3    H176069   4.230   5.428   2.975 -0.6944  0.8459 -0.8984
18218TIP3    H276070   4.228   5.465   3.122  0.1678  0.1014 -0.6939
18219TIP3   OH276071   3.674   2.946  10.904  0.1121  0.0015  0.5059
18219TIP3    H176072   3.756   2.963  10.858  0.1791 -0.2819  0.5221
18219TIP3    H276073   3.612   3.009  10.867 -1.3237 -3.4724 -3.8296
18220TIP3   OH276074   5.466   3.237   5.031 -0.1455 -0.3348 -0.4600
18220TIP3    H176075   5.439   3.329   5.029 -1.7559 -0.7627 -0.1943
18220TIP3    H276076   5.387   3.190   5.057  0.9551 -1.6895  0.5820
18221TIP3   OH276077   5.295   6.598   5.864  0.2259  0.0527 -0.5012
18221TIP3    H176078   5.386   6.583   5.891  0.2222 -0.1851 -0.6184
18221TIP3    H276079   5.257   6.647   5.936 -0.5386 -2.8766  1.2557
18222TIP3   OH276080   6.534   3.836  13.454 -0.4562 -0.3565  0.6129
18222TIP3    H176081   6.468   3.821  13.387  0.2123  1.8963 -0.6541
18222TIP3    H276082   6.593   3.901  13.415 -0.4629  1.6663  3.6659
18223TIP3   OH276083   2.062   4.633  16.990  0.1174 -0.0300 -0.1723
18223TIP3    H176084   2.019   4.627  17.075  0.5930 -0.3494  0.0538
18223TIP3    H276085   2.065   4.726  16.971  2.0246  0.2790  1.2498
18224TIP3   OH276086   4.544   0.222  11.092  0.1727 -0.3162 -0.4481
18224TIP3    H176087   4.618   0.282  11.088 -0.7337  0.8056 -1.3424
18224TIP3    H276088   4.467   0.279  11.100 -0.5186 -1.4628  3.0310
18225TIP3   OH276089   4.671   1.689  16.007  0.1529 -0.7532  0.0616
18225TIP3    H176090   4.597   1.653  15.958 -0.2043 -1.5262  1.1424
18225TIP3    H276091   4.637   1.703  16.095  1.2955 -1.1351  0.5839
18226TIP3   OH276092   5.907   5.428   4.026 -0.7812 -0.0744  0.1766
18226TIP3    H176093   5.938   5.377   4.101  1.1446  1.6054  0.6115
18226TIP3    H276094   5.897   5.364   3.956 -1.8799 -1.5603  1.6314
18227TIP3   OH276095   2.621   6.543   0.905  0.3921  0.4274  0.3215
18227TIP3    H176096   2.585   6.622   0.944  2.9647  1.6713  0.3679
18227TIP3    H276097   2.627   6.481   0.978 -2.4841 -0.2291  0.1057
18228TIP3   OH276098   5.319   2.433  13.488  0.3012  0.0452  0.2967
18228TIP3    H176099   5.298   2.368  13.422 -0.2505  1.4595 -0.9887
18228TIP3    H276100   5.237   2.445  13.536  0.1514  0.3974 -0.0381
18229TIP3   OH276101   0.268   3.031  16.431 -0.1429 -0.1882 -0.4185
18229TIP3    H176102   0.229   2.949  16.462 -0.4053 -0.2667 -0.9477
18229TIP3    H276103   0.203   3.067  16.371  0.1093  0.2556 -0.4274
18230TIP3   OH276104   5.020   3.616   5.439 -0.2100  1.0146  0.3703
18230TIP3    H176105   5.022   3.711   5.449 -0.6035  1.0462  0.1677
18230TIP3    H276106   5.017   3.583   5.529  0.2688  1.1805  0.4528
18231TIP3   OH276107   1.874   1.621  11.929 -0.0334  0.7270 -0.3894
18231TIP3    H176108   1.818   1.667  11.866 -0.2361  1.0123 -0.0055
18231TIP3    H276109   1.892   1.686  11.997  1.1318  0.7679 -0.7224
18232TIP3   OH276110   3.852   0.583  15.043  0.7025  0.2735  0.2358
18232TIP3    H176111   3.880   0.656  14.988  0.7159  0.3079  0.2872
18232TIP3    H276112   3.764   0.606  15.071 -0.2706 -0.8632 -1.7149
18233TIP3   OH276113   3.141   1.649   0.167  0.0497  0.1883 -0.3302
18233TIP3    H176114   3.105   1.657   0.256  1.2345 -0.7382  0.2627
18233TIP3    H276115   3.195   1.727   0.156  0.7127 -0.1907  0.1708
18234TIP3   OH276116   1.720   0.587   4.753 -0.4171  0.4167 -0.7520
18234TIP3    H176117   1.770   0.581   4.672  0.7916 -1.2066  0.0609
18234TIP3    H276118   1.658   0.515   4.748  0.6617 -0.6220  0.3831
18235TIP3   OH276119   0.430   2.471   5.831  0.0333  0.5589 -0.4623
18235TIP3    H176120   0.429   2.523   5.750 -0.0476 -0.9994 -1.5007
18235TIP3    H276121   0.375   2.395   5.811 -1.6185  1.0822  1.7379
18236TIP3   OH276122   1.932   6.647  13.770  0.6086 -0.3685  0.5451
18236TIP3    H176123   1.855   6.676  13.721 -0.4783 -1.7567  1.3791
18236TIP3    H276124   1.900   6.636  13.860  1.5480 -1.8178  0.7263
18237TIP3   OH276125   6.326   1.166   4.324 -0.1397  0.2408 -0.0065
18237TIP3    H176126   6.324   1.080   4.366 -1.2744 -0.3227 -1.1474
18237TIP3    H276127   6.394   1.214   4.371 -0.3672 -0.8416  1.4886
18238TIP3   OH276128   6.537   2.894   2.819  0.4399 -0.0929  0.2673
18238TIP3    H176129   6.538   2.943   2.737 -0.8860  0.6946  0.6881
18238TIP3    H276130   6.532   2.802   2.792  0.3306  0.1471 -0.5384
18239TIP3   OH276131   5.978   2.510  16.117 -0.4592 -0.3756 -0.0150
18239TIP3    H176132   6.004   2.594  16.153  0.3491  1.0574 -3.5257
18239TIP3    H276133   6.020   2.445  16.174  1.2303  1.6624  1.1774
18240TIP3   OH276134   1.566   2.593  15.571 -0.4783  0.1110  0.1734
18240TIP3    H176135   1.621   2.522  15.604 -1.8680 -1.2494 -0.3052
18240TIP3    H276136   1.517   2.622  15.647  1.8700  2.3934  0.9712
18241TIP3   OH276137   0.186   5.972  16.947 -0.0441  0.4176 -0.6170
18241TIP3    H176138   0.125   6.043  16.967 -0.2175  0.4556 -1.2542
18241TIP3    H276139   0.134   5.909  16.897  0.5881  0.7597 -1.7505
18242TIP3   OH276140   6.527   5.485   1.917  0.2713  0.1468  0.6561
18242TIP3    H176141   6.460   5.443   1.971  0.1713 -0.8662 -0.2319
18242TIP3    H276142   6.604   5.429   1.926  0.2879  0.0351 -0.1498
18243TIP3   OH276143   4.895   6.563   0.869  0.4099  0.3518 -0.1941
18243TIP3    H176144   4.983   6.572   0.906 -0.8879  0.8338  3.1864
18243TIP3    H276145   4.875   6.470   0.877  0.0085  0.5047  0.7323
18244TIP3   OH276146   1.544   4.627  13.808 -0.5839 -0.3877 -0.7217
18244TIP3    H176147   1.472   4.644  13.747 -2.3596 -0.9730  1.1103
18244TIP3    H276148   1.521   4.544  13.850 -0.2331  0.7157  1.8335
18245TIP3   OH276149   4.278   4.791  11.987  0.0143  0.1730  0.4321
18245TIP3    H176150   4.186   4.808  12.008  0.2038  1.3915  0.3299
18245TIP3    H276151   4.274   4.730  11.914 -0.6607 -2.4642  2.5256
18246TIP3   OH276152   4.480   1.143   5.321 -0.0164 -0.1071  0.8757
18246TIP3    H176153   4.510   1.206   5.255 -0.4614  0.2763  1.0326
18246TIP3    H276154   4.543   1.071   5.316 -1.1775 -1.0204 -1.3574
18247TIP3   OH276155   5.512   0.228   4.326 -0.2774  0.3932  0.2329
18247TIP3    H176156   5.548   0.274   4.250 -0.5453  2.6203  1.3815
18247TIP3    H276157   5.481   0.145   4.291  1.0495  0.6743 -1.7856
18248TIP3   OH276158   2.783   1.885   4.938 -0.5598 -0.9626 -0.0228
18248TIP3    H176159   2.746   1.843   4.860 -2.5843 -0.6467  0.7039
18248TIP3    H276160   2.766   1.978   4.924  0.1925 -0.7822  0.2389
18249TIP3   OH276161   6.335   4.154  15.577 -0.4700  0.0666 -0.9757
18249TIP3    H176162   6.268   4.206  15.532 -0.2625 -0.6964 -2.1888
18249TIP3    H276163   6.290   4.074  15.604 -0.5268  0.4030 -0.0271
18250TIP3   OH276164   0.611   5.182   5.543 -0.2215 -0.5203 -0.1149
18250TIP3    H176165   0.582   5.263   5.502 -1.0310 -1.3895 -1.3190
18250TIP3    H276166   0.617   5.203   5.636 -1.4578  0.6410 -0.2656
18251TIP3   OH276167   3.559   2.460  10.748  0.2711 -0.0385  0.2569
18251TIP3    H176168   3.526   2.482  10.836  0.3874 -1.4101  0.6697
18251TIP3    H276169   3.494   2.399  10.713  1.7559 -1.9605  0.6684
18252TIP3   OH276170   4.903   6.513  13.174 -0.4157 -0.3757 -0.1174
18252TIP3    H176171   4.926   6.465  13.094 -1.0247 -0.5796 -0.1775
18252TIP3    H276172   4.874   6.445  13.235  0.3869 -0.2551  0.3996
18253TIP3   OH276173   4.259   5.976  13.940 -0.1032 -0.2414  0.0178
18253TIP3    H176174   4.271   6.033  14.016  2.7314  1.1996 -1.3274
18253TIP3    H276175   4.317   6.013  13.874  0.1720 -3.4183 -1.7259
18254TIP3   OH276176   2.754   6.088   5.626 -0.0695  0.7707  0.7779
18254TIP3    H176177   2.823   6.024   5.641 -1.0714 -1.6969 -3.4685
18254TIP3    H276178   2.801   6.170   5.608  1.8334 -0.5797 -0.9209
18255TIP3   OH276179   4.988   1.659   0.854  0.3180 -0.4049  0.1742
18255TIP3    H176180   4.998   1.733   0.913 -1.0144  1.8529 -2.2035
18255TIP3    H276181   4.893   1.646   0.847  0.5115 -2.0620  0.1818
18256TIP3   OH276182   4.786   3.977  16.601 -0.0216 -0.9005  0.7097
18256TIP3    H176183   4.724   4.046  16.623 -0.6633 -1.7324  1.6090
18256TIP3    H276184   4.732   3.898  16.592  0.6421 -1.2272 -0.6949
18257TIP3   OH276185   6.182   0.034  12.109 -0.3639  0.1155 -0.1641
18257TIP3    H176186   6.092   0.067  12.121 -0.2979  0.3047 -0.1893
18257TIP3    H276187   6.177  -0.058  12.136  0.0207  0.7747  2.4888
18258TIP3   OH276188   6.715   6.682  11.449  0.2581  0.1555 -0.3492
18258TIP3    H176189   6.623   6.705  11.434  0.3213  0.5578 -0.1408
18258TIP3    H276190   6.750   6.756  11.499  0.6109 -0.1488 -0.1452
18259TIP3   OH276191   4.486   2.179  12.529  0.4937 -0.0753 -0.0228
18259TIP3    H176192   4.489   2.189  12.624  1.4595  0.1082 -0.0629
18259TIP3    H276193   4.511   2.088  12.514  0.2632 -0.1266 -0.1041
18260TIP3   OH276194   4.425   3.601   5.261 -0.0205  0.4545  0.4961
18260TIP3    H176195   4.367   3.657   5.210 -1.9642  0.4324  2.5310
18260TIP3    H276196   4.394   3.512   5.244 -0.0039  0.3684  0.9054
18261TIP3   OH276197   6.768   4.591   2.864 -0.1415  0.6042  0.4089
18261TIP3    H176198   6.736   4.603   2.953 -0.2525 -1.3050  0.6580
18261TIP3    H276199   6.709   4.643   2.809 -0.3516  1.4144  1.3811
18262TIP3   OH276200   4.292   0.777   6.189 -0.3369  0.4737 -0.3796
18262TIP3    H176201   4.364   0.716   6.173 -0.6483  0.3379 -1.3082
18262TIP3    H276202   4.231   0.727   6.244  0.0622  0.4456  0.0499
18263TIP3   OH276203   6.709   1.027   0.490 -0.6653 -0.9448  0.1446
18263TIP3    H176204   6.621   1.012   0.457 -0.8393 -0.5537  0.4256
18263TIP3    H276205   6.702   1.019   0.585 -0.3945 -0.9433  0.1665
18264TIP3   OH276206   0.262   3.924   3.935 -0.6499 -0.4109 -0.0581
18264TIP3    H176207   0.296   4.013   3.927 -1.0138 -0.2272  0.3632
18264TIP3    H276208   0.317   3.883   4.001 -0.8023 -0.3331  0.1193
18265TIP3   OH276209   3.099   5.818   0.419 -1.1380  0.0699 -0.0464
18265TIP3    H176210   3.168   5.862   0.470  0.5735 -1.8837 -0.5364
18265TIP3    H276211   3.028   5.803   0.481 -0.3293  0.4192  0.9788
18266TIP3   OH276212   4.075   5.609  14.659  0.4153 -0.2592  0.3732
18266TIP3    H176213   4.137   5.629  14.589 -2.4598  0.2397 -2.2406
18266TIP3    H276214   4.125   5.623  14.740  3.0333  2.3438 -1.4742
18267TIP3   OH276215   4.078   2.008  15.553  0.3933 -0.1366  0.7089
18267TIP3    H176216   4.116   1.921  15.549 -0.9997 -0.8210  1.4186
18267TIP3    H276217   3.997   2.001  15.503  0.5501  0.9264  0.2766
18268TIP3   OH276218   0.510   4.773  16.301 -0.1991 -0.4807  0.0644
18268TIP3    H176219   0.446   4.815  16.358 -1.5936 -2.5918  0.1497
18268TIP3    H276220   0.458   4.727  16.235  1.3094 -0.4774 -1.2125
18269TIP3   OH276221   4.337   2.698   0.072 -0.6721  0.4507 -0.3216
18269TIP3    H176222   4.379   2.673   0.154 -0.2711  1.5608 -0.1697
18269TIP3    H276223   4.386   2.775   0.042 -1.1412  0.3725 -1.3346
18270TIP3   OH276224   0.083   4.867  12.424 -0.4267  0.2156  0.4810
18270TIP3    H176225   0.167   4.860  12.378 -0.9661  1.3870 -0.7130
18270TIP3    H276226   0.063   4.777  12.450  1.0784 -0.1165  0.5818
18271TIP3   OH276227   0.395   4.546  15.756 -0.1712  0.0738 -0.2956
18271TIP3    H176228   0.303   4.571  15.757 -0.2335  0.0033  2.2980
18271TIP3    H276229   0.394   4.452  15.740 -0.6449 -0.0756  0.5087
18272TIP3   OH276230   3.965   1.135  13.357 -0.3822 -0.1735  0.4114
18272TIP3    H176231   3.919   1.171  13.281 -1.7258  2.0481  2.1503
18272TIP3    H276232   3.924   1.050  13.373 -1.5078  0.2500 -0.1439
18273TIP3   OH276233   5.909   3.207   6.405 -0.1200 -0.0471 -0.4353
18273TIP3    H176234   5.870   3.293   6.387  0.2772  0.8534  2.4040
18273TIP3    H276235   5.901   3.159   6.323 -0.4176  2.6677 -2.1372
18274TIP3   OH276236   2.596   6.383   1.138 -0.0020 -0.5280 -0.3729
18274TIP3    H176237   2.593   6.302   1.188  2.2103  0.9289  2.4301
18274TIP3    H276238   2.542   6.444   1.188  0.6360  0.4620 -0.8734
18275TIP3   OH276239   1.906   3.554   3.876  0.2925  0.1734 -0.4330
18275TIP3    H176240   1.960   3.588   3.805  0.0775  3.4398  0.8113
18275TIP3    H276241   1.830   3.516   3.832  1.4785 -0.5531 -1.9950
18276TIP3   OH276242   5.262   4.590   5.467  0.3879  0.1994  1.0366
18276TIP3    H176243   5.182   4.544   5.442  0.7613 -0.7608  1.5520
18276TIP3    H276244   5.333   4.528   5.452  1.4275  1.9064 -1.9780
18277TIP3   OH276245   5.020   2.476  12.091  0.0916 -0.3681  0.3553
18277TIP3    H176246   4.952   2.506  12.030  1.8953  0.8096 -1.1921
18277TIP3    H276247   4.998   2.384  12.107 -1.9916  0.0401  0.1322
18278TIP3   OH276248   4.364   2.988   0.741 -0.1056 -0.2002 -0.2953
18278TIP3    H176249   4.430   3.054   0.720  1.1577 -0.9096  1.2253
18278TIP3    H276250   4.281   3.033   0.732  0.5767  0.8763 -1.7626
18279TIP3   OH276251   2.074   4.876  13.599  0.1331 -0.0820 -0.0764
18279TIP3    H176252   2.055   4.899  13.508  1.7342  0.3444 -0.3434
18279TIP3    H276253   2.027   4.940  13.651  0.6393  0.7971 -0.6730
18280TIP3   OH276254   1.705   1.202  12.202 -0.4288  0.1889 -0.0918
18280TIP3    H176255   1.722   1.161  12.117  2.7704 -0.6845  0.8234
18280TIP3    H276256   1.697   1.129  12.263 -0.3805  0.8384  0.7041
18281TIP3   OH276257   0.524   5.663   3.620  0.0658 -0.3235  0.3879
18281TIP3    H176258   0.522   5.748   3.664  1.8118 -0.1345  0.1510
18281TIP3    H276259   0.601   5.619   3.657 -0.8651 -1.8606  0.5789
18282TIP3   OH276260   3.924   6.252  15.751  0.6927 -0.3770  0.9678
18282TIP3    H176261   3.948   6.345  15.755 -1.3128  0.2197  0.1705
18282TIP3    H276262   3.974   6.217  15.677 -0.4820  0.7294 -0.4078
18283TIP3   OH276263   6.648   3.636  13.656 -0.0635 -0.9772  0.8459
18283TIP3    H176264   6.703   3.561  13.635  1.3002  0.3610 -0.6790
18283TIP3    H276265   6.643   3.686  13.574 -1.5343  0.2227  1.6107
18284TIP3   OH276266   6.051   6.606  13.334 -0.1665  0.2021 -0.8331
18284TIP3    H176267   6.130   6.626  13.383 -1.5171  0.7027  1.2971
18284TIP3    H276268   6.022   6.690  13.300 -0.2892  0.1850 -0.7731
18285TIP3   OH276269   3.943   6.765  11.670 -0.2289 -0.4444 -0.3721
18285TIP3    H176270   3.894   6.844  11.644 -0.9145 -0.8888 -0.4442
18285TIP3    H276271   4.019   6.765  11.612 -0.2417  0.1424 -0.4025
18286TIP3   OH276272   1.626   6.260   1.591  0.5394  0.6468  0.3908
18286TIP3    H176273   1.583   6.175   1.601  0.5745  0.6697  0.7441
18286TIP3    H276274   1.634   6.272   1.496 -1.5775  1.3062  0.2469
18287TIP3   OH276275   4.681   5.194   4.961 -0.2668 -0.4103 -0.6520
18287TIP3    H176276   4.593   5.207   4.998 -0.4092 -3.5013  0.3536
18287TIP3    H276277   4.740   5.211   5.034 -0.0624  0.4362 -0.9982
18288TIP3   OH276278   3.120   0.711  13.607 -0.2540 -0.3106 -0.1168
18288TIP3    H176279   3.185   0.718  13.537 -2.5316  1.6103 -2.2087
18288TIP3    H276280   3.134   0.790  13.660  0.5804 -1.0856  0.8607
18289TIP3   OH276281   0.448   6.284  13.887  0.4172 -0.3619  0.1889
18289TIP3    H176282   0.401   6.205  13.860 -0.2951  0.3909 -0.8479
18289TIP3    H276283   0.387   6.329  13.945 -1.2037  1.7275 -2.8732
18290TIP3   OH276284   2.465   3.169   4.238  0.1826 -0.2321  0.3507
18290TIP3    H176285   2.499   3.081   4.226 -3.0935 -1.5523 -0.0809
18290TIP3    H276286   2.507   3.200   4.318 -0.1189 -3.0194  1.6926
18291TIP3   OH276287   3.427   5.961  16.286  0.0117 -0.3031  0.6205
18291TIP3    H176288   3.398   6.051  16.300  0.3531 -0.0587 -0.1873
18291TIP3    H276289   3.518   5.969  16.257 -0.2194 -0.8445 -0.2970
18292TIP3   OH276290   0.503   0.774  14.038  1.0145 -0.5273 -0.7272
18292TIP3    H176291   0.576   0.727  14.080  2.3745 -0.1844 -2.6003
18292TIP3    H276292   0.458   0.707  13.987  0.6230 -0.5294 -0.3858
18293TIP3   OH276293   3.826   5.674  17.045  0.4769 -0.3122  0.1275
18293TIP3    H176294   3.859   5.684  17.134  0.4589 -2.3020  0.3941
18293TIP3    H276295   3.894   5.712  16.990  1.2243 -0.4975  0.9069
18294TIP3   OH276296   2.197   2.328   0.148  0.0300  0.0546 -0.6822
18294TIP3    H176297   2.197   2.237   0.179  0.2686  0.3889  0.3273
18294TIP3    H276298   2.108   2.342   0.116 -0.9934  0.3955  2.0705
18295TIP3   OH276299   4.948   0.455  16.892 -0.0669  0.2085 -0.4169
18295TIP3    H176300   4.904   0.372  16.877 -0.1973  0.5125 -1.9342
18295TIP3    H276301   4.902   0.517  16.835  0.5523  1.1336  0.0668
18296TIP3   OH276302   1.748   2.792  14.953  0.5107  0.8410 -0.2410
18296TIP3    H176303   1.685   2.764  14.887 -0.5453 -1.7403  1.6834
18296TIP3    H276304   1.713   2.874  14.987 -0.0508  1.1000 -1.4012
18297TIP3   OH276305   3.700   3.332  12.572 -0.2570 -0.9179  0.1298
18297TIP3    H176306   3.758   3.352  12.646  0.1081 -0.4661 -0.2705
18297TIP3    H276307   3.758   3.329  12.496 -0.6255 -1.4117 -0.1381
18298TIP3   OH276308   1.336   2.369  12.149 -0.0587 -0.0863  0.0882
18298TIP3    H176309   1.287   2.287  12.152  0.0662 -0.1496  0.4171
18298TIP3    H276310   1.409   2.356  12.210  1.2038 -0.5257 -1.4303
18299TIP3   OH276311   3.196   1.366   0.193 -0.0729  0.0693  0.0221
18299TIP3    H176312   3.198   1.460   0.178  0.5056  0.0775  0.1044
18299TIP3    H276313   3.223   1.356   0.285  0.1361 -0.1907 -0.0675
18300TIP3   OH276314   5.882   5.826   2.343  0.3023  0.3231  0.3774
18300TIP3    H176315   5.803   5.773   2.347  1.4434 -1.4835  0.0109
18300TIP3    H276316   5.891   5.850   2.251  0.1505  0.5997  0.4328
18301TIP3   OH276317   3.165   3.312  16.377  0.0615  0.3411  0.0190
18301TIP3    H176318   3.190   3.404  16.366  1.3162  0.0439  0.2188
18301TIP3    H276319   3.127   3.288  16.292  1.9228  0.4128 -0.8949
18302TIP3   OH276320   5.965   4.611  15.736 -0.4983 -0.4798  0.5468
18302TIP3    H176321   6.008   4.675  15.680 -1.1653  0.8397  1.4932
18302TIP3    H276322   5.913   4.558  15.676  1.0393 -0.9933 -0.4035
18303TIP3   OH276323   2.449   6.365  13.841 -0.0833 -0.6276 -0.1920
18303TIP3    H176324   2.501   6.286  13.824  1.5042 -0.1260  1.9525
18303TIP3    H276325   2.514   6.431  13.864 -1.4340  1.1847 -1.3335
18304TIP3   OH276326   4.163   1.578  16.382  0.1330  0.1791  0.1160
18304TIP3    H176327   4.120   1.493  16.382 -1.3834  0.8861 -1.9770
18304TIP3    H276328   4.101   1.637  16.341  2.2655  1.7028 -1.1175
18305TIP3   OH276329   5.828   3.404  16.509  0.4312 -0.4195  0.7050
18305TIP3    H176330   5.773   3.482  16.519 -1.0237 -1.4684  1.2170
18305TIP3    H276331   5.785   3.353  16.441  1.3157 -0.8479  0.4483
18306TIP3   OH276332   6.801   3.067   3.573  0.4625 -0.3282  0.3141
18306TIP3    H176333   6.738   3.098   3.637  1.8921 -0.4812  1.8630
18306TIP3    H276334   6.750   3.055   3.493 -0.8449  2.5681  0.5954
18307TIP3   OH276335   0.475   2.999  15.549 -0.0842  0.2639  0.2051
18307TIP3    H176336   0.427   3.063  15.601 -1.1164 -0.4148  0.1088
18307TIP3    H276337   0.413   2.928  15.534  0.6345 -0.1789 -0.7884
18308TIP3   OH276338   4.586   2.640   0.267 -0.3284  0.0341 -0.1918
18308TIP3    H176339   4.642   2.699   0.218 -0.0424 -0.6989 -0.7668
18308TIP3    H276340   4.640   2.562   0.282 -0.8714 -0.2988  0.0654
18309TIP3   OH276341   3.046   1.176   0.693 -0.1140 -0.5089 -0.9295
18309TIP3    H176342   2.965   1.186   0.743 -0.2548 -0.7832 -1.0982
18309TIP3    H276343   3.105   1.242   0.729 -0.3380 -0.4560 -0.6550
18310TIP3   OH276344   5.773   1.507  12.844 -0.5983 -0.1020  0.8199
18310TIP3    H176345   5.750   1.428  12.892 -1.5409  0.0375  0.6183
18310TIP3    H276346   5.723   1.576  12.886  0.9756  0.5871  1.6355
18311TIP3   OH276347   3.399   0.787  15.670 -0.4880  0.1017 -0.2623
18311TIP3    H176348   3.484   0.746  15.689  0.9668  3.5679  1.4906
18311TIP3    H276349   3.352   0.783  15.753 -0.9262  0.6214 -0.4844
18312TIP3   OH276350   2.576   3.056   5.775 -0.4412  0.1036 -0.0330
18312TIP3    H176351   2.668   3.081   5.779 -0.6397  1.1422 -1.2776
18312TIP3    H276352   2.569   3.002   5.696 -1.0596  0.8369 -0.4998
18313TIP3   OH276353   4.222   3.845  11.278 -0.2571 -0.1481  0.6651
18313TIP3    H176354   4.309   3.871  11.308 -0.0310  1.9778 -1.5129
18313TIP3    H276355   4.175   3.822  11.358  2.0881 -0.7508  1.9547
18314TIP3   OH276356   6.726   5.736   1.054 -0.2389  0.2176 -0.1188
18314TIP3    H176357   6.710   5.742   1.148  0.3870 -0.0208  0.0118
18314TIP3    H276358   6.649   5.774   1.013 -2.2028 -2.8291  0.3998
18315TIP3   OH276359   6.070   5.073   1.559 -0.4278  0.0441 -0.4099
18315TIP3    H176360   6.111   5.148   1.603 -2.5247  2.5262 -2.3234
18315TIP3    H276361   6.008   5.038   1.622 -0.5745  0.9862 -0.0112
18316TIP3   OH276362   5.562   1.671   1.295 -0.5113 -0.1845 -0.1137
18316TIP3    H176363   5.569   1.764   1.275 -2.0752 -0.0938 -0.4009
18316TIP3    H276364   5.513   1.668   1.378  1.3723 -0.7171  1.0415
18317TIP3   OH276365   1.460   5.369   1.206  0.4313  0.1749  0.1605
18317TIP3    H176366   1.403   5.386   1.131 -1.4531  2.3581  1.9580
18317TIP3    H276367   1.487   5.278   1.194 -2.1254 -0.4690 -1.6701
18318TIP3   OH276368   0.981   4.561   4.475  0.0575  0.3271 -0.0395
18318TIP3    H176369   0.891   4.539   4.450  0.5536 -1.9053 -0.0811
18318TIP3    H276370   1.020   4.596   4.395 -0.1295 -0.9214 -0.7027
18319TIP3   OH276371   0.481   2.619   4.032  0.2379 -0.0088  0.8280
18319TIP3    H176372   0.536   2.541   4.043 -1.6202 -1.2528  1.5993
18319TIP3    H276373   0.395   2.585   4.008 -0.4881  1.8527  0.6276
18320TIP3   OH276374   4.694   6.454  14.885  0.3015  0.2565  0.4068
18320TIP3    H176375   4.648   6.422  14.808 -0.5971  0.4907  0.8304
18320TIP3    H276376   4.781   6.415  14.879  0.3981  0.6509 -0.9578
18321TIP3   OH276377   1.073   2.485  15.906  0.4899  0.6397  0.2255
18321TIP3    H176378   1.136   2.486  15.977  0.8258 -1.0493 -0.0048
18321TIP3    H276379   1.112   2.539  15.838  0.0642  2.4533  1.3550
18322TIP3   OH276380   1.214   5.154   4.675  0.4947  0.7627 -0.1656
18322TIP3    H176381   1.300   5.119   4.653  0.0382  0.6174 -1.8776
18322TIP3    H276382   1.169   5.082   4.719  0.3984 -0.0505 -1.5211
18323TIP3   OH276383   5.867   2.119  12.797  0.5784 -0.2777  0.8213
18323TIP3    H176384   5.783   2.165  12.786  0.9030  0.3319  0.8252
18323TIP3    H276385   5.929   2.189  12.817  1.1785 -0.6730  0.3638
18324TIP3   OH276386   2.444   4.806   3.037 -0.3124  0.1592  0.4419
18324TIP3    H176387   2.376   4.846   2.983  0.2875 -0.7563 -1.0611
18324TIP3    H276388   2.430   4.712   3.028  0.1621 -0.0264  1.4479
18325TIP3   OH276389   3.420   0.109   4.914 -0.0438  0.6188  0.4803
18325TIP3    H176390   3.431   0.063   4.831  1.6969  0.7534  0.5919
18325TIP3    H276391   3.449   0.045   4.980 -0.6454  0.7867  0.9097
18326TIP3   OH276392   1.389   6.136  12.326 -0.0425 -0.4049 -0.8380
18326TIP3    H176393   1.343   6.215  12.300  2.6300  1.8036  0.6688
18326TIP3    H276394   1.433   6.106  12.246 -1.2515 -0.5787 -1.4640
18327TIP3   OH276395   6.399   3.678   1.783 -0.7610  0.5116 -0.4778
18327TIP3    H176396   6.438   3.617   1.846 -0.6597 -0.6654 -1.6508
18327TIP3    H276397   6.389   3.760   1.833  0.2669 -0.0730  0.7616
18328TIP3   OH276398   4.675   3.621   1.260 -0.7240  0.0270 -0.4535
18328TIP3    H176399   4.651   3.540   1.214  1.6189 -0.5283 -0.8793
18328TIP3    H276400   4.654   3.691   1.198 -0.4864 -0.4721 -1.1140
18329TIP3   OH276401   5.169   5.319   3.133  0.0660 -0.4530 -0.0443
18329TIP3    H176402   5.187   5.355   3.219 -0.9644  0.0044 -0.0126
18329TIP3    H276403   5.228   5.244   3.126  1.3657  0.4908  0.3736
18330TIP3   OH276404   4.093   5.835  16.024  0.5914  0.3865 -0.2238
18330TIP3    H176405   4.174   5.788  16.047  0.9231  0.8030 -0.5178
18330TIP3    H276406   4.117   5.928  16.029  0.1946  0.5086 -0.5462
18331TIP3   OH276407   4.131   5.372  10.954  0.1986 -0.5682  0.1326
18331TIP3    H176408   4.141   5.466  10.936 -2.1864 -0.6182 -2.1713
18331TIP3    H276409   4.196   5.330  10.898  0.0806 -0.3278 -0.1919
18332TIP3   OH276410   5.865   3.321   2.168  0.0230  0.2924 -0.6258
18332TIP3    H176411   5.875   3.268   2.089  1.2492 -2.3989  1.1623
18332TIP3    H276412   5.953   3.355   2.186  0.1424 -0.5153  0.4286
18333TIP3   OH276413   4.920   6.253   0.387 -0.1329  0.4968  0.5169
18333TIP3    H176414   4.881   6.187   0.331  0.6995  0.0623  0.4391
18333TIP3    H276415   4.910   6.335   0.339 -2.4267  0.7010  1.2208
18334TIP3   OH276416   4.156   5.273   2.445  0.4570 -0.1501 -0.0471
18334TIP3    H176417   4.241   5.269   2.488  1.5109  0.1436 -2.0042
18334TIP3    H276418   4.164   5.343   2.381 -1.0871 -0.4795 -0.6575
18335TIP3   OH276419   3.048   2.004   0.362  0.5631 -0.7054 -0.0558
18335TIP3    H176420   3.120   1.968   0.310  0.3562 -0.0132 -0.8561
18335TIP3    H276421   3.083   2.014   0.450  1.4337 -0.4120 -0.4315
18336TIP3   OH276422   3.819   0.617   4.703 -0.0143 -0.9031 -0.4462
18336TIP3    H176423   3.835   0.631   4.610 -0.5852  0.3975 -0.3618
18336TIP3    H276424   3.762   0.541   4.706 -0.4928 -0.5796 -1.1975
18337TIP3   OH276425   0.825   5.473  14.186  0.5794  0.0015  0.2449
18337TIP3    H176426   0.890   5.411  14.218  0.6840 -0.3432 -0.6038
18337TIP3    H276427   0.766   5.486  14.259  0.9182 -0.6104  0.6378
18338TIP3   OH276428   3.540   0.547   0.950 -0.0976 -0.0249  0.1735
18338TIP3    H176429   3.602   0.617   0.968  0.3810 -0.2779 -0.4577
18338TIP3    H276430   3.554   0.483   1.019  1.1352 -0.6004 -0.5854
18339TIP3   OH276431   2.428   0.150   3.476  0.0386  0.2950  0.2503
18339TIP3    H176432   2.460   0.101   3.401  0.2381  0.9005 -0.0616
18339TIP3    H276433   2.387   0.228   3.439  0.9608  1.0628  0.8044
18340TIP3   OH276434   5.822   4.743   4.246 -0.0949  0.4106 -0.0579
18340TIP3    H176435   5.747   4.709   4.197  1.0185 -0.4909 -1.2043
18340TIP3    H276436   5.798   4.731   4.338 -0.8616 -0.9916 -0.4138
18341TIP3   OH276437   2.192   3.198   4.249  0.3374 -0.0333  0.4797
18341TIP3    H176438   2.195   3.201   4.345 -1.3405 -4.3537  0.9053
18341TIP3    H276439   2.284   3.200   4.222  0.8020  2.7572  1.9500
18342TIP3   OH276440   6.563   6.104   5.362  0.6234  0.5589  0.3241
18342TIP3    H176441   6.500   6.034   5.379 -0.1987  1.3203  0.5571
18342TIP3    H276442   6.565   6.112   5.267  1.1237 -0.1280  0.2745
18343TIP3   OH276443   2.550   6.750   4.881 -0.1844  0.3868 -0.1321
18343TIP3    H176444   2.466   6.719   4.913  1.1077 -1.4243  1.7593
18343TIP3    H276445   2.533   6.779   4.791 -2.5019 -1.2891 -0.3088
18344TIP3   OH276446   6.535   3.269   4.118  0.1083 -0.5501 -0.1778
18344TIP3    H176447   6.579   3.203   4.065  0.0824  0.2811 -1.2855
18344TIP3    H276448   6.564   3.353   4.081 -0.3655  0.0501  0.7657
18345TIP3   OH276449   3.092   0.433  17.110  0.1227 -0.1338  0.0969
18345TIP3    H176450   3.116   0.524  17.090 -0.6320 -0.0005 -0.2480
18345TIP3    H276451   3.103   0.387  17.027 -0.4755 -0.1424  0.0232
18346TIP3   OH276452   2.477   0.371   3.778 -0.1779  0.1707 -0.0373
18346TIP3    H176453   2.451   0.389   3.868 -0.5884  0.6505 -0.2457
18346TIP3    H276454   2.452   0.450   3.730 -0.5670 -0.3449 -0.6898
18347TIP3   OH276455   4.261   6.654   0.935  0.4300  0.8942  0.4079
18347TIP3    H176456   4.302   6.598   0.869 -1.3098 -0.4130  0.3581
18347TIP3    H276457   4.296   6.621   1.018  1.9958  2.0080  0.2319
18348TIP3   OH276458   5.107   6.095   6.354 -0.4112 -0.2677  0.0387
18348TIP3    H176459   5.196   6.123   6.376 -1.2899  1.9731  1.1229
18348TIP3    H276460   5.078   6.044   6.430  0.0084 -1.2594 -0.4449
18349TIP3   OH276461   1.024   1.435  13.989 -0.0741  0.7570 -0.0627
18349TIP3    H176462   1.029   1.450  13.895 -0.8606  2.9887  0.2042
18349TIP3    H276463   1.101   1.381  14.009  0.8098  1.3238 -1.7839
18350TIP3   OH276464   3.067   4.123   0.071  0.6111 -0.6143 -0.3727
18350TIP3    H176465   3.056   4.118  -0.024 -1.1185 -1.7815 -0.1670
18350TIP3    H276466   3.131   4.055   0.091  0.2912 -0.9956 -0.6282
18351TIP3   OH276467   3.775   5.326  15.547 -0.3579  0.1375  0.1460
18351TIP3    H176468   3.689   5.369  15.552 -0.8091 -0.8837  1.8771
18351TIP3    H276469   3.772   5.279  15.464 -1.6954 -0.2889  0.4001
18352TIP3   OH276470   5.903   6.382   1.735  0.4968 -0.0146 -0.2135
18352TIP3    H176471   5.828   6.422   1.691  1.4695 -1.9144 -4.0287
18352TIP3    H276472   5.864   6.320   1.797 -0.9521  2.1490  1.1896
18353TIP3   OH276473   0.409   5.610  14.776 -0.9897  0.2418 -0.5241
18353TIP3    H176474   0.377   5.538  14.722 -0.4568 -1.7153  1.6009
18353TIP3    H276475   0.331   5.659  14.800 -1.1700  1.6916 -3.5991
18354TIP3   OH276476   0.612   0.097   5.049 -0.4512  0.6094 -0.4701
18354TIP3    H176477   0.590   0.061   5.135 -0.1699 -1.4754 -1.2211
18354TIP3    H276478   0.625   0.190   5.065 -0.4797  0.2898  1.7297
18355TIP3   OH276479   2.989   1.375  12.264 -0.4723 -1.1316  0.4232
18355TIP3    H176480   2.995   1.288  12.224 -1.5773 -1.2620  0.4968
18355TIP3    H276481   2.917   1.418  12.218  2.1381  1.0406 -1.9379
18356TIP3   OH276482   0.996   3.930  15.324 -0.0147 -0.9304  0.0154
18356TIP3    H176483   0.942   3.950  15.400  0.5106 -1.8757  0.6641
18356TIP3    H276484   0.934   3.905  15.256 -0.4165 -1.8630  0.7052
18357TIP3   OH276485   4.986   3.824  15.602 -0.3330 -0.0001 -0.2828
18357TIP3    H176486   4.946   3.909  15.622 -1.9022 -0.0076 -2.7943
18357TIP3    H276487   4.921   3.760  15.632  0.8371 -0.3546  1.5854
18358TIP3   OH276488   5.413   3.500   5.121  0.3795 -0.2785 -0.5094
18358TIP3    H176489   5.356   3.470   5.192 -2.5693  1.6491 -1.8461
18358TIP3    H276490   5.473   3.562   5.164 -1.6865  1.2595  0.3488
18359TIP3   OH276491   3.809   5.086   2.896 -0.0137 -0.0911 -0.2835
18359TIP3    H176492   3.877   5.034   2.940 -0.9295 -0.9884  0.1124
18359TIP3    H276493   3.840   5.094   2.806  0.2127 -1.2583 -0.3304
18360TIP3   OH276494   5.270   4.519  13.292  0.1841  0.2667 -0.1442
18360TIP3    H176495   5.269   4.609  13.326  1.9015  0.2234  0.0952
18360TIP3    H276496   5.310   4.468  13.361 -2.6853 -1.1437  0.6280
18361TIP3   OH276497   5.343   1.503   4.365 -0.2668  0.2782 -0.3684
18361TIP3    H176498   5.280   1.567   4.399 -0.5018 -0.1647  0.0374
18361TIP3    H276499   5.418   1.509   4.425 -0.7707 -0.6588  0.3833
18362TIP3   OH276500   3.791   1.626  14.322 -0.4942  0.1496 -0.6265
18362TIP3    H176501   3.701   1.652  14.342 -0.3040  1.7046 -1.6442
18362TIP3    H276502   3.835   1.626  14.408 -1.0542  1.0853 -0.3235
18363TIP3   OH276503   6.479   4.419   1.430  0.2268 -0.1892  0.4989
18363TIP3    H176504   6.423   4.374   1.493  0.2822 -0.4247  0.3837
18363TIP3    H276505   6.451   4.384   1.345  1.4868 -1.3642  0.5309
18364TIP3   OH276506   2.797   4.977  16.635 -0.1796 -0.8514  0.3996
18364TIP3    H176507   2.891   4.957  16.640  0.3761  1.5339  0.8157
18364TIP3    H276508   2.761   4.941  16.716  1.1235  1.3793  2.0986
18365TIP3   OH276509   5.255   3.479   1.209  0.4160  0.5617 -0.3028
18365TIP3    H176510   5.174   3.455   1.252  0.3420  0.9786 -0.2049
18365TIP3    H276511   5.312   3.403   1.220  0.2555  0.5068  0.1689
18366TIP3   OH276512   0.330   5.900  14.589  0.5188  0.1481 -0.2554
18366TIP3    H176513   0.262   5.967  14.596  0.5622  0.1451  0.1828
18366TIP3    H276514   0.382   5.909  14.669  0.4574 -0.4865 -0.1371
18367TIP3   OH276515   5.579   5.958  10.917 -0.1078 -0.2467  0.2402
18367TIP3    H176516   5.503   5.914  10.879 -0.6088 -1.8235  2.7958
18367TIP3    H276517   5.623   5.999  10.843 -2.4174 -0.8327 -1.5911
18368TIP3   OH276518   0.475   5.160   3.527 -0.2856 -0.1437  0.0647
18368TIP3    H176519   0.446   5.132   3.440  0.6472 -1.0113  0.0226
18368TIP3    H276520   0.482   5.079   3.578 -0.9364  0.3610  1.0027
18369TIP3   OH276521   3.436   4.116  13.149  0.2069 -0.3211 -0.4665
18369TIP3    H176522   3.411   4.085  13.062  0.4202  0.8070 -0.9604
18369TIP3    H276523   3.410   4.046  13.208 -3.2014  0.2643 -1.0238
18370TIP3   OH276524   4.546   1.775   6.452  0.1880 -0.1734  0.4875
18370TIP3    H176525   4.516   1.717   6.382  0.0192  0.3158  0.1523
18370TIP3    H276526   4.529   1.726   6.532 -1.8587  0.1952  0.3388
18371TIP3   OH276527   2.914   6.789   1.300 -0.2582 -0.4699 -0.4092
18371TIP3    H176528   2.906   6.755   1.211  0.3376  0.5758 -0.8809
18371TIP3    H276529   2.837   6.755   1.346 -0.4416 -1.2221 -1.2549
18372TIP3   OH276530   3.348   0.336   5.598 -0.3510  0.2500 -0.0062
18372TIP3    H176531   3.411   0.408   5.589  1.8556 -1.3703  1.5311
18372TIP3    H276532   3.350   0.292   5.513  2.3642 -1.0418  0.6143
18373TIP3   OH276533   2.019   4.054   1.797 -0.9754 -0.4927  0.0095
18373TIP3    H176534   1.955   3.983   1.788  0.7917 -2.2097  0.2131
18373TIP3    H276535   2.007   4.086   1.886 -0.2112 -2.2383  0.7924
18374TIP3   OH276536   0.094   1.219   1.276 -0.3128 -0.3933  0.6183
18374TIP3    H176537   0.188   1.199   1.273 -0.7502 -3.1411  1.8891
18374TIP3    H276538   0.059   1.185   1.194 -0.2219  0.7109  0.1053
18375TIP3   OH276539   0.318   1.966   2.142  0.5009  0.3539  0.4708
18375TIP3    H176540   0.335   1.898   2.207 -2.0298 -0.3701  0.4909
18375TIP3    H276541   0.226   1.989   2.155  0.4651  1.5908 -1.5720
18376TIP3   OH276542   3.057   0.506  14.292 -0.2066 -0.0743  0.3171
18376TIP3    H176543   3.102   0.530  14.211 -0.7235  0.0936  0.0768
18376TIP3    H276544   2.996   0.578  14.308 -2.0103 -1.3305 -0.5800
18377TIP3   OH276545   2.125   4.122   0.250  0.2229 -0.0716 -0.3062
18377TIP3    H176546   2.202   4.173   0.223 -0.9275  0.8788 -1.9412
18377TIP3    H276547   2.081   4.100   0.169  0.2318 -3.0969  0.3918
18378TIP3   OH276548   0.509   4.316   1.588 -0.1472  0.2286  0.3349
18378TIP3    H176549   0.480   4.225   1.596 -0.1809  0.1706 -0.4073
18378TIP3    H276550   0.579   4.313   1.524 -1.5267  1.0110 -1.2897
18379TIP3   OH276551   2.599   1.475  11.064  0.2072 -0.0846 -0.1812
18379TIP3    H176552   2.688   1.496  11.038  0.1456  0.9700  0.3990
18379TIP3    H276553   2.545   1.505  10.992  0.1037  2.0608  0.7245
18380TIP3   OH276554   2.666   4.055   5.166 -0.0849 -0.2672 -0.1701
18380TIP3    H176555   2.618   3.988   5.213 -2.3621  1.7077  0.5137
18380TIP3    H276556   2.612   4.074   5.089  0.5721  0.6905 -0.4164
18381TIP3   OH276557   3.189   4.115  13.781  0.1614 -0.1094  0.0924
18381TIP3    H176558   3.152   4.165  13.708 -0.1866  0.3401  0.5666
18381TIP3    H276559   3.282   4.110  13.761 -0.0856 -0.9033 -0.9100
18382TIP3   OH276560   6.007   3.405   5.384  0.0519 -0.6812 -0.2737
18382TIP3    H176561   6.099   3.425   5.403 -0.1429 -1.2890  1.4694
18382TIP3    H276562   5.983   3.468   5.316  1.3813  0.3888  0.1985
18383TIP3   OH276563   1.908   3.566   2.017 -0.3498  0.1993 -0.3503
18383TIP3    H176564   1.860   3.510   1.956  1.3830 -0.2096 -1.4325
18383TIP3    H276565   1.893   3.655   1.984 -1.3428  0.1982  0.0682
18384TIP3   OH276566   2.720   0.297  15.312 -0.3184 -0.5588 -1.0695
18384TIP3    H176567   2.627   0.318  15.307  0.1550  1.9551 -0.6704
18384TIP3    H276568   2.764   0.369  15.268  1.5245 -0.6602  0.4413
18385TIP3   OH276569   3.288   1.910  13.759 -0.0874 -0.5812  0.0533
18385TIP3    H176570   3.265   1.979  13.698  0.2469 -0.2148  0.3384
18385TIP3    H276571   3.323   1.956  13.835 -3.3212 -0.7832  1.8733
18386TIP3   OH276572   3.350   3.688  14.444 -0.7589 -0.4184 -0.0022
18386TIP3    H176573   3.275   3.733  14.405 -0.6942  0.0713  0.4359
18386TIP3    H276574   3.395   3.648  14.369 -1.4401 -0.7041 -0.2702
18387TIP3   OH276575   6.552   4.737  17.079 -0.6336 -0.8768  0.1037
18387TIP3    H176576   6.558   4.661  17.020  0.8515  1.0213 -2.4005
18387TIP3    H276577   6.460   4.762  17.076 -0.7565 -1.3682 -0.7448
18388TIP3   OH276578   1.203   6.077   2.911  0.2512 -0.4855 -0.4977
18388TIP3    H176579   1.135   6.017   2.880 -0.7976  0.2497  0.3253
18388TIP3    H276580   1.251   6.026   2.976 -0.7527 -0.3910  0.3376
18389TIP3   OH276581   0.557   1.564  15.290 -0.1893  0.3112 -0.3779
18389TIP3    H176582   0.550   1.608  15.205 -0.0385  1.7793  0.3441
18389TIP3    H276583   0.647   1.532  15.294 -0.4790 -0.6394 -1.1719
18390TIP3   OH276584   2.458   3.504   4.303  0.2743 -0.4745  0.2233
18390TIP3    H176585   2.513   3.427   4.288 -1.4344 -1.6849 -0.2179
18390TIP3    H276586   2.492   3.542   4.384  1.6605 -1.2240  0.0327
18391TIP3   OH276587   5.122   1.448   3.499 -0.2869  0.4138  0.1284
18391TIP3    H176588   5.212   1.430   3.527  0.1723  0.2944 -1.3468
18391TIP3    H276589   5.114   1.543   3.501  0.5445  0.5537 -1.6356
18392TIP3   OH276590   4.108   3.397  14.515  0.4407 -0.0270 -0.6958
18392TIP3    H176591   4.131   3.467  14.454 -1.9701  0.7916 -0.7609
18392TIP3    H276592   4.013   3.387  14.505 -0.0649  0.0579  2.8370
18393TIP3   OH276593   6.001   0.946   4.164 -0.4452  0.3694  0.1185
18393TIP3    H176594   5.919   0.908   4.197 -0.7054  0.1011 -0.8049
18393TIP3    H276595   5.979   0.977   4.076  0.4642  0.2457 -0.1631
18394TIP3   OH276596   0.350   4.690   2.453 -0.8073  0.2227 -0.0935
18394TIP3    H176597   0.343   4.693   2.358 -2.0153  0.8432 -0.0039
18394TIP3    H276598   0.420   4.627   2.470 -1.2979 -0.7120 -1.3665
18395TIP3   OH276599   2.019   3.700  12.629  0.0487  0.0749  0.0154
18395TIP3    H176600   1.932   3.671  12.602 -0.9221  1.6338  1.2594
18395TIP3    H276601   2.033   3.660  12.714  0.2401  0.4035  0.1414
18396TIP3   OH276602   0.747   2.106  12.679  0.2579  0.6825  0.2506
18396TIP3    H176603   0.672   2.069  12.632  0.0829 -1.1237  1.8068
18396TIP3    H276604   0.815   2.113  12.613  0.6622 -3.6240 -0.0868
18397TIP3   OH276605   4.920   5.012  15.187 -0.0047 -0.0275  0.0835
18397TIP3    H176606   4.955   5.094  15.151  1.4445 -0.5259  0.3125
18397TIP3    H276607   4.837   5.001  15.141  0.5298  0.7483 -1.1425
18398TIP3   OH276608   3.156   2.040  13.936 -0.3276 -0.1066 -0.0010
18398TIP3    H176609   3.108   2.115  13.901  0.6367 -0.2662 -1.7925
18398TIP3    H276610   3.101   1.965  13.917  0.0955 -0.1682 -1.0465
18399TIP3   OH276611   6.457   2.716  11.362  0.2257  0.0453  0.6329
18399TIP3    H176612   6.510   2.672  11.428  1.5173  1.0716  0.3347
18399TIP3    H276613   6.430   2.646  11.303  0.1984 -0.6829  1.4941
18400TIP3   OH276614   4.549   1.502  11.116  0.1428  0.5066  0.2735
18400TIP3    H176615   4.620   1.470  11.061  1.6548  3.0969  0.5399
18400TIP3    H276616   4.507   1.423  11.151  1.5358 -1.1270 -1.5600
18401TIP3   OH276617   5.506   3.882  12.414 -0.0826  0.1646 -0.1683
18401TIP3    H176618   5.411   3.894  12.409 -0.1000  1.2444  1.8730
18401TIP3    H276619   5.542   3.955  12.364 -0.3177  0.4588  0.0907
18402TIP3   OH276620   1.347   1.827   0.642  0.1597 -0.3390  0.4555
18402TIP3    H176621   1.398   1.791   0.569 -0.6468 -0.8303  0.1182
18402TIP3    H276622   1.260   1.787   0.633 -0.0017 -0.2918  1.5976
18403TIP3   OH276623   5.650   2.723  14.423 -0.2860 -0.3631  0.0752
18403TIP3    H176624   5.686   2.785  14.487 -2.9058  0.8455  0.5067
18403TIP3    H276625   5.634   2.643  14.473  1.4880 -0.8480 -0.0778
18404TIP3   OH276626   4.586   0.358   3.702 -0.5125  0.1229  0.3128
18404TIP3    H176627   4.657   0.366   3.766 -0.8794 -0.2296  0.7717
18404TIP3    H276628   4.550   0.446   3.695 -0.3805  0.1921  0.4969
18405TIP3   OH276629   3.484   4.361  16.296  0.3891 -0.0842 -0.4049
18405TIP3    H176630   3.511   4.359  16.387  1.0280 -1.1944 -0.6075
18405TIP3    H276631   3.409   4.301  16.291 -0.0689  0.4861 -0.4853
18406TIP3   OH276632   0.827   5.742   0.388 -0.2612 -0.2972  0.3580
18406TIP3    H176633   0.903   5.695   0.356  0.8209  1.1725  0.6383
18406TIP3    H276634   0.798   5.693   0.464 -1.7131 -2.7746 -1.6274
18407TIP3   OH276635   6.075   4.167   5.335 -0.5202 -0.6553 -0.7952
18407TIP3    H176636   6.139   4.100   5.357 -0.2868 -0.2299 -0.1633
18407TIP3    H276637   5.995   4.142   5.381 -0.3168 -0.2899 -0.2377
18408TIP3   OH276638   0.116   0.131  11.162  0.3252  1.1357  0.0711
18408TIP3    H176639   0.059   0.063  11.126  0.3072  1.7941 -1.2035
18408TIP3    H276640   0.055   0.201  11.188  0.4811  1.6836 -0.9494
18409TIP3   OH276641   5.419   6.180   5.173  0.0364  0.5578 -0.2691
18409TIP3    H176642   5.371   6.262   5.188 -0.1092  0.3741  0.3169
18409TIP3    H276643   5.374   6.117   5.229  1.8113  0.6797  1.4116
18410TIP3   OH276644   6.319   2.546   5.187 -0.0358  0.0240 -0.2489
18410TIP3    H176645   6.373   2.532   5.264 -0.0879 -0.9371 -0.3791
18410TIP3    H276646   6.234   2.575   5.221  0.6464  1.9139 -0.0605
18411TIP3   OH276647   0.653   4.670  16.798 -0.1270 -0.4022 -0.4768
18411TIP3    H176648   0.639   4.728  16.723 -1.9695 -0.1004  0.0554
18411TIP3    H276649   0.749   4.665  16.807  0.1156  2.0173 -0.9787
18412TIP3   OH276650   2.944   5.545  11.402  0.2566  0.4151 -0.0296
18412TIP3    H176651   2.862   5.593  11.391 -0.1231 -0.3536 -0.7202
18412TIP3    H276652   2.943   5.481  11.331  1.3540  0.2463  0.0966
18413TIP3   OH276653   1.643   1.859  12.082 -0.1836  0.2919  0.0895
18413TIP3    H176654   1.735   1.866  12.056 -0.4174  1.6960 -0.4320
18413TIP3    H276655   1.640   1.782  12.138  1.7408  1.5390  2.0469
18414TIP3   OH276656   0.173   1.736  11.334 -0.8702 -0.3348  0.1975
18414TIP3    H176657   0.172   1.773  11.245  1.0968  0.8117  0.5913
18414TIP3    H276658   0.087   1.757  11.370 -1.4664 -0.2600 -1.2068
18415TIP3   OH276659   1.299   5.446   5.584 -0.3732  0.3906 -0.0369
18415TIP3    H176660   1.329   5.411   5.500  1.7252  0.0358  0.8144
18415TIP3    H276661   1.283   5.538   5.567 -2.8426 -0.1999 -1.5016
18416TIP3   OH276662   2.559   1.677  16.203 -0.0408  0.1942  0.3936
18416TIP3    H176663   2.654   1.666  16.201  0.0770  1.0634 -2.2893
18416TIP3    H276664   2.544   1.764  16.167 -1.8763 -0.3078 -0.1735
18417TIP3   OH276665   4.780   5.070  12.586 -0.6000 -0.2209 -0.3622
18417TIP3    H176666   4.710   5.031  12.637  0.6202 -0.3856  1.2608
18417TIP3    H276667   4.770   5.031  12.498 -1.5636 -1.4543  0.2635
18418TIP3   OH276668   4.045   6.532  16.845  0.2106  0.2807  0.0562
18418TIP3    H176669   3.980   6.570  16.903 -0.1208  0.6246 -0.5258
18418TIP3    H276670   4.125   6.581  16.864  0.5581 -0.7912  1.4530
18419TIP3   OH276671   5.429   4.050  12.964 -0.7856  0.1136  0.2439
18419TIP3    H176672   5.505   4.032  12.909 -1.3457  1.1099 -0.9142
18419TIP3    H276673   5.357   4.062  12.901 -2.4413 -2.9942  1.3167
18420TIP3   OH276674   3.227   1.438  16.819 -0.0222  0.2224  0.4432
18420TIP3    H176675   3.156   1.417  16.759 -0.5586 -0.0895  1.1695
18420TIP3    H276676   3.191   1.420  16.906  0.5663  1.1553  0.8972
18421TIP3   OH276677   4.850   3.802   4.569  0.8267  0.6187  0.1507
18421TIP3    H176678   4.909   3.876   4.549  0.8399  0.9340  1.3060
18421TIP3    H276679   4.905   3.724   4.555  0.6586  0.7685 -1.6074
18422TIP3   OH276680   6.513   2.504  14.004 -0.5486  0.1903 -0.0742
18422TIP3    H176681   6.505   2.585  14.054 -1.7452 -0.0747  0.2024
18422TIP3    H276682   6.581   2.453  14.049 -1.5438 -0.0130  1.2552
18423TIP3   OH276683   2.780   4.710   1.320 -0.2756  0.1776  0.5253
18423TIP3    H176684   2.839   4.634   1.321 -1.9632 -1.2049  0.6102
18423TIP3    H276685   2.737   4.708   1.405  0.1346  1.6792  0.7973
18424TIP3   OH276686   4.397   1.075   4.499  1.0831  0.2127 -0.0596
18424TIP3    H176687   4.439   1.145   4.549  3.2652 -0.8470 -0.2745
18424TIP3    H276688   4.460   1.003   4.501  0.4952 -0.5020 -2.8412
18425TIP3   OH276689   6.096   0.956  16.829 -0.1721  0.1613  0.5751
18425TIP3    H176690   6.080   1.041  16.789 -0.4913 -0.2085 -0.1125
18425TIP3    H276691   6.185   0.933  16.802 -0.1072  0.2514  0.7132
18426TIP3   OH276692   2.234   5.631  14.792  0.0621  0.3199  0.6685
18426TIP3    H176693   2.296   5.703  14.801  0.7172  0.0802 -1.3733
18426TIP3    H276694   2.245   5.601  14.702 -1.6851 -0.9788  0.8260
18427TIP3   OH276695   5.016   5.956   6.583 -0.4239 -0.1474 -0.0849
18427TIP3    H176696   4.970   6.009   6.647  0.3501 -0.6390  0.9022
18427TIP3    H276697   5.102   5.939   6.622  0.7794  1.0322 -2.0050
18428TIP3   OH276698   1.587   4.482   2.196  0.1793  0.2354 -0.2153
18428TIP3    H176699   1.642   4.529   2.258  1.1565 -0.8904 -0.2046
18428TIP3    H276700   1.540   4.417   2.249 -0.4784  0.5783 -0.3653
18429TIP3   OH276701   1.631   6.179  12.471 -0.1497 -0.5319 -0.4530
18429TIP3    H176702   1.545   6.148  12.442 -2.0329  3.7072 -0.1609
18429TIP3    H276703   1.659   6.240  12.402  1.8557 -0.5737  0.2709
18430TIP3   OH276704   0.590   4.980  14.434  0.1132 -0.3811 -0.3553
18430TIP3    H176705   0.618   5.072  14.429  3.1223 -1.1657  0.1481
18430TIP3    H276706   0.630   4.947  14.514 -0.1452 -2.3682 -0.9898
18431TIP3   OH276707   4.983   2.711  10.350 -0.4624 -0.1399 -0.5076
18431TIP3    H176708   4.999   2.682  10.261 -2.5902 -0.3893 -0.8787
18431TIP3    H276709   4.976   2.806  10.344  2.2957  0.1744 -0.0307
18432TIP3   OH276710   1.578   4.183  13.059 -0.1448 -0.2229 -0.4887
18432TIP3    H176711   1.618   4.149  13.139  1.7449 -0.8857 -1.6322
18432TIP3    H276712   1.524   4.111  13.027  0.5054 -0.6282 -0.7025
18433TIP3   OH276713   2.432   6.672  16.671 -0.2589  0.2306  0.5470
18433TIP3    H176714   2.369   6.608  16.638 -0.2230  0.4668  0.0049
18433TIP3    H276715   2.517   6.630  16.661 -0.1100  0.7975 -0.9680
18434TIP3   OH276716   5.386   5.218   2.389  0.6480 -0.0470 -0.0651
18434TIP3    H176717   5.342   5.204   2.472 -0.8025  0.9366 -0.6192
18434TIP3    H276718   5.477   5.197   2.406  0.5351  0.8916  1.9799
18435TIP3   OH276719   5.991   5.199   5.939  0.2311 -1.0641 -0.5065
18435TIP3    H176720   6.002   5.237   6.026 -1.9498  1.0195 -1.0172
18435TIP3    H276721   6.075   5.212   5.896  0.0719  2.1528 -0.1577
18436TIP3   OH276722   3.640   1.919  11.550  0.1134 -0.3714 -0.5287
18436TIP3    H176723   3.567   1.863  11.522 -0.8452  1.3045 -1.5550
18436TIP3    H276724   3.616   2.007  11.520  1.1028  0.7981  1.7922
18437TIP3   OH276725   3.326   5.725   0.823  0.1276 -0.1747 -0.2889
18437TIP3    H176726   3.304   5.635   0.847 -1.5496  0.2688 -0.0240
18437TIP3    H276727   3.405   5.745   0.874  0.0321 -1.2063  0.2880
18438TIP3   OH276728   1.730   5.706  15.824 -0.1085  0.2069 -0.7187
18438TIP3    H176729   1.638   5.708  15.797 -0.8269 -1.0630  1.3749
18438TIP3    H276730   1.738   5.780  15.885 -0.4227 -1.0057  0.8723
18439TIP3   OH276731   6.401   0.665  15.976  0.2268  0.1084 -0.4872
18439TIP3    H176732   6.396   0.750  16.020  0.0177  1.0572 -2.2481
18439TIP3    H276733   6.448   0.683  15.895  1.8222 -1.8505 -0.0736
18440TIP3   OH276734   6.476   4.625   5.449 -0.2378 -0.1314  0.0062
18440TIP3    H176735   6.424   4.569   5.391 -0.6705 -1.3907  1.5167
18440TIP3    H276736   6.418   4.697   5.472  0.7923  1.8882 -3.0973
18441TIP3   OH276737   0.757   4.187  14.340 -0.2773  0.2750  0.2323
18441TIP3    H176738   0.828   4.177  14.403  0.5827  1.0874 -0.5844
18441TIP3    H276739   0.697   4.249  14.381 -0.8113 -0.8086  1.1510
18442TIP3   OH276740   2.418   0.104  14.975 -0.5437 -0.4415  0.1277
18442TIP3    H176741   2.454   0.159  15.045  0.6043 -0.7540 -0.1902
18442TIP3    H276742   2.450   0.144  14.894  0.6372 -1.7373 -0.1023
18443TIP3   OH276743   0.435   4.592  11.730  0.6680 -0.0292 -0.3358
18443TIP3    H176744   0.487   4.522  11.691  0.9837  0.8965 -1.6263
18443TIP3    H276745   0.347   4.555  11.737  0.6377 -0.2751 -1.8005
18444TIP3   OH276746   5.967   3.073  15.219 -0.4064  0.2004 -0.1237
18444TIP3    H176747   5.956   3.159  15.259  0.1213 -0.8508  2.5140
18444TIP3    H276748   5.888   3.024  15.245 -0.5977 -0.2216 -1.4021
18445TIP3   OH276749   2.365   0.433  14.274  0.2105 -0.2706  0.0705
18445TIP3    H176750   2.300   0.462  14.210 -0.7066  0.8514  1.4303
18445TIP3    H276751   2.345   0.340  14.288 -2.0912  0.3350  1.4460
18446TIP3   OH276752   0.306   3.400   1.362 -0.4091 -0.0671 -0.3004
18446TIP3    H176753   0.323   3.366   1.449 -3.0235 -0.5982  0.0960
18446TIP3    H276754   0.230   3.458   1.373 -0.7273 -0.0444 -2.1828
18447TIP3   OH276755   1.759   4.909  16.097  0.0058 -0.6994  0.5513
18447TIP3    H176756   1.783   4.863  16.017 -0.9898 -1.4052  0.6472
18447TIP3    H276757   1.744   5.000  16.068  1.3010 -0.5623  0.2465
18448TIP3   OH276758   1.920   3.303  11.397  0.1718 -0.1845 -0.1945
18448TIP3    H176759   1.985   3.368  11.423  2.2737 -3.0310  2.3405
18448TIP3    H276760   1.854   3.306  11.467  0.0904 -0.5500 -0.2548
18449TIP3   OH276761   1.755   6.743  12.110 -0.1137  0.4530 -0.3749
18449TIP3    H176762   1.709   6.770  12.189 -0.5878 -1.3028 -0.0072
18449TIP3    H276763   1.839   6.709  12.140 -0.4027 -0.4726 -0.5769
18450TIP3   OH276764   2.285   5.027   5.063  0.4967  0.0261 -0.8982
18450TIP3    H176765   2.202   4.982   5.080  0.1632  0.7488 -0.5923
18450TIP3    H276766   2.272   5.115   5.097  1.2145  0.2999 -1.3189
18451TIP3   OH276767   3.581   5.507  10.918 -0.2946 -0.2287  0.0727
18451TIP3    H176768   3.663   5.465  10.893 -0.3492 -1.1521  1.3606
18451TIP3    H276769   3.594   5.532  11.009 -1.5383 -0.6413  0.3788
18452TIP3   OH276770   0.967   2.713  14.105  0.4028 -0.5292 -0.0556
18452TIP3    H176771   0.917   2.655  14.164  1.2078  0.0985  1.2874
18452TIP3    H276772   1.043   2.738  14.156  0.9861  0.2743 -1.2968
18453TIP3   OH276773   0.749   1.276  16.563  0.1864  0.3899 -0.0743
18453TIP3    H176774   0.738   1.183  16.580 -0.2174  0.4925  0.2373
18453TIP3    H276775   0.830   1.300  16.608  1.3265 -0.1956 -1.7054
18454TIP3   OH276776   0.186   6.466   3.647  0.2414  0.0997  0.7444
18454TIP3    H176777   0.163   6.559   3.656  0.2065  0.0773  0.8971
18454TIP3    H276778   0.154   6.442   3.560  0.1291  0.1964  0.7583
18455TIP3   OH276779   4.700   1.941   3.587 -0.0374  0.0752  0.1779
18455TIP3    H176780   4.761   1.929   3.514 -0.3952 -0.5135 -0.0313
18455TIP3    H276781   4.716   1.866   3.644  0.1333  0.4538  0.6290
18456TIP3   OH276782   0.511   0.989  12.287 -0.1719  0.3546  0.2984
18456TIP3    H176783   0.516   0.985  12.382 -0.4434  1.1839  0.3549
18456TIP3    H276784   0.429   0.945  12.265  0.6675 -1.2864  0.3189
18457TIP3   OH276785   5.812   0.807   5.729 -0.9438  0.0999 -0.6879
18457TIP3    H176786   5.720   0.827   5.715 -1.3575 -1.6076 -0.6605
18457TIP3    H276787   5.833   0.741   5.663 -0.5351 -1.5763  1.0124
18458TIP3   OH276788   3.932   3.707  14.463 -0.3118 -0.0622 -0.2349
18458TIP3    H176789   3.886   3.752  14.392 -0.4525 -0.0650 -0.1466
18458TIP3    H276790   3.960   3.624  14.424  2.2250  1.1503 -1.1900
18459TIP3   OH276791   3.785   1.072  16.556  0.1580 -0.1401  0.7006
18459TIP3    H176792   3.877   1.086  16.579  0.7687  0.6395 -1.8603
18459TIP3    H276793   3.737   1.133  16.612  1.3966  0.9221  0.6710
18460TIP3   OH276794   1.420   0.092  16.695  0.2387  0.4836  0.2314
18460TIP3    H176795   1.457   0.173  16.730 -0.4570  1.3502 -0.9616
18460TIP3    H276796   1.333   0.117  16.666  0.0928 -0.6609 -0.3467
18461TIP3   OH276797   1.509   6.078   3.725 -0.7230 -0.1879 -0.2170
18461TIP3    H176798   1.522   6.160   3.678 -2.8279 -0.3689 -1.2593
18461TIP3    H276799   1.492   6.103   3.815 -0.2672  0.4340 -0.3012
18462TIP3   OH276800   4.947   5.624   6.517  0.2525 -0.0302  0.1866
18462TIP3    H176801   4.987   5.707   6.544 -0.3140 -0.3808  2.3275
18462TIP3    H276802   4.879   5.608   6.583 -1.3035 -1.0194 -1.5460
18463TIP3   OH276803   5.348   5.480  12.285 -0.0848 -0.0327 -1.0448
18463TIP3    H176804   5.331   5.560  12.335 -0.6087 -0.6341 -0.2501
18463TIP3    H276805   5.263   5.438  12.276  0.4123 -1.3666  0.0382
18464TIP3   OH276806   2.753   2.717   4.584  0.6893 -0.1143 -0.2137
18464TIP3    H176807   2.671   2.766   4.575  0.6750  0.4908  2.5227
18464TIP3    H276808   2.822   2.783   4.575  0.8189 -0.2986 -0.5919
18465TIP3   OH276809   2.239   3.011  11.526  0.2790  0.0149 -0.8198
18465TIP3    H176810   2.270   2.921  11.515 -2.2317 -0.8315 -1.5282
18465TIP3    H276811   2.319   3.063  11.527  2.0276 -2.3982  2.1460
18466TIP3   OH276812   4.302   6.114  16.457 -0.4547 -0.2740  0.0650
18466TIP3    H176813   4.256   6.143  16.536 -0.7081  0.8572 -0.4802
18466TIP3    H276814   4.249   6.042  16.423 -0.7084 -0.3185  0.5468
18467TIP3   OH276815   1.046   5.549   2.668 -0.2119 -0.6650 -0.4168
18467TIP3    H176816   1.068   5.590   2.584 -1.3075 -0.5109 -0.6406
18467TIP3    H276817   0.985   5.611   2.709 -1.6755 -1.9163 -0.6358
18468TIP3   OH276818   4.580   6.498  11.814 -0.4558  0.7457 -0.0255
18468TIP3    H176819   4.589   6.578  11.761 -3.0344 -0.3226 -2.2772
18468TIP3    H276820   4.524   6.524  11.887  0.1998  1.3719  0.2762
18469TIP3   OH276821   1.532   0.109  17.156 -0.1283 -0.2873  0.2406
18469TIP3    H176822   1.470   0.109  17.083  0.6364  2.0830 -0.5128
18469TIP3    H276823   1.561   0.018  17.163 -2.0717 -1.0459 -0.7576
18470TIP3   OH276824   6.166   4.463   1.272  0.4394  0.2631 -0.1030
18470TIP3    H176825   6.248   4.418   1.293  0.1395 -1.0068 -1.5186
18470TIP3    H276826   6.128   4.413   1.200 -0.2304  2.4185 -1.3589
18471TIP3   OH276827   3.126   1.335   3.643 -0.6299 -0.1064  0.8715
18471TIP3    H176828   3.075   1.397   3.694 -0.5847  0.5767  0.1015
18471TIP3    H276829   3.067   1.305   3.574  0.4089  1.9025 -1.0155
18472TIP3   OH276830   2.452   6.342   3.712 -0.5498 -0.0876  0.2844
18472TIP3    H176831   2.459   6.429   3.673 -0.1739 -0.8847 -1.5265
18472TIP3    H276832   2.528   6.294   3.677 -1.2954 -1.4298  0.4381
18473TIP3   OH276833   6.697   1.137  16.787  1.1484  0.3322  0.3351
18473TIP3    H176834   6.669   1.046  16.800  0.0378  0.4968 -0.6735
18473TIP3    H276835   6.665   1.184  16.864  1.3101 -0.0430  0.6332
18474TIP3   OH276836   0.261   0.775   5.464 -0.4612  0.3683 -0.9455
18474TIP3    H176837   0.307   0.693   5.447  1.4219  0.8091  1.4380
18474TIP3    H276838   0.321   0.843   5.430  0.8448  0.9504  2.1716
18475TIP3   OH276839   2.593   0.811   6.716 -0.3796 -0.0864 -0.2093
18475TIP3    H176840   2.537   0.739   6.687  0.4446 -1.0788  0.5882
18475TIP3    H276841   2.584   0.877   6.648 -1.4458 -0.7815 -0.7789
18476TIP3   OH276842   3.487   6.679   6.610  0.3527  0.4738 -0.0541
18476TIP3    H176843   3.572   6.636   6.601 -0.2791 -0.6447 -0.8882
18476TIP3    H276844   3.507   6.773   6.606  1.6820  0.2639  1.1113
18477TIP3   OH276845   2.180   1.786   6.668  0.5651 -1.0494  0.0629
18477TIP3    H176846   2.097   1.752   6.635 -0.2964  1.8383 -0.9811
18477TIP3    H276847   2.190   1.744   6.754 -1.7963 -1.6970  0.0838
18478TIP3   OH276848   3.912   1.334  13.561  0.1918 -0.1635  0.2506
18478TIP3    H176849   3.908   1.270  13.490  0.3775 -0.5206  0.5587
18478TIP3    H276850   3.947   1.285  13.635 -1.4272 -0.1970  1.0316
18479TIP3   OH276851   5.992   4.795  12.325 -0.0085  0.5830  0.0295
18479TIP3    H176852   6.066   4.855  12.312  0.6973  0.3881  2.5392
18479TIP3    H276853   5.953   4.786  12.239  3.4161 -0.0073 -1.6150
18480TIP3   OH276854   5.018   6.428  11.281 -0.1799  0.1937 -0.3796
18480TIP3    H176855   5.092   6.488  11.266  1.4267 -1.8408 -1.1700
18480TIP3    H276856   4.975   6.422  11.196  0.1024 -0.2989 -0.4908
18481TIP3   OH276857   2.118   2.576  10.876 -0.0556 -0.3998 -0.0540
18481TIP3    H176858   2.180   2.646  10.895  0.2324 -1.1566  2.0081
18481TIP3    H276859   2.085   2.597  10.788  1.7076  1.0311 -0.4386
18482TIP3   OH276860   1.031   5.328  16.807 -0.0434 -0.0203 -0.9287
18482TIP3    H176861   0.991   5.389  16.746  1.1003  1.0224 -0.6713
18482TIP3    H276862   1.120   5.361  16.821  0.0774 -0.8133  0.4896
18483TIP3   OH276863   2.557   5.490   5.846  0.1285 -0.3866 -0.8363
18483TIP3    H176864   2.486   5.550   5.869  2.5221  1.6726  1.9810
18483TIP3    H276865   2.563   5.432   5.922  0.3461 -1.7133 -1.8490
18484TIP3   OH276866   5.816   4.719   2.506  0.3973 -0.0774  0.4245
18484TIP3    H176867   5.767   4.670   2.572 -1.8436  1.0768 -0.2620
18484TIP3    H276868   5.757   4.790   2.481  2.0072  0.7280 -1.3404
18485TIP3   OH276869   4.624   0.407  17.048 -0.2898  0.2242  0.5161
18485TIP3    H176870   4.609   0.442  16.960 -2.3066 -0.6717  0.4491
18485TIP3    H276871   4.690   0.339  17.036  0.1350  0.7320 -0.1299
18486TIP3   OH276872   4.934   0.634   0.603  0.4115  0.0671 -0.0116
18486TIP3    H176873   4.904   0.550   0.638 -0.3091  0.3318  0.0114
18486TIP3    H276874   4.941   0.690   0.680  0.8965  0.0413 -0.0275
18487TIP3   OH276875   5.811   3.601  16.152  0.2915  0.0438 -0.7065
18487TIP3    H176876   5.718   3.625  16.152  0.0129 -0.9470 -0.6394
18487TIP3    H276877   5.821   3.547  16.231  1.2336  1.2298  0.0112
18488TIP3   OH276878   3.392   0.681  13.205 -0.1515  0.0419  0.3982
18488TIP3    H176879   3.450   0.606  13.213  2.7018  2.0161 -0.2647
18488TIP3    H276880   3.402   0.728  13.288 -0.8087  0.4242  0.2686
18489TIP3   OH276881   0.009   0.715  16.705  0.3382  0.3105  0.0375
18489TIP3    H176882  -0.055   0.659  16.660  0.5561  0.3894 -0.3753
18489TIP3    H276883   0.092   0.698  16.660  0.7583 -0.3127  1.0215
18490TIP3   OH276884   1.030   0.206   2.856  0.5295 -0.2675  0.5632
18490TIP3    H176885   1.060   0.209   2.766 -1.0206 -0.1370  0.0170
18490TIP3    H276886   1.102   0.242   2.907  0.7663  1.2852 -0.8088
18491TIP3   OH276887   3.569   3.136   5.553  0.4136 -0.2204  0.4505
18491TIP3    H176888   3.631   3.080   5.505  0.4179 -0.9917  1.3283
18491TIP3    H276889   3.594   3.225   5.528  0.8851 -0.5764 -0.4044
18492TIP3   OH276890   6.226   1.292  13.485  0.3762 -0.2477 -0.1443
18492TIP3    H176891   6.198   1.380  13.458 -1.2510 -0.9204 -0.8097
18492TIP3    H276892   6.320   1.300  13.499  0.3425  1.4894 -0.6403
18493TIP3   OH276893   1.319   3.400   0.028  0.0165 -0.6438 -0.6228
18493TIP3    H176894   1.318   3.425   0.120  0.8288 -0.8776 -0.5374
18493TIP3    H276895   1.268   3.320   0.024  0.0696 -0.6913 -0.3534
18494TIP3   OH276896   5.480   0.202  13.372 -0.1103 -0.3066  0.1676
18494TIP3    H176897   5.560   0.240  13.408 -0.2061 -0.8020  0.9224
18494TIP3    H276898   5.455   0.134  13.435 -2.5716  1.5700  1.3865
18495TIP3   OH276899   1.941   1.773   0.418  0.1818 -0.0713 -0.4294
18495TIP3    H176900   1.946   1.733   0.505 -0.6957 -1.4422 -0.9754
18495TIP3    H276901   1.850   1.801   0.410  1.0264  3.4688  0.4763
18496TIP3   OH276902   4.684   2.828   4.038 -0.0112 -0.4908 -0.9198
18496TIP3    H176903   4.663   2.750   3.985  0.4724 -0.1853 -1.5717
18496TIP3    H276904   4.711   2.894   3.974 -1.3918  0.5557 -0.4725
18497TIP3   OH276905   2.706   1.262   2.354 -0.0531  0.1920 -0.1355
18497TIP3    H176906   2.744   1.243   2.440 -1.7603 -0.7901  0.4542
18497TIP3    H276907   2.779   1.251   2.292  0.5478 -2.0712  0.8898
18498TIP3   OH276908   3.944   4.419   0.318  1.2965 -0.0854 -0.0947
18498TIP3    H176909   3.909   4.341   0.275 -0.2467 -0.3497  1.5254
18498TIP3    H276910   3.879   4.487   0.301  1.0207 -0.0110  1.1685
18499TIP3   OH276911   0.133   2.638  13.377  0.0132  0.4237 -0.3835
18499TIP3    H176912   0.049   2.650  13.331  0.0192  0.4205 -0.3950
18499TIP3    H276913   0.152   2.545  13.367  1.3877  0.8836 -2.7864
18500TIP3   OH276914   5.907   4.549  13.278 -0.7750 -0.2426 -0.3811
18500TIP3    H176915   5.902   4.577  13.369  0.6075  0.6068 -0.5484
18500TIP3    H276916   5.986   4.590  13.243  0.0961 -2.5116 -1.2942
18501TIP3   OH276917   1.052   2.092  11.368  0.3892  0.4022 -0.1180
18501TIP3    H176918   1.140   2.062  11.391 -0.2437 -1.8039 -0.4002
18501TIP3    H276919   1.008   2.014  11.334 -1.2255  1.7798 -1.3614
18502TIP3   OH276920   3.305   5.957   2.031  0.5656 -0.2473  0.1044
18502TIP3    H176921   3.244   5.884   2.017  2.2774 -1.7877  0.2778
18502TIP3    H276922   3.284   5.989   2.118 -1.0155  0.2993 -0.4472
18503TIP3   OH276923   1.298   0.022   5.323  0.1816 -0.2181  0.1193
18503TIP3    H176924   1.333   0.102   5.282 -1.2647 -0.2270 -1.2432
18503TIP3    H276925   1.374  -0.036   5.330  0.6252 -0.0003 -2.1340
18504TIP3   OH276926   4.936   4.267   0.784  0.6448 -0.2405  0.0920
18504TIP3    H176927   4.989   4.194   0.752 -0.2632 -1.3430  1.0002
18504TIP3    H276928   4.873   4.284   0.714  0.4617 -0.7637  0.1260
18505TIP3   OH276929   4.754   1.387  14.594  0.1126  0.1922 -0.2485
18505TIP3    H176930   4.737   1.318  14.658  0.0541  0.1586 -0.3006
18505TIP3    H276931   4.712   1.465  14.632 -0.9015 -0.0817 -0.7845
18506TIP3   OH276932   4.542   0.096  13.092 -0.6860 -0.2387 -0.1969
18506TIP3    H176933   4.591   0.133  13.018 -0.0446 -1.3670 -0.3482
18506TIP3    H276934   4.579   0.009  13.104 -0.0931  0.2636  2.0890
18507TIP3   OH276935   4.970   6.240  12.754 -0.6509 -0.8897 -0.3034
18507TIP3    H176936   5.016   6.307  12.704  0.1692 -0.6888  0.6789
18507TIP3    H276937   4.987   6.159  12.707 -1.0890 -0.5238 -1.1263
18508TIP3   OH276938   4.420   2.889  16.630 -0.9818  0.2479  0.3319
18508TIP3    H176939   4.506   2.885  16.589 -1.6229 -1.9914 -0.9562
18508TIP3    H276940   4.421   2.970  16.682  1.3309  1.0313 -0.8384
18509TIP3   OH276941   6.513   5.863   0.241 -0.8137 -0.2884 -1.0873
18509TIP3    H176942   6.597   5.818   0.252 -1.2015 -1.0184 -1.0704
18509TIP3    H276943   6.451   5.794   0.219 -1.3206  0.3103 -1.5928
18510TIP3   OH276944   2.068   3.598  12.876 -0.3066  0.7198 -0.2337
18510TIP3    H176945   2.072   3.600  12.971  0.9142  1.9122 -0.2775
18510TIP3    H276946   1.994   3.541  12.856 -0.5952  0.4700  1.4178
18511TIP3   OH276947   6.150   4.952   2.427  0.3130  0.0304  0.0216
18511TIP3    H176948   6.118   4.862   2.431  1.0108 -0.2317 -0.2637
18511TIP3    H276949   6.237   4.946   2.388 -0.2602  0.9809 -1.5421
18512TIP3   OH276950   1.676   4.946   5.574 -0.0209 -0.3062  0.3170
18512TIP3    H176951   1.688   4.857   5.608  0.4130 -0.3233  0.1226
18512TIP3    H276952   1.639   4.994   5.648  1.3228 -0.2337  0.9728
18513TIP3   OH276953   5.477   4.565  13.821  0.1515 -0.3610 -0.4167
18513TIP3    H176954   5.408   4.534  13.762 -0.1770  2.8995 -1.9653
18513TIP3    H276955   5.431   4.590  13.901 -0.1719 -0.0715 -0.6897
18514TIP3   OH276956   5.445   3.711  15.480 -0.0190 -0.0441 -1.1308
18514TIP3    H176957   5.537   3.720  15.505 -0.3654  1.0388 -0.0944
18514TIP3    H276958   5.422   3.621  15.501  0.0932  0.4324  1.2931
18515TIP3   OH276959   3.803   0.432   1.757  0.9308  0.3410 -0.5816
18515TIP3    H176960   3.885   0.413   1.712  0.1837 -0.6257 -1.5935
18515TIP3    H276961   3.829   0.484   1.834  2.5652 -0.6343 -0.4241
18516TIP3   OH276962   3.722   0.877   4.719  0.4096 -0.6602  0.0487
18516TIP3    H176963   3.788   0.810   4.736  0.7993 -0.3179 -0.1077
18516TIP3    H276964   3.638   0.830   4.725  0.6789 -1.1604 -0.0725
18517TIP3   OH276965   5.682   4.810  14.696  0.0536  0.2923 -0.4423
18517TIP3    H176966   5.771   4.844  14.699  1.1772 -1.4622 -4.9932
18517TIP3    H276967   5.690   4.716  14.710 -1.0829  0.1319 -0.7051
18518TIP3   OH276968   4.610   1.077  13.873 -0.3562 -0.1622 -0.1572
18518TIP3    H176969   4.571   1.159  13.846  1.8630  1.0230  0.0038
18518TIP3    H276970   4.625   1.087  13.967 -1.6267 -1.4683  0.2205
18519TIP3   OH276971   4.810   2.475  11.293  0.1431  0.4032  0.7450
18519TIP3    H176972   4.800   2.556  11.244  0.2669  1.4871  2.4445
18519TIP3    H276973   4.790   2.406  11.230 -0.1328  1.7538 -0.6880
18520TIP3   OH276974   0.474   1.153  10.821 -0.3149 -0.4963 -0.4139
18520TIP3    H176975   0.449   1.233  10.775  1.6399  0.3845 -0.0821
18520TIP3    H276976   0.393   1.104  10.832 -1.7018  1.7813  0.0301
18521TIP3   OH276977   2.499   3.520  15.667 -0.4553  0.0581 -0.3540
18521TIP3    H176978   2.471   3.447  15.612  0.2019  0.3319 -1.0694
18521TIP3    H276979   2.486   3.598  15.613  1.7731  0.1902 -0.7874
18522TIP3   OH276980   0.209   5.924   3.861  0.1190 -0.1599  0.3608
18522TIP3    H176981   0.126   5.877   3.855  0.3678 -0.6826  0.9033
18522TIP3    H276982   0.252   5.887   3.939  1.1625 -0.3659 -0.2948
18523TIP3   OH276983   5.325   0.128  10.329  0.2282  0.2627  0.1381
18523TIP3    H176984   5.401   0.106  10.383  0.4060  1.4146  0.3940
18523TIP3    H276985   5.250   0.090  10.375  0.6630 -1.2241 -0.3209
18524TIP3   OH276986   3.053   3.779   2.306  0.6209  0.2373  0.2579
18524TIP3    H176987   3.051   3.875   2.305  1.2176  0.2777  1.4703
18524TIP3    H276988   3.145   3.756   2.297  0.4925 -0.2333  0.0897
18525TIP3   OH276989   2.612   3.983  16.882  0.0855 -0.3785 -0.2896
18525TIP3    H176990   2.614   4.013  16.973 -0.8574  0.2589 -0.4691
18525TIP3    H276991   2.527   4.011  16.849 -0.0800 -1.6744 -1.0206
18526TIP3   OH276992   5.037   2.696   4.482  0.0791 -0.2151 -0.0858
18526TIP3    H176993   5.023   2.714   4.575  0.0979 -3.2406  0.5894
18526TIP3    H276994   5.119   2.648   4.479 -0.8277 -1.7718 -1.4251
18527TIP3   OH276995   1.209   1.752  16.594 -0.3972  0.5865 -0.5370
18527TIP3    H176996   1.142   1.692  16.624 -1.3854  0.5917 -2.5654
18527TIP3    H276997   1.221   1.731  16.501  1.4877  1.4384 -0.5449
18528TIP3   OH276998   4.857   0.768   3.101  0.2110  0.1548  0.3695
18528TIP3    H176999   4.764   0.768   3.077  0.4116 -0.0300 -0.4460
18528TIP3    H277000   4.894   0.695   3.051  0.5245 -0.6965  1.7980
18529TIP3   OH277001   2.435   3.971   3.795  0.5615  0.2068  0.2507
18529TIP3    H177002   2.498   3.922   3.848  1.8171  2.7625  1.3088
18529TIP3    H277003   2.390   4.028   3.857 -1.4840 -0.2021 -0.7930
18530TIP3   OH277004   5.600   1.222   4.680  0.3175  0.7136 -0.0190
18530TIP3    H177005   5.568   1.132   4.680 -0.2365  0.8604 -1.8290
18530TIP3    H277006   5.680   1.220   4.731  1.2868 -1.2131 -1.5062
18531TIP3   OH277007   1.272   1.658   5.151  0.3710  0.1953  0.2102
18531TIP3    H177008   1.290   1.597   5.222  1.5671 -2.1081 -1.8960
18531TIP3    H277009   1.338   1.728   5.162  2.8259 -1.8510 -0.4331
18532TIP3   OH277010   3.895   0.670  13.954  0.8242  0.1523 -0.2917
18532TIP3    H177011   3.846   0.618  14.017 -0.1379  2.3291  0.8491
18532TIP3    H277012   3.938   0.605  13.898 -0.9723 -1.8468  0.4997
18533TIP3   OH277013   3.887   1.707   1.528  0.8565  0.0058  0.2416
18533TIP3    H177014   3.958   1.754   1.571 -0.4629  1.4027  0.9706
18533TIP3    H277015   3.853   1.768   1.463 -0.5990 -0.0659  0.8899
18534TIP3   OH277016   6.231   0.559  15.428 -0.2362 -0.0500 -0.2119
18534TIP3    H177017   6.160   0.592  15.374 -0.1104  1.8681  0.7091
18534TIP3    H277018   6.207   0.469  15.448 -1.6704  0.1123 -1.0974
18535TIP3   OH277019   1.296   3.672  13.420  0.5785  0.5193  0.5771
18535TIP3    H177020   1.280   3.757  13.378  1.2269  0.5213  0.3272
18535TIP3    H277021   1.349   3.624  13.357 -1.3970 -0.8268 -0.1593
18536TIP3   OH277022   5.900   0.893   4.878  0.1569 -0.1324 -0.1786
18536TIP3    H177023   5.833   0.954   4.846 -1.1436 -1.0638  0.6579
18536TIP3    H277024   5.981   0.922   4.836 -0.7529  1.0648 -1.1896
18537TIP3   OH277025   3.323   4.220   1.090 -0.3714  0.3534  0.4145
18537TIP3    H177026   3.291   4.228   1.000  1.2388  0.2998 -0.2029
18537TIP3    H277027   3.375   4.299   1.104  0.1550 -0.0770  0.9524
18538TIP3   OH277028   1.352   1.596  15.637  0.7204  0.1322  0.0639
18538TIP3    H177029   1.410   1.671  15.626  2.8528 -1.5545 -0.9650
18538TIP3    H277030   1.346   1.556  15.550 -0.1236 -1.0517  0.6298
18539TIP3   OH277031   5.764   4.066  17.013 -0.1265 -0.5733 -0.3291
18539TIP3    H177032   5.759   3.975  17.041 -1.7359 -1.0916 -2.1281
18539TIP3    H277033   5.733   4.116  17.089  3.4984 -1.1438  1.7997
18540TIP3   OH277034   2.114   6.374  13.477 -0.3765  0.1317  0.0712
18540TIP3    H177035   2.084   6.464  13.489 -2.3243  0.1037 -3.0986
18540TIP3    H277036   2.048   6.321  13.522 -0.3619  0.2769  0.2619
18541TIP3   OH277037   2.648   3.270  12.309 -0.1829  0.2408 -0.5274
18541TIP3    H177038   2.586   3.327  12.265 -0.6703 -0.3632 -0.6378
18541TIP3    H277039   2.640   3.292  12.402  1.7393  2.4067 -0.7754
18542TIP3   OH277040   5.802   1.427  15.183 -0.1476  0.3542 -0.1298
18542TIP3    H177041   5.778   1.519  15.195  0.0668  0.5006 -0.7907
18542TIP3    H277042   5.800   1.414  15.089 -3.3181 -1.1655  0.0196
18543TIP3   OH277043   3.251   4.080   4.384 -0.4467  0.5607  0.2423
18543TIP3    H177044   3.186   4.023   4.424 -0.5820  0.1059 -0.6030
18543TIP3    H277045   3.219   4.169   4.402 -1.8845  0.3539 -1.0359
18544TIP3   OH277046   6.480   3.681   6.414  0.4967 -0.5062 -0.3339
18544TIP3    H177047   6.487   3.671   6.509  1.9224 -0.4835 -0.4153
18544TIP3    H277048   6.561   3.724   6.389 -2.0878  4.9083 -0.8997
18545TIP3   OH277049   5.431   5.511  12.600  0.1534 -0.1157  0.6594
18545TIP3    H177050   5.430   5.597  12.643 -0.3150 -0.6922  1.8460
18545TIP3    H277051   5.340   5.496  12.574 -0.0305 -0.7947  1.6250
18546TIP3   OH277052   4.801   4.328   1.253 -0.2165 -0.5399  0.0990
18546TIP3    H177053   4.735   4.296   1.314  0.4919  1.8975  2.3435
18546TIP3    H277054   4.884   4.309   1.295  0.3088  0.8435 -0.2328
18547TIP3   OH277055   2.313   4.360  15.921 -0.3601  0.0039 -0.0106
18547TIP3    H177056   2.299   4.409  16.002 -0.4368 -0.3057  0.1669
18547TIP3    H277057   2.250   4.288  15.926  0.2689 -0.5511  0.0896
18548TIP3   OH277058   2.883   2.127   3.679 -0.5710  0.5207 -0.0723
18548TIP3    H177059   2.967   2.157   3.713 -0.7322  0.7016  0.1613
18548TIP3    H277060   2.878   2.164   3.590 -0.3560  0.4194 -0.1260
18549TIP3   OH277061   5.882   0.136   0.878 -0.3079  0.0402  0.5483
18549TIP3    H177062   5.901   0.042   0.877  1.8822  0.4348  0.4646
18549TIP3    H277063   5.890   0.164   0.787  0.4595  0.5470  0.7621
18550TIP3   OH277064   4.518   3.084  14.446 -0.0364  0.4454 -0.6848
18550TIP3    H177065   4.496   3.000  14.404  0.8857  0.7597 -1.8463
18550TIP3    H277066   4.470   3.149  14.395 -1.8787  0.5650  1.0683
18551TIP3   OH277067   6.298   5.448  11.221 -0.6713 -0.3428  0.2994
18551TIP3    H177068   6.255   5.531  11.203  0.0944  0.1029  0.4954
18551TIP3    H277069   6.242   5.407  11.287  0.0921  1.0078  1.8646
18552TIP3   OH277070   5.903   3.579   0.667 -0.1049  0.0135  0.5845
18552TIP3    H177071   5.990   3.610   0.689 -0.0421  0.9138 -0.7758
18552TIP3    H277072   5.846   3.617   0.734  0.3820  0.5772  0.6904
18553TIP3   OH277073   1.380   1.777   2.465  0.5108 -0.4986 -0.0853
18553TIP3    H177074   1.309   1.841   2.465  0.9666  0.0573  1.2109
18553TIP3    H277075   1.441   1.810   2.532  2.0733 -0.8550 -1.2770
18554TIP3   OH277076   6.146   1.406   2.233 -0.0395  0.3925 -0.1508
18554TIP3    H177077   6.069   1.451   2.198  0.3094  0.2913 -1.0666
18554TIP3    H277078   6.145   1.426   2.327 -1.4302  0.0195 -0.0699
18555TIP3   OH277079   5.373   5.151   0.752  0.7927 -0.1787  0.6512
18555TIP3    H177080   5.454   5.151   0.803  0.3071  1.6356  1.5044
18555TIP3    H277081   5.319   5.082   0.791  1.6530 -0.9741  0.4780
18556TIP3   OH277082   1.583   5.986  15.720 -0.3979 -0.2529  0.4464
18556TIP3    H177083   1.542   6.071  15.703  0.6748  0.0786 -0.6418
18556TIP3    H277084   1.659   6.007  15.774 -0.1078 -0.4984  0.1389
18557TIP3   OH277085   1.490   0.673  15.678 -0.0476 -0.3665 -0.0131
18557TIP3    H177086   1.520   0.725  15.603 -0.2761  1.0591  0.8497
18557TIP3    H277087   1.522   0.585  15.660  2.2176  0.4721 -0.5291
18558TIP3   OH277088   1.286   4.508  16.516 -0.2854 -0.1246 -0.9987
18558TIP3    H177089   1.362   4.560  16.544  2.1441 -3.5205 -0.6152
18558TIP3    H277090   1.286   4.515  16.421 -0.1507  0.7364 -0.9441
18559TIP3   OH277091   2.284   5.653  15.235  0.4329  0.5505 -0.0731
18559TIP3    H177092   2.200   5.698  15.221 -1.0781 -1.0783  2.8942
18559TIP3    H277093   2.344   5.723  15.262 -0.7630  1.3544  0.5929
18560TIP3   OH277094   5.549   1.781  12.542  0.4344 -0.2493  0.3541
18560TIP3    H177095   5.641   1.806  12.530  0.5094 -1.0911 -1.0981
18560TIP3    H277096   5.542   1.694  12.503 -0.7148 -0.7600  1.6187
18561TIP3   OH277097   2.356   1.786  15.950  0.2030 -0.0686  0.1637
18561TIP3    H177098   2.293   1.852  15.976  1.5516  1.3289  0.0082
18561TIP3    H277099   2.315   1.703  15.975 -2.6068  0.5671 -1.8745
18562TIP3   OH277100   0.725   6.719   3.352  0.3558 -0.1918  0.3612
18562TIP3    H177101   0.736   6.625   3.341  0.9589 -0.0495 -0.3452
18562TIP3    H277102   0.680   6.748   3.272 -1.0364 -0.0587  1.1501
18563TIP3   OH277103   3.101   0.154   3.847  0.2285  0.1033 -0.2123
18563TIP3    H177104   3.053   0.091   3.794 -1.1244  0.0958  0.9572
18563TIP3    H277105   3.187   0.114   3.860 -0.8224 -1.8877  1.0933
18564TIP3   OH277106   1.185   0.056  12.404  0.0863 -0.2369  0.4957
18564TIP3    H177107   1.159   0.082  12.492  0.1760  1.9802 -0.0581
18564TIP3    H277108   1.251   0.121  12.379 -1.9079  0.9852 -2.2030
18565TIP3   OH277109   0.362   0.391   2.514 -0.3213 -0.4503  0.4989
18565TIP3    H177110   0.364   0.458   2.582 -0.4164 -0.7469  0.7935
18565TIP3    H277111   0.273   0.397   2.477  0.0414  0.3826 -0.2777
18566TIP3   OH277112   2.991   2.530  10.470 -1.2269 -0.2835  0.3258
18566TIP3    H177113   2.905   2.518  10.511 -1.3862 -0.2479  0.0068
18566TIP3    H277114   2.991   2.622  10.442  0.4741  1.0200  3.9107
18567TIP3   OH277115   2.138   4.844   4.061 -0.1084  0.1170 -0.0009
18567TIP3    H177116   2.050   4.870   4.036  0.3552  0.4888 -1.3466
18567TIP3    H277117   2.196   4.898   4.007  0.9648  0.1893  1.1488
18568TIP3   OH277118   2.961   2.412  13.693 -0.4448 -0.0009 -0.0392
18568TIP3    H177119   2.911   2.356  13.633  1.0992 -0.1078 -1.2682
18568TIP3    H277120   3.043   2.429  13.648  1.4038 -1.2330  2.5914
18569TIP3   OH277121   4.229   3.378  12.799 -0.5260  0.3108  0.2773
18569TIP3    H177122   4.204   3.443  12.733 -1.5406  0.8312  1.1493
18569TIP3    H277123   4.223   3.295  12.753  1.6967  0.8450 -1.1314
18570TIP3   OH277124   5.447   1.471   4.812 -1.4475  0.2458  0.5629
18570TIP3    H177125   5.444   1.395   4.754 -1.0702  0.8397 -0.2621
18570TIP3    H277126   5.483   1.438   4.895  2.5007  0.1724 -0.9399
18571TIP3   OH277127   4.236   2.017   1.365  0.6932 -0.7020  0.3040
18571TIP3    H177128   4.174   2.088   1.380  1.6029 -0.3160  2.6350
18571TIP3    H277129   4.270   1.996   1.452  1.0080 -3.5084 -0.4099
18572TIP3   OH277130   3.717   1.765  15.257 -0.2736  0.4325  0.2606
18572TIP3    H177131   3.757   1.681  15.233 -0.7378 -0.4341  2.3169
18572TIP3    H277132   3.637   1.769  15.204  0.4411  0.2807 -0.8861
18573TIP3   OH277133   4.812   5.232  15.913 -0.0103  0.6199  0.3516
18573TIP3    H177134   4.899   5.232  15.952  0.7298 -3.0696 -0.9443
18573TIP3    H277135   4.764   5.299  15.962  3.7700  3.6518  0.3552
18574TIP3   OH277136   4.037   6.052  12.848 -0.2331  0.2699  0.0921
18574TIP3    H177137   4.061   6.058  12.755 -1.4553  1.4932 -0.1842
18574TIP3    H277138   4.080   6.128  12.888 -1.9638  1.3665 -0.0434
18575TIP3   OH277139   4.697   1.375  10.809 -0.4092 -0.8571  0.0843
18575TIP3    H177140   4.703   1.456  10.758  0.0071 -0.7690  0.2695
18575TIP3    H277141   4.760   1.316  10.769 -0.5109 -0.9954  0.1261
18576TIP3   OH277142   6.018   1.561   6.057  0.9226  0.7336  0.1473
18576TIP3    H177143   5.931   1.596   6.079  1.4010  1.7500  0.4589
18576TIP3    H277144   6.028   1.485   6.115 -1.0367 -1.3754 -2.0484
18577TIP3   OH277145   1.569   5.412  12.483  0.3474  0.5201  0.6458
18577TIP3    H177146   1.496   5.359  12.450  0.6622 -0.9556  2.1589
18577TIP3    H277147   1.600   5.364  12.560  3.1659  0.9017 -0.1460
18578TIP3   OH277148   5.346   0.158  17.164 -0.0066 -0.1092  0.2306
18578TIP3    H177149   5.364   0.133  17.073 -2.0275 -0.8605 -0.0081
18578TIP3    H277150   5.269   0.214  17.159  2.5247  3.8579  1.0942
18579TIP3   OH277151   5.519   5.559   2.796  0.1780 -0.1035 -0.5867
18579TIP3    H177152   5.480   5.479   2.832 -1.9295  0.8268 -0.6361
18579TIP3    H277153   5.541   5.612   2.872 -0.2422  0.0611 -0.5756
18580TIP3   OH277154   5.404   2.698   3.283  0.2576  0.3414 -0.2649
18580TIP3    H177155   5.331   2.760   3.277  0.4074  0.6070  0.5137
18580TIP3    H277156   5.476   2.748   3.321  1.3373  0.4842 -2.3599
18581TIP3   OH277157   3.788   4.483   5.616  0.0086  0.0097  0.2115
18581TIP3    H177158   3.725   4.504   5.685  0.8403  1.0980  0.6718
18581TIP3    H277159   3.824   4.398   5.641 -1.7310 -0.9655 -0.4220
18582TIP3   OH277160   0.206   6.444   0.860  0.2775 -0.3648 -0.8744
18582TIP3    H177161   0.253   6.367   0.891  0.4641 -1.2671 -3.1728
18582TIP3    H277162   0.191   6.496   0.939  1.5976 -1.9438  0.5141
18583TIP3   OH277163   3.938   3.957  15.874  0.0820 -0.7364 -0.2839
18583TIP3    H177164   4.007   3.900  15.841  0.3327 -0.3864 -0.3696
18583TIP3    H277165   3.974   3.996  15.953  0.2266 -0.0596 -0.6820
18584TIP3   OH277166   3.777   5.529  11.660 -0.6256  0.2267  0.0441
18584TIP3    H177167   3.732   5.449  11.687 -0.5383 -0.3417 -1.3809
18584TIP3    H277168   3.713   5.575  11.606 -0.0769  0.2249 -0.6211
18585TIP3   OH277169   4.557   0.428   4.384 -0.1304 -0.4081  0.3095
18585TIP3    H177170   4.641   0.454   4.346 -0.2360 -1.5631 -0.7702
18585TIP3    H277171   4.536   0.498   4.445  0.9568  0.5772 -0.4031
18586TIP3   OH277172   2.726   0.037   1.851 -0.7042 -0.0480  0.3989
18586TIP3    H177173   2.737   0.090   1.930 -0.3326  1.8092 -0.8304
18586TIP3    H277174   2.815   0.014   1.826 -0.4898  2.1304 -1.1883
18587TIP3   OH277175   1.276   2.935   1.258 -0.3139 -0.2297  0.2368
18587TIP3    H177176   1.312   2.981   1.334 -1.1638  0.0384  0.4897
18587TIP3    H277177   1.346   2.938   1.193  0.2674 -0.0792  0.8548
18588TIP3   OH277178   2.494   3.418   2.716  0.3006 -0.1751 -0.9488
18588TIP3    H177179   2.399   3.403   2.719  0.2113  0.4548 -0.4724
18588TIP3    H277180   2.519   3.432   2.808  0.2243  3.3776 -1.3338
18589TIP3   OH277181   5.115   4.590   3.015 -0.4212  0.0940  0.3504
18589TIP3    H177182   5.115   4.663   3.077 -1.8138 -0.5030  1.1022
18589TIP3    H277183   5.208   4.569   3.004 -0.1076  0.5521  1.8502
18590TIP3   OH277184   6.036   0.946   6.260 -0.1428  0.5976  0.0957
18590TIP3    H177185   6.014   1.014   6.197 -0.9855 -0.8449 -1.2292
18590TIP3    H277186   6.121   0.913   6.232  0.0701  0.8095  0.4829
18591TIP3   OH277187   2.856   6.000   1.282  0.0807 -0.3745  0.1080
18591TIP3    H177188   2.803   5.939   1.334 -1.1103  1.5061  1.2345
18591TIP3    H277189   2.894   6.059   1.347 -0.9082  1.6580 -1.0620
18592TIP3   OH277190   2.964   2.806  14.234 -0.2304  0.8269 -0.4993
18592TIP3    H177191   2.989   2.755  14.157 -0.7045  0.1848 -0.2320
18592TIP3    H277192   3.031   2.786  14.299 -0.3010  0.7104 -0.4633
18593TIP3   OH277193   5.625   1.817  14.713 -0.0148 -0.1433 -0.0547
18593TIP3    H177194   5.544   1.853  14.751 -0.8524 -0.3020 -1.6213
18593TIP3    H277195   5.595   1.753  14.649  1.3835 -3.6410  2.4377
18594TIP3   OH277196   5.466   1.651  14.158 -0.2644 -0.4545 -0.0969
18594TIP3    H177197   5.408   1.679  14.229 -0.0601  0.9717 -0.4575
18594TIP3    H277198   5.434   1.699  14.081  2.1951  1.5412 -0.0224
18595TIP3   OH277199   3.509   5.368  14.552 -0.1257 -0.0663  0.4020
18595TIP3    H177200   3.464   5.290  14.585 -1.4008  1.1722  1.7156
18595TIP3    H277201   3.527   5.420  14.630  0.8751  0.8741 -0.4330
18596TIP3   OH277202   3.171   0.210  11.469 -0.3556 -0.4033  0.5384
18596TIP3    H177203   3.134   0.122  11.483  0.3337 -0.7160  0.3989
18596TIP3    H277204   3.119   0.267  11.527 -1.6227 -0.6935 -0.2737
18597TIP3   OH277205   2.755   6.551   5.923 -0.0145  0.0590  0.3364
18597TIP3    H177206   2.675   6.500   5.938 -0.6477 -0.3355 -3.5611
18597TIP3    H277207   2.737   6.636   5.964 -1.5594 -0.6958  1.3257
18598TIP3   OH277208   5.030   1.282  12.445  0.5065 -0.1932 -0.0775
18598TIP3    H177209   4.966   1.248  12.508  1.2187  0.3084  0.9376
18598TIP3    H277210   5.081   1.346  12.494  1.6579 -0.4172 -0.9308
18599TIP3   OH277211   2.862   5.961  13.462  0.5181 -0.5535  0.7217
18599TIP3    H177212   2.863   5.958  13.366  2.3058  3.3205  0.4146
18599TIP3    H277213   2.819   5.880  13.488 -1.4505 -1.1030 -3.3735
18600TIP3   OH277214   5.609   1.217  15.914 -0.0466 -0.1245  0.0976
18600TIP3    H177215   5.560   1.155  15.861 -0.1641 -0.4624  0.5905
18600TIP3    H277216   5.694   1.174  15.928 -0.1946 -0.2638  0.5952
18601TIP3   OH277217   0.913   0.064   1.330  0.0238  0.7470 -0.3151
18601TIP3    H177218   0.924  -0.025   1.363  0.1443  1.8209  2.7773
18601TIP3    H277219   0.992   0.110   1.359  0.1379  1.8302 -2.1840
18602TIP3   OH277220   5.019   0.831  12.317 -0.0245  0.4913  0.3200
18602TIP3    H177221   5.094   0.776  12.337 -2.0763 -2.2738  1.0628
18602TIP3    H277222   4.992   0.868  12.401 -0.9976 -0.6798  0.5543
18603TIP3   OH277223   0.237   5.183   0.820  0.0864  0.7057  0.2036
18603TIP3    H177224   0.149   5.213   0.799  0.2911  0.3721 -1.2184
18603TIP3    H277225   0.279   5.170   0.735  0.7873 -1.2973  0.7909
18604TIP3   OH277226   4.549   0.236   2.619  0.1363 -0.1181 -0.0003
18604TIP3    H177227   4.511   0.254   2.705 -0.3513  1.0963 -0.4464
18604TIP3    H277228   4.552   0.141   2.613  1.2981 -0.2446  1.8352
18605TIP3   OH277229   3.671   1.337  14.064 -0.3790 -0.4308 -0.3287
18605TIP3    H177230   3.580   1.343  14.093 -0.6673  0.3432 -1.3414
18605TIP3    H277231   3.718   1.398  14.121 -0.6687 -0.1041 -0.4317
18606TIP3   OH277232   6.481   4.618   2.212 -0.4014 -0.3847 -0.1771
18606TIP3    H177233   6.468   4.601   2.305  0.0578 -1.8812 -0.3578
18606TIP3    H277234   6.562   4.668   2.207  0.7062 -2.0707  0.1266
18607TIP3   OH277235   6.181   4.234   2.649  0.4709 -0.2539  0.5460
18607TIP3    H177236   6.270   4.205   2.670  0.6032  0.0947  0.4731
18607TIP3    H277237   6.190   4.328   2.631  0.3312 -0.4951 -0.8930
18608TIP3   OH277238   1.237   5.894  11.603  0.4351 -0.1723  0.2340
18608TIP3    H177239   1.241   5.964  11.538  0.2714  0.3397  0.7678
18608TIP3    H277240   1.234   5.939  11.687 -0.7904 -0.7876  0.5470
18609TIP3   OH277241   1.791   4.669  16.545  0.3189  0.2559 -0.5684
18609TIP3    H177242   1.877   4.626  16.550 -0.3230 -1.1005 -0.9293
18609TIP3    H277243   1.807   4.747  16.491  1.1636 -0.3965 -1.2899
18610TIP3   OH277244   5.923   0.071  12.280 -0.1113 -0.5201 -0.4513
18610TIP3    H177245   5.896   0.163  12.278  0.2215 -0.4298 -1.1978
18610TIP3    H277246   5.870   0.032  12.349 -0.4631  0.1681 -0.3186
18611TIP3   OH277247   0.270   1.099   2.767  0.1287 -0.0690  0.6934
18611TIP3    H177248   0.201   1.044   2.803  0.9704 -0.3390  1.9431
18611TIP3    H277249   0.227   1.148   2.697 -0.7363 -1.9775 -0.1753
18612TIP3   OH277250   3.878   4.678  13.519 -0.0842  0.8699  0.0020
18612TIP3    H177251   3.792   4.663  13.480  0.4816 -1.4675 -0.4690
18612TIP3    H277252   3.938   4.678  13.444  0.6005  0.0195  0.5464
18613TIP3   OH277253   0.614   6.640   3.773  0.0663 -0.2267 -0.1824
18613TIP3    H177254   0.707   6.637   3.795  0.7989  0.8658 -2.8049
18613TIP3    H277255   0.606   6.714   3.713 -2.3614 -0.7951 -0.6622
18614TIP3   OH277256   5.932   4.462   4.254  0.2893  0.8676  0.4252
18614TIP3    H177257   5.879   4.394   4.212 -0.0472  0.0871  2.0710
18614TIP3    H277258   5.868   4.517   4.300  0.6874  1.4922  0.2395
18615TIP3   OH277259   6.069   0.876  13.535 -0.0605  0.1321  0.6140
18615TIP3    H177260   6.047   0.968  13.550 -3.6419 -0.3714 -0.5233
18615TIP3    H277261   6.052   0.834  13.619 -0.0015  0.2654  0.6935
18616TIP3   OH277262   4.859   5.600  12.021  0.3166  0.5595 -0.0763
18616TIP3    H177263   4.853   5.667  11.953 -0.0157  1.0596  0.4474
18616TIP3    H277264   4.780   5.547  12.010  0.7450  0.0364 -0.7102
18617TIP3   OH277265   0.177   0.450  16.277  0.1644 -0.1955  0.6112
18617TIP3    H177266   0.171   0.416  16.188 -1.5560 -0.2866  0.7235
18617TIP3    H277267   0.250   0.512  16.274  1.1273 -1.3155 -0.4566
18618TIP3   OH277268   0.181   6.315   5.572  0.2178 -0.1124  0.4126
18618TIP3    H177269   0.160   6.345   5.483  2.2066 -0.3187 -0.1851
18618TIP3    H277270   0.141   6.228   5.578 -2.2109  0.9436  0.7352
18619TIP3   OH277271   6.704   2.807  11.271  0.4476  0.1294  0.3347
18619TIP3    H177272   6.614   2.775  11.282 -0.0189  1.4728  0.6777
18619TIP3    H277273   6.756   2.755  11.332 -0.4253  0.5603  1.4964
18620TIP3   OH277274   2.168   6.088  12.863  0.5311 -0.1914  0.2064
18620TIP3    H177275   2.132   6.176  12.852  0.8999  0.0809  1.1159
18620TIP3    H277276   2.169   6.073  12.957 -0.1993 -1.4659  0.0375
18621TIP3   OH277277   5.284   6.044  16.515  0.0528  0.3030 -1.0380
18621TIP3    H177278   5.263   6.105  16.586 -0.3497  0.1867 -1.0583
18621TIP3    H277279   5.216   6.057  16.450 -0.2889 -0.4787 -0.8486
18622TIP3   OH277280   5.164   4.581   3.619 -0.1960  0.1901 -0.2067
18622TIP3    H177281   5.088   4.533   3.587  0.3275 -1.8560  1.4503
18622TIP3    H277282   5.229   4.514   3.640  0.5018  1.5389  2.4167
18623TIP3   OH277283   6.405   2.541  13.742  0.0602 -0.2519  0.0161
18623TIP3    H177284   6.446   2.463  13.707  1.6270 -0.1446  1.5013
18623TIP3    H277285   6.397   2.524  13.836 -1.0597  0.7348  0.1253
18624TIP3   OH277286   1.561   4.462  13.530 -0.0457  0.7183  0.3293
18624TIP3    H177287   1.555   4.463  13.435  1.6494 -0.9271  0.1410
18624TIP3    H277288   1.502   4.531  13.559 -1.2710  0.6643 -1.8664
18625TIP3   OH277289   4.732   3.212   3.179 -0.1670 -0.6953  0.0230
18625TIP3    H177290   4.672   3.143   3.152 -0.5975 -0.7719  1.1040
18625TIP3    H277291   4.719   3.218   3.274 -0.5629  1.2650 -0.1231
18626TIP3   OH277292   6.727   0.313  16.857 -0.1804 -0.1611 -0.4040
18626TIP3    H177293   6.636   0.345  16.861 -0.3142 -0.6429  0.5329
18626TIP3    H277294   6.735   0.254  16.931  1.0907  0.3412 -0.1202
18627TIP3   OH277295   3.270   2.185  15.463  0.1340  0.0190 -0.0442
18627TIP3    H177296   3.182   2.161  15.435  0.2538 -0.6471  0.1218
18627TIP3    H277297   3.311   2.224  15.385 -0.5035  0.9089  0.0563
18628TIP3   OH277298   0.314   4.385   4.381 -0.8400 -0.0329  0.4157
18628TIP3    H177299   0.244   4.396   4.446 -0.9931  2.1242 -0.0624
18628TIP3    H277300   0.327   4.472   4.344  0.4630 -0.8715 -1.2247
18629TIP3   OH277301   5.396   1.650   2.126 -0.3411  0.2420 -0.0492
18629TIP3    H177302   5.415   1.567   2.082 -1.5447  0.4528 -1.0346
18629TIP3    H277303   5.438   1.716   2.070 -2.5502  0.5825 -1.4158
18630TIP3   OH277304   4.063   6.103  15.248 -0.6316 -0.3203  0.3789
18630TIP3    H177305   4.151   6.140  15.242 -0.7834  0.2077  1.1926
18630TIP3    H277306   4.070   6.017  15.207 -0.4259  0.8365 -2.2218
18631TIP3   OH277307   4.338   2.793   3.465  0.0236  0.6046 -0.1782
18631TIP3    H177308   4.421   2.756   3.436  0.6913  1.9189 -0.0455
18631TIP3    H277309   4.272   2.729   3.440  1.0202 -0.2037 -0.7922
18632TIP3   OH277310   6.588   5.417  13.536  0.2346  0.7829  0.1345
18632TIP3    H177311   6.536   5.411  13.616 -0.4395 -0.7332 -0.3893
18632TIP3    H277312   6.524   5.422  13.466  0.7090 -1.9683 -0.5924
18633TIP3   OH277313   4.525   4.219   4.758  0.3744  0.0704  0.7894
18633TIP3    H177314   4.576   4.259   4.687  1.1588 -0.1749  1.2018
18633TIP3    H277315   4.473   4.292   4.794  0.6033  0.3741  0.5109
18634TIP3   OH277316   5.362   0.361  15.623 -0.3310 -0.0495 -0.3410
18634TIP3    H177317   5.317   0.373  15.540 -1.4342  0.8197  0.3583
18634TIP3    H277318   5.425   0.291  15.606 -0.0422  0.5933 -2.0872
18635TIP3   OH277319   6.311   5.928   6.019 -0.4541 -0.0592  0.1142
18635TIP3    H177320   6.383   5.871   6.045  0.5011  1.4873  1.0481
18635TIP3    H277321   6.281   5.968   6.101  0.5494  2.5908 -0.7043
18636TIP3   OH277322   0.543   1.021   1.486  0.0291  0.4889  0.2597
18636TIP3    H177323   0.536   0.973   1.569 -0.9847  0.1743  0.0039
18636TIP3    H277324   0.533   0.953   1.418 -1.3362  1.0173 -0.1058
18637TIP3   OH277325   0.294   4.084  13.057  0.1976 -0.5984 -0.0209
18637TIP3    H177326   0.238   4.013  13.089 -0.6509 -0.6678 -1.5597
18637TIP3    H277327   0.375   4.040  13.033 -1.0369 -1.5102 -2.9498
18638TIP3   OH277328   6.682   1.731  13.750  0.2205 -0.2238 -0.2243
18638TIP3    H177329   6.671   1.818  13.788  0.8679  0.0125 -0.5667
18638TIP3    H277330   6.770   1.704  13.776 -0.2505 -1.0991  0.5183
18639TIP3   OH277331   1.334   0.047  15.803 -0.3696 -0.5425 -0.1050
18639TIP3    H177332   1.390   0.001  15.866 -0.2827 -0.2048  0.0689
18639TIP3    H277333   1.276   0.101  15.858  0.1881  0.3087 -0.3215
18640TIP3   OH277334   3.001   3.149  15.113 -0.1524  0.1601 -0.1901
18640TIP3    H177335   3.094   3.142  15.137 -0.6481 -1.2734  1.4334
18640TIP3    H277336   2.974   3.059  15.095 -1.5169  0.4078  0.5114
18641TIP3   OH277337   3.792   5.856  14.084 -0.2612  0.5876  0.7169
18641TIP3    H177338   3.848   5.906  14.025 -0.8481  0.1129 -0.2798
18641TIP3    H277339   3.851   5.793  14.126 -0.0352  0.0466 -0.3734
18642TIP3   OH277340   4.268   1.086   3.501 -0.0870  0.1150 -0.1283
18642TIP3    H177341   4.209   1.075   3.427 -0.4902  1.8778 -0.1056
18642TIP3    H277342   4.256   1.177   3.529 -0.3196 -0.5957  2.4016
18643TIP3   OH277343   6.062   5.610   0.213 -0.2911  0.2047  0.1233
18643TIP3    H177344   6.009   5.609   0.133  0.5730 -2.0813 -0.5070
18643TIP3    H277345   6.065   5.518   0.241  1.9756  0.4888  1.0425
18644TIP3   OH277346   5.343   2.658  16.248  0.1218  0.3203  0.6650
18644TIP3    H177347   5.318   2.628  16.336 -0.7962  0.2396  0.3834
18644TIP3    H277348   5.262   2.655  16.198  0.3784  1.5990  0.1463
18645TIP3   OH277349   1.236   3.807  13.175 -0.0927  0.2071 -0.1318
18645TIP3    H177350   1.246   3.810  13.080  0.1638 -0.0492 -0.1148
18645TIP3    H277351   1.188   3.887  13.197 -2.1719 -0.8231 -0.7227
18646TIP3   OH277352   2.712   2.296  14.484  0.2289 -0.1686  0.0224
18646TIP3    H177353   2.663   2.233  14.430 -0.8568  0.0252  0.7480
18646TIP3    H277354   2.663   2.377  14.475  1.5986  0.5967 -0.8788
18647TIP3   OH277355   1.603   3.874  14.256  0.7412 -0.3877 -0.0081
18647TIP3    H177356   1.629   3.867  14.164  1.0364 -0.3604  0.0739
18647TIP3    H277357   1.584   3.967  14.269 -1.4911 -0.6846 -0.6321
18648TIP3   OH277358   1.305   1.727  13.208  0.4867 -0.1642 -0.2602
18648TIP3    H177359   1.266   1.651  13.165  2.0744 -0.7307 -0.7600
18648TIP3    H277360   1.341   1.779  13.137  3.2726 -1.1786  0.2939
18649TIP3   OH277361   0.476   3.464   5.038 -0.4511  0.0020  0.5371
18649TIP3    H177362   0.436   3.378   5.043 -0.3079 -0.2341 -1.5115
18649TIP3    H277363   0.414   3.517   4.987  1.0530  0.0587 -1.3365
18650TIP3   OH277364   6.406   2.404   0.845 -0.1407  0.4870 -0.0107
18650TIP3    H177365   6.326   2.367   0.808  0.3491  0.5140 -1.1224
18650TIP3    H277366   6.376   2.482   0.892 -0.9182 -0.1912  0.6504
18651TIP3   OH277367   6.449   5.329  12.074 -0.2417 -0.2679  0.2180
18651TIP3    H177368   6.503   5.255  12.047  0.6447  0.6310 -0.5691
18651TIP3    H277369   6.438   5.318  12.168  1.2143 -0.5412  0.3739
18652TIP3   OH277370   0.499   3.825   0.530  0.5247  0.2122  0.4762
18652TIP3    H177371   0.592   3.847   0.539  0.5784  0.1127  0.1631
18652TIP3    H277372   0.462   3.845   0.616  0.7833  0.5053  0.5227
18653TIP3   OH277373   0.678   1.028   5.212  0.4280  0.2451 -0.1285
18653TIP3    H177374   0.648   1.068   5.130  1.1719 -0.7203 -0.9073
18653TIP3    H277375   0.773   1.036   5.209  0.6684 -2.0367 -0.6114
18654TIP3   OH277376   3.486   4.141  11.377 -0.0077  0.1483 -0.5834
18654TIP3    H177377   3.533   4.111  11.455  0.5612  1.5596 -0.3394
18654TIP3    H277378   3.450   4.062  11.338  1.2955 -0.7957  0.0721
18655TIP3   OH277379   0.069   4.707  11.908 -0.1013 -0.1742  0.0106
18655TIP3    H177380   0.119   4.628  11.888 -0.7553 -0.2039 -1.6602
18655TIP3    H277381  -0.015   4.674  11.941 -0.3749 -0.1905 -0.6887
18656TIP3   OH277382   3.742   1.932  16.323  0.7326 -0.5654 -0.4006
18656TIP3    H177383   3.740   2.010  16.378  1.5842  0.4617 -1.7446
18656TIP3    H277384   3.707   1.862  16.378 -1.7248  1.0772  0.3017
18657TIP3   OH277385   6.069   6.739  11.629  0.5008  0.0125 -0.2399
18657TIP3    H177386   6.019   6.782  11.560  1.9985 -1.6257 -2.4791
18657TIP3    H277387   6.081   6.806  11.696 -1.1266  1.6344 -1.4720
18658TIP3   OH277388   0.218   5.004  13.032 -0.3985  0.1856  0.3585
18658TIP3    H177389   0.195   4.971  12.945  2.5625 -3.2085  0.6733
18658TIP3    H277390   0.161   4.957  13.092 -0.3107  0.2195  0.4684
18659TIP3   OH277391   0.222   0.391  16.910  0.6714  0.4922  0.0824
18659TIP3    H177392   0.248   0.461  16.850  0.0216  1.1672  0.5576
18659TIP3    H277393   0.126   0.386  16.900  0.6319  0.1694  0.5840
18660TIP3   OH277394   0.579   1.206  14.791 -0.0058 -0.3075  0.2152
18660TIP3    H177395   0.651   1.143  14.793 -0.0100 -0.3333 -0.3495
18660TIP3    H277396   0.553   1.210  14.699  3.7993  4.8041 -1.0457
18661TIP3   OH277397   5.120   0.895  11.316  0.3879  0.5960  0.2851
18661TIP3    H177398   5.158   0.809  11.298 -0.6173  0.2615 -0.3002
18661TIP3    H277399   5.118   0.900  11.412 -3.1746 -1.7769  0.5238
18662TIP3   OH277400   2.381   3.829  10.827  0.3347  0.1980 -0.1251
18662TIP3    H177401   2.328   3.813  10.905 -1.9600 -0.3373 -1.6779
18662TIP3    H277402   2.437   3.752  10.820 -0.2799 -0.3024  0.3517
18663TIP3   OH277403   3.415   4.717  13.054  0.1670 -0.0107 -0.2303
18663TIP3    H177404   3.372   4.767  13.124  0.3608  1.6876 -1.2665
18663TIP3    H277405   3.492   4.769  13.031  0.1714 -0.5975 -1.6329
18664TIP3   OH277406   4.011   5.808  11.031  0.1177 -0.3444 -0.4431
18664TIP3    H177407   3.959   5.742  10.985  1.1500 -1.7617  0.3718
18664TIP3    H277408   4.079   5.833  10.969  0.0195 -0.3948 -0.5716
18665TIP3   OH277409   5.365   6.161   3.735 -0.1474 -0.5296 -0.2280
18665TIP3    H177410   5.431   6.230   3.736  0.5897 -1.2005 -0.4763
18665TIP3    H277411   5.415   6.081   3.751 -1.0704 -0.9373  0.7191
18666TIP3   OH277412   6.572   5.194  15.976  0.5968  0.2937 -0.0651
18666TIP3    H177413   6.644   5.141  16.010 -2.3708 -3.0151  1.8211
18666TIP3    H277414   6.549   5.153  15.892 -0.0124  0.3125  0.0832
18667TIP3   OH277415   1.335   5.784   2.519 -0.4885  0.1349  0.0211
18667TIP3    H177416   1.280   5.711   2.489 -0.4248  0.6977 -1.5754
18667TIP3    H277417   1.330   5.780   2.614 -1.7791 -0.9795 -0.0573
18668TIP3   OH277418   6.292   5.920  15.229  0.4227 -0.4105 -0.4429
18668TIP3    H177419   6.277   5.828  15.252 -1.7321  0.4200  2.0903
18668TIP3    H277420   6.204   5.958  15.228  1.2889  1.6839 -1.2274
18669TIP3   OH277421   6.672   1.791   4.216 -0.1673 -0.5482 -0.3468
18669TIP3    H177422   6.752   1.838   4.193  0.8412 -1.3935  1.2864
18669TIP3    H277423   6.613   1.860   4.249 -1.0873  0.4461 -3.6884
18670TIP3   OH277424   4.510   5.484  12.990 -0.5592 -0.7775  0.0251
18670TIP3    H177425   4.501   5.506  13.083  0.9929 -0.0245  0.0283
18670TIP3    H277426   4.550   5.397  12.989 -1.9285 -1.4275  0.0345
18671TIP3   OH277427   1.002   4.707   0.895  0.7539  0.0672  0.7668
18671TIP3    H177428   0.993   4.679   0.986  1.0024 -0.3532  0.6640
18671TIP3    H277429   1.065   4.778   0.898 -1.8279  2.5491  1.4050
18672TIP3   OH277430   3.973   3.714   2.805 -0.3937 -0.2268 -0.1279
18672TIP3    H177431   3.907   3.782   2.816 -0.4910 -0.6544  2.6185
18672TIP3    H277432   4.052   3.750   2.844  0.5823 -0.3829 -1.8497
18673TIP3   OH277433   5.933   6.368   5.875  0.0332  0.1723 -0.5768
18673TIP3    H177434   5.999   6.438   5.878  2.0854 -1.6267 -1.0623
18673TIP3    H277435   5.912   6.351   5.967  0.5544  0.5099 -0.3907
18674TIP3   OH277436   3.973   0.885  15.209 -0.1724 -0.3418 -0.0870
18674TIP3    H177437   3.899   0.885  15.148  0.7198 -1.0619 -1.2290
18674TIP3    H277438   4.048   0.910  15.154  1.0784 -3.2211  0.1339
18675TIP3   OH277439   1.254   5.745  15.478  0.0738  0.7058 -0.4635
18675TIP3    H177440   1.318   5.741  15.406  1.2114 -0.7177  0.5716
18675TIP3    H277441   1.254   5.657  15.515 -0.2927  1.4622  1.4455
18676TIP3   OH277442   2.272   0.815   6.656 -0.0232  0.0044  0.1374
18676TIP3    H177443   2.292   0.901   6.619 -0.7635 -0.3771 -1.2478
18676TIP3    H277444   2.180   0.800   6.632 -0.4243 -0.4589  1.8381
18677TIP3   OH277445   1.933   0.572   4.908 -0.2685  0.2789  0.0365
18677TIP3    H177446   1.892   0.596   4.991 -0.4421  2.8355 -0.7058
18677TIP3    H277447   1.860   0.564   4.847  0.0878  2.5838 -0.7705
18678TIP3   OH277448   4.361   1.076  14.571 -0.2555  0.0210 -0.6709
18678TIP3    H177449   4.334   1.008  14.633  1.0424  0.2342  0.1609
18678TIP3    H277450   4.359   1.157  14.622 -1.2357  0.5509 -1.5022
18679TIP3   OH277451   0.603   3.352  11.315 -0.2770  0.6798  0.0394
18679TIP3    H177452   0.684   3.351  11.367 -1.2901  0.3895  1.6725
18679TIP3    H277453   0.632   3.329  11.226  1.1757 -1.5704  1.0004
18680TIP3   OH277454   4.088   6.389   0.094 -0.1831  0.0626  0.2193
18680TIP3    H177455   4.074   6.300   0.062 -1.4436 -0.6090  2.3898
18680TIP3    H277456   4.182   6.394   0.111  0.0045 -0.6121 -0.5841
18681TIP3   OH277457   1.127   6.545  17.014  0.4226  0.0030  0.2417
18681TIP3    H177458   1.125   6.634  17.049 -1.2635 -0.4584  1.4214
18681TIP3    H277459   1.152   6.557  16.922  0.7655  1.6365  0.5119
18682TIP3   OH277460   2.575   4.199   1.998  0.4475  0.2843 -0.3556
18682TIP3    H177461   2.492   4.160   1.970 -0.2973  2.2016 -0.9873
18682TIP3    H277462   2.632   4.124   2.015 -1.1546 -1.0725 -0.6742
18683TIP3   OH277463   0.327   6.429  13.492  0.0419  0.1700 -0.5689
18683TIP3    H177464   0.234   6.450  13.506  0.1732  1.7881 -1.7602
18683TIP3    H277465   0.371   6.470  13.566 -0.2100 -0.8873  0.1790
18684TIP3   OH277466   3.141   0.980  14.808  0.1464  0.0788  0.1643
18684TIP3    H177467   3.198   0.919  14.856 -2.0836 -1.2433  1.2875
18684TIP3    H277468   3.145   1.061  14.859  1.7829  0.3649 -0.3647
18685TIP3   OH277469   1.057   5.797   1.101 -0.1113 -0.2527 -0.0826
18685TIP3    H177470   1.120   5.731   1.130  1.2450 -0.0528 -2.3358
18685TIP3    H277471   1.070   5.870   1.161  1.5553 -0.3850 -0.2211
18686TIP3   OH277472   0.055   0.003   4.670  0.7012 -0.0519  0.3483
18686TIP3    H177473   0.081   0.089   4.638  0.8485  0.3882  1.5986
18686TIP3    H277474   0.008   0.021   4.752 -1.3438 -1.0023 -0.5564
18687TIP3   OH277475   1.348   6.762   6.145  0.8930 -0.4504 -0.7862
18687TIP3    H177476   1.315   6.674   6.128  0.9388 -0.3510 -1.4347
18687TIP3    H277477   1.271   6.811   6.174  1.0281 -0.8981  0.3687
18688TIP3   OH277478   1.241   1.893  14.745 -1.0417 -0.1690  0.0639
18688TIP3    H177479   1.185   1.816  14.754  0.5877 -1.6545 -1.5953
18688TIP3    H277480   1.324   1.868  14.785 -0.5197  0.7713 -0.3808
18689TIP3   OH277481   0.680   5.306  13.451 -0.0663  0.1218  0.6322
18689TIP3    H177482   0.755   5.338  13.401 -0.3103  0.3720  0.4200
18689TIP3    H277483   0.697   5.333  13.541 -0.0220  0.3939  0.5417
18690TIP3   OH277484   1.307   1.617   2.789  0.3500 -0.2214  0.5452
18690TIP3    H177485   1.374   1.678   2.819  0.5420 -0.4658  0.6153
18690TIP3    H277486   1.343   1.579   2.709 -0.9634  1.8757 -1.1749
18691TIP3   OH277487   4.338   5.266   2.656 -0.0282 -0.0979 -0.2109
18691TIP3    H177488   4.354   5.244   2.747 -0.8278 -0.5807 -0.1816
18691TIP3    H277489   4.373   5.355   2.646 -0.4274  0.1650  0.6940
18692TIP3   OH277490   3.044   0.478   4.921  0.3120 -0.5746  0.5045
18692TIP3    H177491   3.136   0.504   4.914  1.0169 -1.9843  3.3281
18692TIP3    H277492   3.005   0.543   4.979 -0.0596 -0.9199  0.6449
18693TIP3   OH277493   6.295   2.623   6.029  0.1365 -0.1935 -0.2308
18693TIP3    H177494   6.206   2.606   6.060 -0.4164 -0.0697 -1.6625
18693TIP3    H277495   6.322   2.702   6.075 -0.5749 -0.1190  0.0675
18694TIP3   OH277496   0.544   0.938   3.611 -0.2578  0.3010 -0.0226
18694TIP3    H177497   0.626   0.971   3.573 -0.2970  1.3941  0.7927
18694TIP3    H277498   0.515   0.871   3.550  0.9484  0.2950 -0.6330
18695TIP3   OH277499   3.188   3.270   5.502 -0.1803 -0.0145  0.7493
18695TIP3    H177500   3.233   3.202   5.553  0.9308  0.5009  0.5036
18695TIP3    H277501   3.257   3.305   5.445 -0.5664  1.7439  1.3175
18696TIP3   OH277502   4.614   3.919   1.718  0.1984  0.2754  0.0811
18696TIP3    H177503   4.627   3.859   1.791  3.1934  0.4835 -0.1451
18696TIP3    H277504   4.581   3.864   1.647  0.1177 -0.5133  0.7166
18697TIP3   OH277505   1.220   2.841  11.984 -0.7660  0.4042  0.1341
18697TIP3    H177506   1.143   2.834  12.039  0.7375 -0.8871  2.2339
18697TIP3    H277507   1.276   2.768  12.012  0.6708  0.5166 -2.1999
18698TIP3   OH277508   0.464   1.727   4.694  0.2394  0.1668  0.0745
18698TIP3    H177509   0.470   1.673   4.773 -1.5058  1.6204  1.2806
18698TIP3    H277510   0.530   1.795   4.706 -0.6589  0.9513  0.8154
18699TIP3   OH277511   2.099   1.686  16.098  0.3545 -0.2134  0.3764
18699TIP3    H177512   2.138   1.621  16.040  0.1846  0.7842 -0.9053
18699TIP3    H277513   2.071   1.756  16.039  0.1473  0.8229  1.6707
18700TIP3   OH277514   6.027   0.488  13.246 -0.2681 -0.2865  0.1144
18700TIP3    H177515   5.998   0.561  13.302 -1.2232 -0.7418  0.2359
18700TIP3    H277516   6.108   0.458  13.287  0.3946  0.9861 -0.1979
18701TIP3   OH277517   6.678   3.760  17.134  0.0275  0.2725 -0.2448
18701TIP3    H177518   6.761   3.750  17.087 -1.0144 -2.0911 -1.7793
18701TIP3    H277519   6.675   3.853  17.157  2.7686  0.5706 -0.7058
18702TIP3   OH277520   5.616   4.679   1.057 -0.4302 -0.2716  0.0504
18702TIP3    H177521   5.653   4.591   1.059  0.5871  0.0618 -1.8257
18702TIP3    H277522   5.531   4.669   1.015  0.2413 -0.2004 -1.3509
18703TIP3   OH277523   6.609   4.008   6.267  0.3207 -0.1819 -0.2929
18703TIP3    H177524   6.649   4.030   6.351  0.2128 -0.4565 -0.1679
18703TIP3    H277525   6.682   3.981   6.212  0.5727  1.2821 -0.7191
18704TIP3   OH277526   5.802   0.030  13.567 -0.2019  0.7229 -0.3472
18704TIP3    H177527   5.790   0.016  13.661  0.2431  0.3282 -0.3413
18704TIP3    H277528   5.739  -0.028  13.525 -0.7203  1.2437 -0.2863
18705TIP3   OH277529   5.426   0.683  13.581  0.0114 -0.0583  0.3166
18705TIP3    H177530   5.340   0.693  13.541  0.1680 -1.1741 -0.3532
18705TIP3    H277531   5.486   0.670  13.506  0.9133  1.6242  0.7102
18706TIP3   OH277532   0.027   0.565   3.498 -0.4699  0.0102  0.4488
18706TIP3    H177533   0.071   0.606   3.573 -1.2758 -0.5113  1.2270
18706TIP3    H277534  -0.024   0.636   3.459  1.5780  0.8045 -0.9070
18707TIP3   OH277535   0.441   0.169   1.195 -0.1762 -0.0651 -0.3271
18707TIP3    H177536   0.383   0.111   1.245  1.9537 -1.0950  1.0733
18707TIP3    H277537   0.396   0.254   1.196 -0.4993 -0.1524  2.9378
18708TIP3   OH277538   6.468   1.843   1.175 -0.0480 -0.0014 -0.1328
18708TIP3    H177539   6.553   1.803   1.196  0.2350  0.5540 -0.1779
18708TIP3    H277540   6.448   1.897   1.251 -0.0441  0.3751 -0.3960
18709TIP3   OH277541   0.308   5.138  10.662  0.0886  0.3997  0.0292
18709TIP3    H177542   0.347   5.118  10.747 -0.7740 -2.3929 -0.1333
18709TIP3    H277543   0.214   5.142  10.679  0.0618  2.9515 -0.3084
18710TIP3   OH277544   1.313   4.285  14.722 -0.2610  0.4202  0.1448
18710TIP3    H177545   1.226   4.325  14.715 -0.5636 -0.2016  0.2749
18710TIP3    H277546   1.360   4.313  14.644  0.0538  2.2718  0.9526
18711TIP3   OH277547   2.037   5.205   1.904  0.0910  0.2524  0.2209
18711TIP3    H177548   1.969   5.201   1.837  1.1608 -1.1304 -0.8306
18711TIP3    H277549   2.079   5.120   1.901 -1.1833 -0.7272  4.2158
18712TIP3   OH277550   2.583   0.784   2.302  0.0229 -0.0927 -0.0061
18712TIP3    H177551   2.599   0.878   2.299  0.9568 -0.2459 -0.4145
18712TIP3    H277552   2.491   0.774   2.280 -0.6151  0.8476  2.0034
18713TIP3   OH277553   4.915   1.998   1.624 -0.0377 -0.3168  0.3690
18713TIP3    H177554   4.951   2.086   1.639  0.6657 -0.2974 -1.1804
18713TIP3    H277555   4.988   1.950   1.584 -1.3209 -0.6616 -1.7096
18714TIP3   OH277556   2.886   2.468   2.289 -0.1415  0.1058  0.6211
18714TIP3    H177557   2.854   2.396   2.343  0.2213 -0.5893 -0.0747
18714TIP3    H277558   2.926   2.529   2.351 -3.0767  1.2106  1.6052
18715TIP3   OH277559   4.229   5.905   1.556  0.5334 -0.3475 -0.2549
18715TIP3    H177560   4.234   5.921   1.462  0.2750 -0.1969 -0.2439
18715TIP3    H277561   4.225   5.993   1.595  0.7841 -0.4067 -0.0946
18716TIP3   OH277562   4.228   1.895  11.241  0.3221 -0.1828 -0.3522
18716TIP3    H177563   4.260   1.830  11.179  0.4912 -0.2948 -0.1490
18716TIP3    H277564   4.144   1.924  11.205  1.4286  1.3857 -1.8284
18717TIP3   OH277565   6.166   5.718  16.099  0.3609 -0.2880  0.2230
18717TIP3    H177566   6.149   5.650  16.034 -0.2315 -0.5402  0.6402
18717TIP3    H277567   6.111   5.792  16.072  0.2652 -0.3207  0.3340
18718TIP3   OH277568   5.764   4.984   1.608  0.2715  0.1885 -0.6452
18718TIP3    H177569   5.799   5.022   1.527 -1.1164  0.4978 -1.1238
18718TIP3    H277570   5.792   4.893   1.605  1.7464  0.6068 -0.5811
18719TIP3   OH277571   2.278   2.853   3.480  0.1680 -0.2286 -0.0521
18719TIP3    H177572   2.307   2.942   3.460  0.4287 -0.1196  0.7793
18719TIP3    H277573   2.240   2.821   3.398 -0.8145  0.9950 -0.0984
18720TIP3   OH277574   2.097   3.476  15.395 -0.7260 -0.0470  0.6448
18720TIP3    H177575   2.082   3.570  15.410  0.6929  0.2750  0.2540
18720TIP3    H277576   2.108   3.439  15.482  1.5229  0.7028  0.7442
18721TIP3   OH277577   3.813   1.580  14.618  0.2012 -0.0786 -0.9858
18721TIP3    H177578   3.882   1.515  14.612  0.6877  0.3682 -0.4027
18721TIP3    H277579   3.732   1.530  14.628  0.6958 -0.6028  0.7417
18722TIP3   OH277580   3.747   2.751  14.923  0.5235 -0.1975  0.1060
18722TIP3    H177581   3.700   2.688  14.868  0.9731 -2.3190  2.0310
18722TIP3    H277582   3.832   2.762  14.881  0.0523 -0.0221 -0.8240
18723TIP3   OH277583   3.800   3.509  11.815  0.7731  0.3937 -0.1141
18723TIP3    H177584   3.850   3.572  11.867 -0.2329  0.4918  0.7659
18723TIP3    H277585   3.835   3.424  11.840 -0.4334  0.3534  1.6033
18724TIP3   OH277586   5.806   6.738   2.935 -0.2540  0.2987 -0.0840
18724TIP3    H177587   5.897   6.746   2.961 -0.6946 -0.5199  1.9210
18724TIP3    H277588   5.808   6.692   2.851  1.1427 -0.8569  0.5509
18725TIP3   OH277589   1.214   1.443  16.825 -0.3546 -0.1290  0.4402
18725TIP3    H177590   1.299   1.402  16.838  0.1486  1.3546  2.3531
18725TIP3    H277591   1.204   1.502  16.901 -3.0377 -0.1925  0.2261
18726TIP3   OH277592   2.540   0.760   4.940 -0.3794 -0.3943  0.0633
18726TIP3    H177593   2.585   0.682   4.972  0.8496  1.3914  3.1361
18726TIP3    H277594   2.454   0.757   4.982 -1.3836 -1.3251 -1.9196
18727TIP3   OH277595   1.248   0.845   5.781 -0.0645 -0.0982 -0.3422
18727TIP3    H177596   1.201   0.832   5.699  1.6977 -2.2357 -1.1115
18727TIP3    H277597   1.209   0.781   5.841 -1.2581  1.3665  0.5174
18728TIP3   OH277598   5.893   2.989   6.198 -1.0252 -0.1287  0.3019
18728TIP3    H177599   5.826   2.952   6.139  0.3557 -0.6104 -1.0378
18728TIP3    H277600   5.931   2.913   6.241 -0.4281 -0.0029  0.0176
18729TIP3   OH277601   3.702   3.295   6.035  0.1705 -0.1609  0.3347
18729TIP3    H177602   3.714   3.295   6.130 -0.8766 -0.2112  0.4866
18729TIP3    H277603   3.703   3.388   6.011  1.4144 -0.1858  0.2421
18730TIP3   OH277604   3.601   1.147  15.498  0.5836 -0.0139 -0.4835
18730TIP3    H177605   3.618   1.207  15.570  0.9835  0.0053 -0.5884
18730TIP3    H277606   3.687   1.132  15.459  0.7340 -1.7975  0.4395
18731TIP3   OH277607   5.785   1.312   5.948  0.5652 -0.1567 -0.6916
18731TIP3    H177608   5.762   1.252   5.876  1.8303  0.2911 -1.5012
18731TIP3    H277609   5.821   1.389   5.904  2.9744 -0.5510  0.4118
18732TIP3   OH277610   4.345   4.929   2.900  0.8733  0.7485  0.2289
18732TIP3    H177611   4.406   4.897   2.966 -2.0224 -1.0711  2.2279
18732TIP3    H277612   4.359   4.872   2.824  2.3880  1.1502  0.1621
18733TIP3   OH277613   0.423   4.512  12.282  0.0291 -0.1175 -0.0136
18733TIP3    H177614   0.347   4.508  12.340 -0.4571 -1.5290 -0.7055
18733TIP3    H277615   0.497   4.531  12.340 -0.4682 -1.3011  1.0442
18734TIP3   OH277616   4.305   2.327   3.183  0.2517 -0.7382  0.1059
18734TIP3    H177617   4.373   2.261   3.189  2.1635  1.1117 -0.2673
18734TIP3    H277618   4.279   2.328   3.091 -0.0835 -1.2291  0.1918
18735TIP3   OH277619   3.869   0.609   2.478 -0.4524  0.0682  0.2132
18735TIP3    H177620   3.877   0.563   2.394  1.6288 -1.0361  0.9434
18735TIP3    H277621   3.894   0.699   2.458  0.7512 -0.3428 -0.2550
18736TIP3   OH277622   5.321   3.860  14.984  0.0408 -0.1263  0.3620
18736TIP3    H177623   5.256   3.931  14.983 -0.5523 -0.6493  0.8738
18736TIP3    H277624   5.339   3.845  15.077  1.9262  0.9136  0.2257
18737TIP3   OH277625   1.606   0.306   4.844 -0.1987  0.3982 -0.6309
18737TIP3    H177626   1.643   0.256   4.916 -0.7916  0.3549 -0.3490
18737TIP3    H277627   1.630   0.257   4.766 -0.4962 -0.1590 -0.3810
18738TIP3   OH277628   4.655   5.788   5.149  0.0168  0.4801  0.4799
18738TIP3    H177629   4.739   5.783   5.194 -0.4482 -1.3619  1.2059
18738TIP3    H277630   4.603   5.850   5.201  1.0761  2.1421 -0.3346
18739TIP3   OH277631   3.080   0.761   5.363  0.5104 -0.4098  0.3456
18739TIP3    H177632   3.128   0.817   5.302  0.9039  0.1247  1.1368
18739TIP3    H277633   3.146   0.733   5.427  0.0207 -0.6437  0.7550
18740TIP3   OH277634   3.279   5.151   5.066 -0.0527  0.1350 -0.2463
18740TIP3    H177635   3.361   5.105   5.045 -1.0392 -1.5898 -0.4874
18740TIP3    H277636   3.246   5.106   5.143 -0.7336  0.9037 -0.0771
18741TIP3   OH277637   3.505   5.173  11.351 -0.4586 -0.2327  0.3072
18741TIP3    H177638   3.525   5.156  11.259  1.3065  0.4430  0.5360
18741TIP3    H277639   3.521   5.267  11.362 -0.9068 -0.2574  1.2621
18742TIP3   OH277640   4.640   6.056   2.908 -0.1531 -0.2014 -0.4990
18742TIP3    H177641   4.612   6.093   2.992 -0.5904  1.2480 -1.2432
18742TIP3    H277642   4.560   6.057   2.854  0.0786 -1.2924 -0.8730
18743TIP3   OH277643   1.967   2.342   4.125  0.1252 -0.1829 -0.3781
18743TIP3    H177644   1.948   2.433   4.104 -1.1558 -0.8890 -2.6194
18743TIP3    H277645   2.029   2.314   4.058 -0.8941 -1.4272 -0.8479
18744TIP3   OH277646   0.130   2.579   0.329  0.1584  0.6028  0.7413
18744TIP3    H177647   0.195   2.579   0.399  0.7416 -0.5456  0.2263
18744TIP3    H277648   0.047   2.564   0.374  0.6508 -1.3311  1.1298
18745TIP3   OH277649   2.756   2.252   2.663 -0.0809 -0.0792 -0.0451
18745TIP3    H177650   2.679   2.199   2.683 -1.2169  0.5238 -2.4540
18745TIP3    H277651   2.742   2.334   2.711 -0.1705 -0.5344  0.7195
18746TIP3   OH277652   2.419   4.754  11.057  0.3114 -0.6861 -0.1552
18746TIP3    H177653   2.392   4.760  10.965 -1.9478 -1.5732  0.3763
18746TIP3    H277654   2.379   4.830  11.099 -0.7876 -1.5931  0.5111
18747TIP3   OH277655   2.031   3.730  15.523  0.3285  0.4885 -0.5186
18747TIP3    H177656   2.049   3.704  15.614 -0.2831  0.8293 -0.2927
18747TIP3    H277657   2.100   3.793  15.502  0.3785  0.5330 -0.2273
18748TIP3   OH277658   0.461   2.058  17.029  0.6498 -0.0348  0.4846
18748TIP3    H177659   0.458   2.150  17.053  0.1706  0.0204  0.2309
18748TIP3    H277660   0.371   2.037  17.001  1.2398  0.0340 -1.7021
18749TIP3   OH277661   0.643   2.602  15.461 -0.2285  0.4356  0.2617
18749TIP3    H177662   0.697   2.556  15.397  0.4188 -0.3019  1.3034
18749TIP3    H277663   0.699   2.673  15.492 -1.3653  2.2692 -1.6369
18750TIP3   OH277664   1.149   3.164   3.814 -0.1327  0.0917 -0.2056
18750TIP3    H177665   1.096   3.230   3.859  0.1407  0.4841 -0.4449
18750TIP3    H277666   1.112   3.080   3.840  0.1525  0.3027  0.9303
18751TIP3   OH277667   3.243   0.132   5.724 -0.5063  0.3850 -0.3220
18751TIP3    H177668   3.293   0.197   5.675  0.6090 -0.7284 -0.7096
18751TIP3    H277669   3.306   0.094   5.786 -1.4579  0.5594  0.7948
18752TIP3   OH277670   3.991   3.213  11.371  0.2242 -0.3389 -0.6396
18752TIP3    H177671   3.994   3.259  11.287 -0.9334  1.0184  0.0152
18752TIP3    H277672   3.907   3.166  11.369  0.8534 -1.4790 -0.8098
18753TIP3   OH277673   3.737   0.196   5.000 -0.0339 -0.6243 -0.3927
18753TIP3    H177674   3.692   0.117   5.028  1.2647 -1.3874 -0.3503
18753TIP3    H277675   3.830   0.175   5.009  0.4544  1.9854  2.8260
18754TIP3   OH277676   0.232   4.770  15.297  0.1888 -0.5243  0.0315
18754TIP3    H177677   0.231   4.677  15.316  0.6978 -0.2966  1.2266
18754TIP3    H277678   0.189   4.777  15.211  0.7004 -1.9050 -0.3646
18755TIP3   OH277679   3.127   5.307   1.196  0.2998  0.3375 -0.1064
18755TIP3    H177680   3.200   5.309   1.258  0.1119  2.0043  0.1131
18755TIP3    H277681   3.070   5.238   1.228  0.2216  1.1436  1.6066
18756TIP3   OH277682   6.616   5.687   6.499  0.4235 -0.1907 -0.0240
18756TIP3    H177683   6.544   5.695   6.436 -0.5014 -1.9348  0.7331
18756TIP3    H277684   6.642   5.777   6.517 -0.5013  0.4172 -1.5219
18757TIP3   OH277685   2.452   5.655   1.002  0.0047  0.3547 -0.3057
18757TIP3    H177686   2.398   5.586   1.041 -1.6873  1.0292 -1.3305
18757TIP3    H277687   2.513   5.609   0.945 -1.0343 -0.3465 -0.8935
18758TIP3   OH277688   5.903   5.059   3.358 -0.0535 -0.3478  0.1499
18758TIP3    H177689   5.981   5.080   3.409  1.2350 -0.8157 -1.5443
18758TIP3    H277690   5.899   5.126   3.290 -1.5419  0.0665  0.5915
18759TIP3   OH277691   1.518   6.059  16.478 -0.4174 -0.5634 -0.1165
18759TIP3    H177692   1.569   6.085  16.401  0.3046 -2.7332 -0.4505
18759TIP3    H277693   1.575   6.078  16.552 -0.6171  0.3878 -0.1949
18760TIP3   OH277694   0.759   4.342   1.200  0.1502  0.1694  0.2460
18760TIP3    H177695   0.757   4.364   1.293  0.3950  0.2886  0.2244
18760TIP3    H277696   0.730   4.421   1.156  1.9621  0.8006  0.1159
18761TIP3   OH277697   4.086   3.024   0.385 -0.2351 -0.4444  0.0053
18761TIP3    H177698   4.156   2.964   0.411 -0.8085 -2.1488 -2.1139
18761TIP3    H277699   4.010   2.967   0.372 -1.2582  0.9788 -0.5166
18762TIP3   OH277700   2.671   6.453  14.477  0.1318  0.0517  0.4953
18762TIP3    H177701   2.753   6.404  14.485  0.1427 -0.3657 -1.5874
18762TIP3    H277702   2.684   6.510  14.401 -1.4953 -0.0195  0.1245
18763TIP3   OH277703   2.448   3.606   1.528 -0.6056 -0.7290  0.2560
18763TIP3    H177704   2.475   3.517   1.503  0.2986 -1.1099  2.3140
18763TIP3    H277705   2.509   3.630   1.598 -1.4671  1.1429  0.4249
18764TIP3   OH277706   6.514   4.481  14.703 -0.0616  0.2005  0.0223
18764TIP3    H177707   6.551   4.393  14.708  0.8618  0.5651 -0.2081
18764TIP3    H277708   6.590   4.538  14.694 -0.7228  0.8347 -2.1322
18765TIP3   OH277709   2.373   0.940  14.955 -0.3795 -0.4889  0.2494
18765TIP3    H177710   2.439   0.883  14.995  0.5911  0.9025  0.7321
18765TIP3    H277711   2.328   0.885  14.892 -0.0793 -2.0114  1.3156
18766TIP3   OH277712   0.427   4.731  12.006 -0.3174 -0.4671  0.3702
18766TIP3    H177713   0.373   4.774  11.941  0.5751 -0.9024 -0.6988
18766TIP3    H277714   0.422   4.638  11.984  0.8601 -0.5151  0.2198
18767TIP3   OH277715   1.116   0.658  15.410 -0.1570 -0.1378 -0.0034
18767TIP3    H177716   1.127   0.691  15.500 -1.7995 -1.8462  0.8997
18767TIP3    H277717   1.169   0.578  15.408 -0.2301 -0.1712 -0.5144
18768TIP3   OH277718   3.294   2.674  12.828 -0.2005 -0.8122  0.3527
18768TIP3    H177719   3.379   2.699  12.792 -1.5550 -1.1897 -3.6830
18768TIP3    H277720   3.260   2.755  12.866  0.3681  0.5256 -1.7544
18769TIP3   OH277721   3.953   3.836   4.229  0.6344  0.0061 -0.3228
18769TIP3    H177722   4.000   3.755   4.252  0.2177  0.1840  1.2875
18769TIP3    H277723   3.961   3.891   4.307 -0.0613  1.0778 -0.9863
18770TIP3   OH277724   2.841   0.842  12.558  0.4912  0.1305 -0.8085
18770TIP3    H177725   2.852   0.787  12.480  0.8092  0.7075 -1.1756
18770TIP3    H277726   2.754   0.819  12.591  0.1193  0.2843 -1.6535
18771TIP3   OH277727   0.356   0.738   3.457 -0.5810  0.2559 -0.1479
18771TIP3    H177728   0.385   0.650   3.482  0.0468 -0.1796 -2.2092
18771TIP3    H277729   0.261   0.735   3.466 -0.4075  0.1500  2.0518
18772TIP3   OH277730   2.484   6.603  12.125  0.7944  0.7063  0.2422
18772TIP3    H177731   2.568   6.597  12.170  0.0437 -1.4097  1.4854
18772TIP3    H277732   2.425   6.642  12.189  0.7094  1.9636 -0.5475
18773TIP3   OH277733   5.085   3.077   3.769 -0.4706  0.1533  0.2634
18773TIP3    H177734   5.044   3.105   3.687 -0.0214  1.7108  0.5325
18773TIP3    H277735   5.103   2.984   3.757 -1.5658  0.0725 -0.9086
18774TIP3   OH277736   5.239   1.497  11.304  0.5167  0.5635  0.4287
18774TIP3    H177737   5.151   1.529  11.284 -0.1493  0.1208  2.3409
18774TIP3    H277738   5.298   1.562  11.267 -0.5895  0.6594 -1.2586
18775TIP3   OH277739   2.482   4.649   1.506  0.7591  0.1439  0.7139
18775TIP3    H177740   2.510   4.650   1.598  0.3581 -0.9229  0.8685
18775TIP3    H277741   2.460   4.557   1.489 -1.4273  0.7019  0.2335
18776TIP3   OH277742   6.123   0.872  13.102  0.4149  0.1788  0.1026
18776TIP3    H177743   6.183   0.869  13.177  0.5450  1.4674  0.0767
18776TIP3    H277744   6.145   0.794  13.051  0.9143 -0.2593  0.9581
18777TIP3   OH277745   3.648   4.767  14.543  0.5465  0.6409 -0.3908
18777TIP3    H177746   3.613   4.793  14.458 -2.7363 -3.2485 -0.5332
18777TIP3    H277747   3.572   4.761  14.600  2.3218  0.6178  2.1606
18778TIP3   OH277748   2.964   3.003  16.291 -0.2379  0.1517 -0.8962
18778TIP3    H177749   2.920   3.076  16.248 -1.2789 -0.0935 -0.2663
18778TIP3    H277750   2.968   2.935  16.224  2.1265  1.2564 -2.0044
18779TIP3   OH277751   1.378   1.189   4.110  0.5100 -0.3857 -0.1279
18779TIP3    H177752   1.289   1.153   4.113 -0.0195  0.7359 -1.3371
18779TIP3    H277753   1.402   1.201   4.202 -0.4478 -1.0306  0.2231
18780TIP3   OH277754   4.136   2.551   2.445  0.4444 -0.2334 -0.0729
18780TIP3    H177755   4.216   2.557   2.393  0.7814  0.3982  0.5014
18780TIP3    H277756   4.161   2.584   2.532 -0.1554 -1.0790  0.4401
18781TIP3   OH277757   2.017   6.045  12.628  0.3241 -0.1863 -0.3941
18781TIP3    H177758   2.058   6.016  12.710 -1.2589  0.2863  0.6073
18781TIP3    H277759   2.066   6.124  12.604  1.2885 -0.7463 -0.3289
18782TIP3   OH277760   4.979   3.551   4.525 -1.0812  0.6907 -0.6164
18782TIP3    H177761   4.998   3.582   4.437 -2.6630  1.0760 -0.8612
18782TIP3    H277762   4.981   3.456   4.519 -0.7990  0.7207 -0.9772
18783TIP3   OH277763   6.174   5.795  14.113 -0.5428 -0.5930  0.0161
18783TIP3    H177764   6.168   5.807  14.018  0.6139 -0.8378 -0.1015
18783TIP3    H277765   6.267   5.780  14.129 -0.6105  0.2404  1.2909
18784TIP3   OH277766   5.729   5.076   0.028  0.3759  0.0105  0.2305
18784TIP3    H177767   5.717   5.069  -0.067  1.0264  2.0982 -0.0709
18784TIP3    H277768   5.641   5.091   0.062  0.2396  0.0957 -0.1498
18785TIP3   OH277769   5.519   4.050   0.674  0.0162 -0.0613 -0.0980
18785TIP3    H177770   5.452   4.048   0.606 -0.1867 -0.4048  0.1044
18785TIP3    H277771   5.553   3.960   0.675  0.5723  0.1463 -0.2921
18786TIP3   OH277772   0.785   4.558  16.257 -0.4186  0.0654 -0.5055
18786TIP3    H177773   0.840   4.543  16.334  0.0342 -0.2174 -0.8762
18786TIP3    H277774   0.701   4.516  16.279  0.3948 -1.9642 -0.9940
18787TIP3   OH277775   2.293   3.991  13.661 -0.3653 -0.1309 -0.0751
18787TIP3    H177776   2.366   3.975  13.602  1.2464  1.9438  1.2279
18787TIP3    H277777   2.330   3.979  13.749 -2.0385 -0.6506  0.6072
18788TIP3   OH277778   3.938   4.324  14.438  0.0622 -0.0606  1.2360
18788TIP3    H177779   3.963   4.281  14.520  2.3772 -1.4007 -0.0763
18788TIP3    H277780   4.021   4.349  14.398 -1.0985  2.5705  0.2766
18789TIP3   OH277781   5.351   6.539   5.599  0.2541  0.2571 -0.0801
18789TIP3    H177782   5.290   6.502   5.535 -0.2401  0.0532  0.4974
18789TIP3    H277783   5.295   6.570   5.670  0.9046 -1.2276  1.1258
18790TIP3   OH277784   0.707   6.010   3.357 -0.5347  0.7638  0.1063
18790TIP3    H177785   0.694   5.941   3.293 -1.7019  1.6574 -0.6559
18790TIP3    H277786   0.751   5.967   3.430 -0.8529 -0.6767 -0.5224
18791TIP3   OH277787   4.572   0.350   0.818 -0.0596 -0.5495  0.2947
18791TIP3    H177788   4.495   0.361   0.873 -1.2449 -0.5784 -1.2836
18791TIP3    H277789   4.597   0.259   0.830 -0.4510 -0.6223  0.5843
18792TIP3   OH277790   3.909   2.032  13.948 -0.5833  0.0006  0.1724
18792TIP3    H177791   4.000   2.049  13.974 -0.8685 -0.7146  1.7544
18792TIP3    H277792   3.889   1.946  13.987 -2.6376  1.1395  1.8429
18793TIP3   OH277793   3.707   4.668  15.177 -0.2616  0.0248 -0.5569
18793TIP3    H177794   3.789   4.667  15.129  0.3600 -0.2266  0.4768
18793TIP3    H277795   3.661   4.589  15.147  0.4168 -0.4974 -0.2531
18794TIP3   OH277796   3.412   2.490  14.796  0.1103  0.5368 -0.2365
18794TIP3    H177797   3.341   2.430  14.771  0.6433  0.4602 -1.7060
18794TIP3    H277798   3.441   2.458  14.881 -1.5680  0.5409  0.3867
18795TIP3   OH277799   2.674   6.614   2.078 -0.5335 -0.8163  0.2808
18795TIP3    H177800   2.759   6.608   2.035 -0.8600  2.0548 -1.0251
18795TIP3    H277801   2.694   6.627   2.171  0.4400 -0.3876  0.0170
18796TIP3   OH277802   5.093   2.923   1.590  0.3902  0.2531 -0.0646
18796TIP3    H177803   5.173   2.926   1.642  0.3830  0.2647 -0.0546
18796TIP3    H277804   5.084   3.012   1.555  0.7510  0.0696 -0.6216
18797TIP3   OH277805   6.366   4.947  13.193  0.1210 -0.2333  0.2279
18797TIP3    H177806   6.405   5.027  13.158  0.4202 -0.3390  0.3170
18797TIP3    H277807   6.280   4.973  13.224  0.5203  0.2141  0.9742
18798TIP3   OH277808   3.591   0.216  16.510  0.0243 -0.1424 -0.0114
18798TIP3    H177809   3.650   0.148  16.479 -1.1862 -1.7261  0.9884
18798TIP3    H277810   3.648   0.288  16.535  1.6144 -1.8332  1.5460
18799TIP3   OH277811   0.399   6.069   2.270 -0.3658  0.0440  0.2676
18799TIP3    H177812   0.376   6.155   2.236  0.5809  0.1324 -0.1622
18799TIP3    H277813   0.353   6.064   2.354 -1.2656  0.5414 -0.1824
18800TIP3   OH277814   5.874   3.612   6.250  0.1937 -0.2119 -0.4434
18800TIP3    H177815   5.876   3.708   6.256 -0.6302 -0.1825 -0.5623
18800TIP3    H277816   5.873   3.582   6.341 -1.5065 -0.0398 -0.3662
18801TIP3   OH277817   2.430   5.781   5.763  0.2141  0.1496  0.4903
18801TIP3    H177818   2.400   5.758   5.851  1.0393  0.0481  0.7593
18801TIP3    H277819   2.367   5.740   5.704 -0.5595  0.5335  1.0359
18802TIP3   OH277820   3.666   6.671  15.503  0.1687 -0.4473  0.2631
18802TIP3    H177821   3.698   6.726  15.574 -0.0149 -0.3672  0.2836
18802TIP3    H277822   3.673   6.581  15.537  1.9079 -0.5757 -0.3147
18803TIP3   OH277823   0.376   4.526   1.724  0.1467  0.0449 -0.3614
18803TIP3    H177824   0.306   4.476   1.765  1.0198  0.2364  1.4588
18803TIP3    H277825   0.417   4.466   1.662 -1.8132  0.0443 -1.7462
18804TIP3   OH277826   3.521   4.044  15.307  0.0887 -0.2857  0.1036
18804TIP3    H177827   3.594   4.038  15.369  0.2965  1.5635  0.0872
18804TIP3    H277828   3.479   4.127  15.328 -1.0776 -0.6058 -0.9122
18805TIP3   OH277829   3.473   4.522  10.805  0.2928 -0.4037 -0.2292
18805TIP3    H177830   3.536   4.577  10.759 -0.2160  1.2040  0.8902
18805TIP3    H277831   3.389   4.566  10.792 -0.3281 -1.5625 -0.2486
18806TIP3   OH277832   6.601   3.394  10.884 -0.4514  0.0479  0.7036
18806TIP3    H177833   6.608   3.455  10.811  1.0636 -1.6790 -0.6685
18806TIP3    H277834   6.571   3.312  10.845  0.4685 -0.9427  1.9950
18807TIP3   OH277835   0.137   4.508  15.438  0.4880  0.0805  0.2574
18807TIP3    H177836   0.147   4.551  15.523  1.0893  1.3479 -0.4222
18807TIP3    H277837   0.050   4.468  15.442  0.0604  1.0354  1.0784
18808TIP3   OH277838   4.350   6.427  14.262  0.0644  0.3934 -0.0037
18808TIP3    H177839   4.271   6.480  14.250  0.6272  1.2351 -0.0539
18808TIP3    H277840   4.357   6.375  14.182  0.6480  1.7776 -0.8861
18809TIP3   OH277841   4.841   4.736  12.554 -0.0856 -0.3711  0.2400
18809TIP3    H177842   4.780   4.794  12.600 -0.8389  0.3179 -1.5356
18809TIP3    H277843   4.911   4.794  12.524 -0.6448 -0.4082 -1.2118
18810TIP3   OH277844   0.176   0.330  12.587  0.2623 -0.4414 -0.5497
18810TIP3    H177845   0.209   0.243  12.564 -0.9391 -1.5393  1.5186
18810TIP3    H277846   0.142   0.319  12.676 -1.3783  1.7646 -0.8293
18811TIP3   OH277847   0.974   4.280   0.437  0.1537  0.5343  0.0591
18811TIP3    H177848   0.919   4.229   0.377  0.3020 -0.1008  0.4428
18811TIP3    H277849   0.947   4.251   0.524  1.6342 -0.3970  0.2431
18812TIP3   OH277850   4.610   4.198   6.386  0.8372  0.5513  0.7695
18812TIP3    H177851   4.659   4.117   6.395 -0.2135 -0.1558  0.3017
18812TIP3    H277852   4.569   4.211   6.471  1.0356  0.6168  0.8556
18813TIP3   OH277853   0.079   2.794   4.985 -0.9378  0.5387 -0.1472
18813TIP3    H177854   0.155   2.736   4.974 -0.6484  1.1997 -2.1438
18813TIP3    H277855   0.010   2.737   5.020  0.3363 -0.1572  1.3455
18814TIP3   OH277856   0.836   5.730  11.586 -0.2457 -0.0846  0.1548
18814TIP3    H177857   0.824   5.815  11.544  0.3416 -0.3370 -0.5432
18814TIP3    H277858   0.929   5.712  11.579 -0.2078 -0.3673  1.1386
18815TIP3   OH277859   1.539   3.035   4.741 -0.1083  0.4557 -0.1758
18815TIP3    H177860   1.520   3.107   4.681 -0.5132  0.4276 -0.0858
18815TIP3    H277861   1.623   3.000   4.711 -0.3622  0.3685 -0.7964
18816TIP3   OH277862   4.882   5.445  13.832  0.1440  0.4284  0.0819
18816TIP3    H177863   4.876   5.531  13.790 -0.9072  0.1114 -0.4599
18816TIP3    H277864   4.812   5.445  13.898 -0.4328 -0.3031 -0.5031
18817TIP3   OH277865   4.882   1.368  15.171  0.5852  0.3444  0.6956
18817TIP3    H177866   4.820   1.432  15.136  0.9600 -0.1525 -0.9716
18817TIP3    H277867   4.858   1.360  15.263  0.5947  2.9237  1.0055
18818TIP3   OH277868   1.488   1.117  13.426 -0.0248  0.4881  0.0299
18818TIP3    H177869   1.465   1.194  13.373 -0.5797 -0.1200 -0.6453
18818TIP3    H277870   1.583   1.111  13.419 -0.1948 -0.6759 -2.5518
18819TIP3   OH277871   4.894   6.546   4.471 -0.1754 -0.6681 -0.2300
18819TIP3    H177872   4.941   6.596   4.405  1.5526 -2.4991 -0.4712
18819TIP3    H277873   4.953   6.543   4.546 -1.8423  0.8312  1.2375
18820TIP3   OH277874   4.402   0.976  10.844 -0.4760  0.5737  0.1060
18820TIP3    H177875   4.478   0.931  10.880 -2.2404 -0.9141  2.2265
18820TIP3    H277876   4.370   0.918  10.775 -0.6190  0.3991  0.3185
18821TIP3   OH277877   5.891   0.180   2.685 -0.1319 -0.1983 -1.0969
18821TIP3    H177878   5.798   0.190   2.666 -0.0100 -0.0051 -1.6143
18821TIP3    H277879   5.933   0.178   2.599  0.5294  1.5656 -0.8650
18822TIP3   OH277880   4.924   2.986  15.176  0.3602 -0.2911  0.1327
18822TIP3    H177881   4.915   3.019  15.087  0.7515  1.7858  0.7908
18822TIP3    H277882   4.886   3.055  15.231 -0.9656 -2.0381  1.5398
18823TIP3   OH277883   2.610   4.144   0.695 -0.1502 -0.2322 -0.1809
18823TIP3    H177884   2.677   4.206   0.665 -0.7777  0.5990  0.1081
18823TIP3    H277885   2.541   4.199   0.731 -1.7353 -0.9804 -1.9278
18824TIP3   OH277886   4.823   6.118  11.642 -0.4836 -0.6596  0.5293
18824TIP3    H177887   4.839   6.158  11.728 -0.7854  1.5780 -0.3722
18824TIP3    H277888   4.739   6.154  11.615  0.8680  1.0089 -1.8710
18825TIP3   OH277889   3.266   3.785   0.707 -0.6422 -0.0121 -0.5347
18825TIP3    H177890   3.281   3.833   0.626  0.0345 -0.7244 -0.8480
18825TIP3    H277891   3.198   3.721   0.685 -1.6220  0.8590 -0.0886
18826TIP3   OH277892   6.441   2.763  13.476 -0.1179  0.2462 -0.0517
18826TIP3    H177893   6.484   2.834  13.524  1.2031 -0.6659  0.1778
18826TIP3    H277894   6.361   2.746  13.526  0.9346 -0.2806  1.5424
18827TIP3   OH277895   3.309   3.634   2.123  0.1591 -0.3819 -0.0239
18827TIP3    H177896   3.343   3.614   2.211 -2.8785  0.2091  1.3911
18827TIP3    H277897   3.234   3.576   2.112 -2.5916  2.8521 -0.0604
18828TIP3   OH277898   6.319   4.203  13.615 -0.0404  0.2790 -0.1897
18828TIP3    H177899   6.312   4.212  13.520  0.7168  0.6775 -0.2107
18828TIP3    H277900   6.386   4.135  13.628  0.2116  0.5729  0.0611
18829TIP3   OH277901   1.421   4.848  16.859 -0.1793  0.3603 -0.7097
18829TIP3    H177902   1.493   4.896  16.899 -0.2614  0.4264 -0.6392
18829TIP3    H277903   1.447   4.756  16.863  0.5000  0.4926 -1.9071
18830TIP3   OH277904   4.944   3.682   1.273  0.1850 -0.3737 -0.2650
18830TIP3    H177905   4.850   3.665   1.267  0.1120  0.0246 -0.2525
18830TIP3    H277906   4.976   3.668   1.184  0.2293 -1.1660 -0.1333
18831TIP3   OH277907   3.613   0.486   2.056  0.3250  0.3596 -0.2632
18831TIP3    H177908   3.641   0.394   2.062  0.3942  0.4488  1.2278
18831TIP3    H277909   3.562   0.490   1.975 -0.0669 -1.1051 -0.1201
18832TIP3   OH277910   0.195   2.348   5.195 -0.2541 -0.2203 -0.1651
18832TIP3    H177911   0.167   2.281   5.257  1.7165 -0.2156  0.7961
18832TIP3    H277912   0.151   2.325   5.113 -1.5058 -1.2604  0.7735
18833TIP3   OH277913   2.855   4.786   2.371 -0.0977  0.2149 -0.1793
18833TIP3    H177914   2.764   4.758   2.361 -0.8250  1.9112  1.0818
18833TIP3    H277915   2.858   4.825   2.458  2.1256 -0.7213  0.2287
18834TIP3   OH277916   2.357   4.096   4.040  0.3179  0.0290 -0.2235
18834TIP3    H177917   2.267   4.086   4.070  0.6096  0.7520  0.9833
18834TIP3    H277918   2.408   4.038   4.097  0.6716 -0.0674 -0.6273
18835TIP3   OH277919   1.385   5.174  14.436 -0.3189  0.0568 -0.2980
18835TIP3    H177920   1.394   5.192  14.342  1.0282 -1.8545 -0.5987
18835TIP3    H277921   1.305   5.121  14.442 -0.3821  0.1425 -0.3739
18836TIP3   OH277922   0.732   2.699   4.258 -0.5943  0.5155  0.1563
18836TIP3    H177923   0.755   2.721   4.348 -1.3707  0.7321  0.3124
18836TIP3    H277924   0.646   2.738   4.246 -1.5568 -1.4935  0.0804
18837TIP3   OH277925   5.875   3.381  15.040 -0.2114  0.2352 -0.1033
18837TIP3    H177926   5.928   3.302  15.033 -1.1794 -0.5801  1.4774
18837TIP3    H277927   5.830   3.373  15.123 -0.7332  2.2193 -0.1472
18838TIP3   OH277928   6.520   2.295  11.093  0.4101 -0.1809  0.1285
18838TIP3    H177929   6.481   2.208  11.102 -0.2912  0.0942 -0.1259
18838TIP3    H277930   6.513   2.315  10.999 -0.4479  0.5893  0.3379
18839TIP3   OH277931   0.150   0.833   1.623 -0.2701 -0.1339 -0.5174
18839TIP3    H177932   0.136   0.857   1.715 -1.4579 -1.3130 -0.3472
18839TIP3    H277933   0.156   0.916   1.577  0.8540  0.4861  0.6816
18840TIP3   OH277934   3.849   6.661   1.468 -0.5889  0.6383  0.3139
18840TIP3    H177935   3.832   6.567   1.467  1.1582  0.2447  1.6061
18840TIP3    H277936   3.942   6.668   1.490 -0.8291  2.6846  0.8919
18841TIP3   OH277937   0.949   4.251  15.559 -0.2107 -0.0321  0.2905
18841TIP3    H177938   1.038   4.283  15.539 -0.2293 -0.4649 -0.5367
18841TIP3    H277939   0.943   4.254  15.654  0.5585  0.3737  0.3326
18842TIP3   OH277940   4.452   5.329  15.170  0.3172  0.1566 -0.6904
18842TIP3    H177941   4.545   5.352  15.171  0.6892 -1.2835 -0.7622
18842TIP3    H277942   4.421   5.352  15.258  1.4653 -2.0523  0.3914
18843TIP3   OH277943   0.049   4.965   5.987  0.1897  0.3594  0.0617
18843TIP3    H177944  -0.017   4.971   6.055  0.7174  0.4071  0.5736
18843TIP3    H277945   0.114   4.905   6.021  0.7073  0.7681 -0.1889
18844TIP3   OH277946   3.864   4.561   3.877  0.5396  0.5505  0.0989
18844TIP3    H177947   3.871   4.649   3.842  1.1643  0.6641  0.5069
18844TIP3    H277948   3.773   4.555   3.907 -0.1519  0.3160 -1.8469
18845TIP3   OH277949   6.478   0.870  13.021 -0.0265  0.0361  0.2594
18845TIP3    H177950   6.550   0.870  13.084 -0.7791  1.9304  1.1875
18845TIP3    H277951   6.522   0.871  12.935  1.0548  0.9669  0.8033
18846TIP3   OH277952   3.451   5.438   3.512 -0.1385 -0.3538 -0.3718
18846TIP3    H177953   3.543   5.412   3.505 -0.1906 -0.1997 -2.0932
18846TIP3    H277954   3.405   5.359   3.539  0.5303 -0.3445  0.8470
18847TIP3   OH277955   2.155   1.319   1.511  0.5899 -0.5967  0.2724
18847TIP3    H177956   2.160   1.282   1.423 -0.7288 -1.6818  0.6222
18847TIP3    H277957   2.119   1.406   1.499  1.3467 -0.3615 -0.3417
18848TIP3   OH277958   1.490   1.596  15.021  0.4085  0.3037 -0.5100
18848TIP3    H177959   1.505   1.526  14.957  1.0238  0.2134 -0.2786
18848TIP3    H277960   1.395   1.599  15.032  0.3742 -0.5610 -0.4590
18849TIP3   OH277961   2.746   4.209   2.918 -0.6887  0.3432  0.0701
18849TIP3    H177962   2.676   4.225   2.981  0.5665 -2.1458  2.2727
18849TIP3    H277963   2.736   4.279   2.854 -3.7541  1.4118  1.4975
18850TIP3   OH277964   5.740   6.720  13.152  0.6053 -0.1425 -0.2273
18850TIP3    H177965   5.650   6.732  13.122 -0.2983 -1.4308  1.7783
18850TIP3    H277966   5.737   6.742  13.246  2.5543  0.5183 -0.2748
18851TIP3   OH277967   1.504   5.438  12.178  0.3072 -0.2389  0.4120
18851TIP3    H177968   1.510   5.441  12.082  1.1474 -3.5754  0.2521
18851TIP3    H277969   1.595   5.426  12.207 -0.2537 -2.6350  1.3527
18852TIP3   OH277970   6.490   4.628   0.329  0.3883 -0.0850 -0.1780
18852TIP3    H177971   6.551   4.702   0.323 -0.1779  0.3095 -1.3179
18852TIP3    H277972   6.508   4.576   0.251  0.0645 -0.5947  0.0876
18853TIP3   OH277973   6.458   6.111   0.443 -0.4487 -0.0298 -0.3917
18853TIP3    H177974   6.504   6.038   0.402 -1.2058  0.4097 -2.1188
18853TIP3    H277975   6.368   6.079   0.455 -0.8911  0.7152 -1.5460
18854TIP3   OH277976   1.874   5.812  14.292  0.3301  0.6039 -0.0812
18854TIP3    H177977   1.808   5.852  14.235  0.7999  1.4639 -0.0496
18854TIP3    H277978   1.861   5.855  14.376  2.2184  2.3288 -0.5856
18855TIP3   OH277979   5.051   4.559  16.849 -0.3900  0.5649 -0.1697
18855TIP3    H177980   5.078   4.555  16.757  0.1053  0.4379 -0.0206
18855TIP3    H277981   5.022   4.470  16.869  0.6402  0.2769  0.1318
18856TIP3   OH277982   5.004   3.651   4.232 -0.1346  0.2365 -0.1524
18856TIP3    H177983   5.091   3.686   4.250  0.4763 -0.3960 -1.7060
18856TIP3    H277984   4.987   3.674   4.141 -1.1835 -0.4836 -0.1570
18857TIP3   OH277985   1.089   4.284  17.135  0.0125  0.0715 -0.2577
18857TIP3    H177986   1.072   4.365  17.182  0.4976  0.2838 -0.4335
18857TIP3    H277987   1.072   4.305  17.043 -0.4553 -0.1999 -0.2315
18858TIP3   OH277988   2.825   1.211   0.869  0.3060 -0.2114  0.0058
18858TIP3    H177989   2.798   1.124   0.896  2.4245 -0.8466  0.1955
18858TIP3    H277990   2.847   1.256   0.950  0.9488 -0.1244 -0.2092
18859TIP3   OH277991   6.093   1.787   3.202  0.0404  0.3313 -0.3294
18859TIP3    H177992   6.183   1.820   3.205  0.5251 -0.8461 -1.3210
18859TIP3    H277993   6.039   1.866   3.201  1.1108  1.0889 -1.1120
18860TIP3   OH277994   4.291   4.174   4.600 -0.3798  0.0088  0.3628
18860TIP3    H177995   4.381   4.180   4.631  0.2272  1.5034 -1.5505
18860TIP3    H277996   4.270   4.081   4.607  1.6397 -0.5229 -0.0444
18861TIP3   OH277997   3.619   1.396  13.224  0.2223 -0.0895  0.3872
18861TIP3    H177998   3.632   1.399  13.318  4.6900 -0.8640  0.0582
18861TIP3    H277999   3.629   1.486  13.195  0.7467 -0.0943  0.5416
18862TIP3   OH278000   3.730   5.112   0.626 -0.2438  0.5373 -0.0572
18862TIP3    H178001   3.792   5.040   0.621 -1.6192 -0.7378  0.4260
18862TIP3    H278002   3.777   5.181   0.673  0.3885 -0.8787  1.5091
18863TIP3   OH278003   1.441   0.236  14.180 -0.2350 -0.1501  0.3708
18863TIP3    H178004   1.437   0.148  14.142  1.4982  0.1985 -0.7008
18863TIP3    H278005   1.477   0.291  14.110  1.8032  0.7833  2.0424
18864TIP3   OH278006   1.777   1.940   4.369  0.4073 -0.3214  0.1217
18864TIP3    H178007   1.862   1.980   4.350  1.9888 -2.8371  1.3064
18864TIP3    H278008   1.736   1.927   4.283  0.6110  2.0082 -0.3953
18865TIP3   OH278009   1.749   2.949   1.130 -0.3602 -0.0532 -0.3205
18865TIP3    H178010   1.724   2.906   1.212  2.0026  0.4654  0.7749
18865TIP3    H278011   1.693   2.909   1.063 -0.9101 -2.0166  1.2115
18866TIP3   OH278012   0.506   6.514   0.654 -0.0447 -0.1809  0.6565
18866TIP3    H178013   0.471   6.466   0.580  0.7349 -0.3944  0.4183
18866TIP3    H278014   0.538   6.596   0.617 -0.5407  0.1423  0.9201
18867TIP3   OH278015   0.335   0.460  15.070 -0.2027 -0.3180 -0.0861
18867TIP3    H178016   0.323   0.441  14.977  1.9379 -0.7943 -0.3065
18867TIP3    H278017   0.328   0.375  15.113  0.6941 -0.3821 -0.0511
18868TIP3   OH278018   1.233   3.225   2.785 -0.5744  0.0841  0.0233
18868TIP3    H178019   1.223   3.134   2.814  1.8169 -0.3511 -0.3308
18868TIP3    H278020   1.247   3.274   2.866 -0.6218 -0.0562  0.1171
18869TIP3   OH278021   6.578   4.017  17.150  0.0167 -0.5958 -0.7622
18869TIP3    H178022   6.562   4.063  17.068 -1.2182 -1.3398 -0.9653
18869TIP3    H278023   6.495   3.973  17.169 -0.1634  0.5717  1.5402
18870TIP3   OH278024   1.914   1.647  14.180  0.0117  0.0110  0.2648
18870TIP3    H178025   1.973   1.631  14.252  0.6207  1.4805  0.1376
18870TIP3    H278026   1.827   1.646  14.219  0.0342 -2.4757  0.3956
18871TIP3   OH278027   1.475   2.114   5.747 -0.1142  0.6082  0.2528
18871TIP3    H178028   1.514   2.162   5.820  1.7672  1.2037 -1.0389
18871TIP3    H278029   1.428   2.181   5.697 -1.8639  0.1036  1.1667
18872TIP3   OH278030   0.707   2.878   5.719 -0.3086 -0.4617 -0.1313
18872TIP3    H178031   0.734   2.935   5.791 -1.1533  0.7524 -0.7288
18872TIP3    H278032   0.615   2.901   5.703  0.3412  0.7287 -2.8162
18873TIP3   OH278033   4.751   6.554  16.555 -0.1822  0.3863 -0.0518
18873TIP3    H178034   4.721   6.507  16.478  0.8704  0.7061 -0.6841
18873TIP3    H278035   4.766   6.487  16.621 -1.2468  0.1275 -0.0695
18874TIP3   OH278036   1.198   1.188  16.618  0.3851  0.2831 -0.3924
18874TIP3    H178037   1.227   1.280  16.616 -0.2135  0.5922  2.2058
18874TIP3    H278038   1.115   1.191  16.664  1.1074 -1.7311  1.1651
18875TIP3   OH278039   1.290   4.037   1.017 -0.2149 -0.3084  0.1254
18875TIP3    H178040   1.314   4.071   1.103 -0.0620  1.2920 -0.5209
18875TIP3    H278041   1.335   4.094   0.954 -2.4808  0.2909 -1.0622
18876TIP3   OH278042   0.057   2.179  12.921  0.1063 -0.3757  0.4229
18876TIP3    H178043  -0.023   2.142  12.883  0.3998  1.2002 -1.9353
18876TIP3    H278044   0.025   2.250  12.977 -0.1776  1.1650 -1.5958
18877TIP3   OH278045   4.617   4.925   0.034 -0.3114  0.1016  0.1846
18877TIP3    H178046   4.538   4.917  -0.019  1.0077 -0.9933 -1.7465
18877TIP3    H278047   4.639   5.018   0.031 -0.8820  0.2278 -0.2343
18878TIP3   OH278048   6.555   3.984   2.501  0.2045  0.5666 -0.1256
18878TIP3    H178049   6.595   4.007   2.585 -3.5328  0.1322  2.0438
18878TIP3    H278050   6.463   4.008   2.512 -0.5991 -0.1678 -3.9244
18879TIP3   OH278051   1.847   4.446   4.790  0.2028 -0.2798  0.7146
18879TIP3    H178052   1.865   4.371   4.734  0.7913  0.2681  0.1625
18879TIP3    H278053   1.933   4.475   4.820  0.0954  0.9068 -0.0499
18880TIP3   OH278054   5.575   1.507   1.885  0.2770  0.2862  0.5292
18880TIP3    H178055   5.668   1.512   1.908  0.2145  2.2638  0.4869
18880TIP3    H278056   5.575   1.485   1.792  0.6234 -1.8474  0.9751
18881TIP3   OH278057   3.872   6.134   3.099  0.0557 -0.0957  0.2524
18881TIP3    H178058   3.782   6.130   3.066  0.3661 -0.0159 -0.6107
18881TIP3    H278059   3.866   6.097   3.188 -0.7519 -0.4946  0.0429
18882TIP3   OH278060   0.536   2.012  12.255  0.6443 -0.3884 -0.0956
18882TIP3    H178061   0.525   1.926  12.214 -1.3576 -0.3295  0.2139
18882TIP3    H278062   0.574   2.067  12.186  2.6140 -1.6518 -0.0896
18883TIP3   OH278063   5.004   2.903   0.773  0.4211  0.2799  0.2414
18883TIP3    H178064   4.931   2.965   0.767  0.5062  0.4197  0.6192
18883TIP3    H278065   5.075   2.953   0.814  1.1900  0.5504 -1.3456
18884TIP3   OH278066   2.620   0.973   2.641  0.4633 -0.5822 -0.2646
18884TIP3    H178067   2.571   0.992   2.561 -0.5914  0.3253  0.5636
18884TIP3    H278068   2.564   0.913   2.689  0.2726  0.2521  0.5745
18885TIP3   OH278069   4.374   1.293  14.723  0.0798 -0.0617 -0.5678
18885TIP3    H178070   4.462   1.331  14.717  0.1042  0.1258  0.7465
18885TIP3    H278071   4.316   1.363  14.691  0.2804  0.4033  0.0746
18886TIP3   OH278072   0.601   4.241  12.745  0.1167  0.3997 -0.1717
18886TIP3    H178073   0.554   4.324  12.747 -1.5389 -0.4868 -0.4542
18886TIP3    H278074   0.532   4.174  12.748  1.4415 -0.9817  0.9824
18887TIP3   OH278075   5.941   5.530  11.155 -0.2146 -0.6581 -0.1122
18887TIP3    H178076   5.958   5.551  11.064 -1.2671 -0.0739 -0.1944
18887TIP3    H278077   5.872   5.592  11.181  0.8724 -0.0356  1.4051
18888TIP3   OH278078   5.507   4.145   0.959  0.4893  0.5422  0.9739
18888TIP3    H178079   5.587   4.197   0.963  1.3835 -0.6798 -0.0230
18888TIP3    H278080   5.500   4.119   0.867 -1.6300  1.4661  0.8192
18889TIP3   OH278081   4.407   0.771  11.603 -0.5164 -0.5033  0.1988
18889TIP3    H178082   4.414   0.706  11.673 -0.0791  0.5356  1.1435
18889TIP3    H278083   4.476   0.835  11.622 -0.4493 -0.1504 -1.1352
18890TIP3   OH278084   4.830   0.350  15.951  0.4630  0.2106  0.3440
18890TIP3    H178085   4.806   0.433  15.909 -0.4706  0.1128  0.6576
18890TIP3    H278086   4.842   0.373  16.044  2.2517  0.3756  0.1067
18891TIP3   OH278087   6.163   4.428   4.411 -0.0266  0.2546 -0.2450
18891TIP3    H178088   6.077   4.449   4.376 -0.2675 -0.9029 -0.3971
18891TIP3    H278089   6.185   4.502   4.468 -1.6745  0.0053  0.7792
18892TIP3   OH278090   1.443   0.331  10.727  0.1890  0.2128  0.0586
18892TIP3    H178091   1.537   0.310  10.729  0.0076 -0.6137  0.1305
18892TIP3    H278092   1.417   0.331  10.819  0.1666  0.6776  0.0532
18893TIP3   OH278093   3.947   0.668  12.802 -0.6459  0.3571  0.0925
18893TIP3    H178094   3.853   0.664  12.821 -0.8957  0.4522 -1.0492
18893TIP3    H278095   3.981   0.735  12.861 -1.0090 -0.6882  1.5630
18894TIP3   OH278096   4.648   2.947  13.243  0.0805 -0.5188 -0.1672
18894TIP3    H178097   4.582   3.006  13.207  1.0826  0.5124 -0.3790
18894TIP3    H278098   4.625   2.861  13.208 -1.5650 -0.3292  0.3644
18895TIP3   OH278099   4.118   3.236   2.352  0.3788  0.0040  0.1917
18895TIP3    H178100   4.212   3.223   2.342  0.2041 -1.3739  0.1379
18895TIP3    H278101   4.101   3.322   2.313  1.4799 -0.1243 -0.6206
18896TIP3   OH278102   2.373   2.089  17.110 -0.1331 -0.2976  0.3348
18896TIP3    H178103   2.364   2.178  17.077 -3.0941 -0.5818  0.1317
18896TIP3    H278104   2.444   2.094  17.175 -0.0498  2.1161  0.1174
18897TIP3   OH278105   2.789   2.215  15.959  0.1541 -0.1166  0.4634
18897TIP3    H178106   2.803   2.269  16.037 -1.0097  0.6769  0.1443
18897TIP3    H278107   2.812   2.272  15.886  2.9707 -1.3949  0.2046
18898TIP3   OH278108   2.712   4.814   5.666  0.3937 -0.3924  0.4633
18898TIP3    H178109   2.764   4.832   5.744 -1.0110 -0.4094  1.4484
18898TIP3    H278110   2.773   4.823   5.593  1.5867  0.3015  1.5129
18899TIP3   OH278111   4.486   2.746  10.468  0.1802  0.3746  0.0177
18899TIP3    H178112   4.481   2.822  10.410  1.0974  1.4719  1.3163
18899TIP3    H278113   4.515   2.781  10.552 -2.5527 -0.9199  1.6469
18900TIP3   OH278114   2.461   0.701  12.477  0.0093  0.4490  0.2808
18900TIP3    H178115   2.517   0.708  12.554  0.8047 -0.4208 -0.1954
18900TIP3    H278116   2.519   0.719  12.403 -0.4445  0.0254 -0.1904
18901TIP3   OH278117   2.254   6.251  13.264 -0.4461  0.1065 -0.4187
18901TIP3    H178118   2.215   6.280  13.347 -1.7822  0.2455 -1.0630
18901TIP3    H278119   2.210   6.303  13.197 -1.1913 -1.6866 -1.4123
18902TIP3   OH278120   0.799   0.028  15.779 -0.1632 -0.0176  0.4817
18902TIP3    H178121   0.785  -0.021  15.861  0.1335 -0.8574  0.0480
18902TIP3    H278122   0.738   0.102  15.784 -0.7136 -0.4981  1.1074
18903TIP3   OH278123   1.370   3.920  16.236 -0.3895  0.4969  0.7067
18903TIP3    H178124   1.326   3.840  16.207  0.6945  0.4520 -0.9609
18903TIP3    H278125   1.463   3.900  16.228 -0.0932  1.6695  1.0484
18904TIP3   OH278126   2.447   4.844   4.170 -0.1254  0.6018  0.3335
18904TIP3    H178127   2.421   4.868   4.081 -1.5327  0.0654  0.5755
18904TIP3    H278128   2.491   4.922   4.204  0.4473  0.8090 -0.8212
18905TIP3   OH278129   6.153   6.238   6.117  0.3046  0.2681  0.0862
18905TIP3    H178130   6.179   6.153   6.152 -0.4042 -0.8263 -1.8500
18905TIP3    H278131   6.060   6.246   6.140  0.6370  1.0455  1.2055
18906TIP3   OH278132   2.522   0.503   3.145  0.2408 -0.0417 -0.0560
18906TIP3    H178133   2.548   0.590   3.115  1.4195 -0.8638 -1.5787
18906TIP3    H278134   2.574   0.488   3.223 -1.0539  1.1691  1.0907
18907TIP3   OH278135   5.160   2.681  12.764  0.6739 -0.2982 -0.2544
18907TIP3    H178136   5.240   2.681  12.712 -0.8919 -1.1216 -2.8405
18907TIP3    H278137   5.103   2.746  12.721  0.5105  1.6816  2.6259
18908TIP3   OH278138   6.556   6.744  17.013 -0.1693  0.1681 -0.3419
18908TIP3    H178139   6.472   6.791  17.022 -0.6596 -0.6930 -0.2879
18908TIP3    H278140   6.553   6.707  16.924 -0.2119 -0.5369 -0.0550
18909TIP3   OH278141   3.327   3.153   2.528  0.4211 -0.1247  0.1285
18909TIP3    H178142   3.231   3.157   2.526  0.4739  1.3389 -0.7486
18909TIP3    H278143   3.350   3.090   2.460  0.0749 -1.5384  1.2637
18910TIP3   OH278144   5.383   5.698  12.854 -0.9891 -0.4492 -0.1199
18910TIP3    H178145   5.473   5.727  12.838 -0.4954 -0.8030  1.7791
18910TIP3    H278146   5.381   5.674  12.946 -2.2374 -3.2365 -0.7340
18911TIP3   OH278147   3.185   4.797  12.908  0.1839 -0.5088  0.2039
18911TIP3    H178148   3.133   4.853  12.967 -3.3990 -1.9886 -1.2918
18911TIP3    H278149   3.213   4.724  12.963  1.5010  0.6828  1.2110
18912TIP3   OH278150   0.315   6.779  14.807  0.2752 -0.2021 -0.5303
18912TIP3    H178151   0.394   6.725  14.802  0.0148 -0.5915 -0.4750
18912TIP3    H278152   0.244   6.720  14.783  0.3097  0.8890 -3.7865
18913TIP3   OH278153   0.321   6.381  11.886 -0.2011 -0.3443  0.0040
18913TIP3    H178154   0.242   6.435  11.894  0.5693  0.8736 -0.2772
18913TIP3    H278155   0.288   6.292  11.877 -1.5640  0.1712 -0.4918
18914TIP3   OH278156   3.635   2.152  16.427  0.1786 -0.6902  0.3396
18914TIP3    H178157   3.545   2.183  16.431  0.2996 -0.1466 -0.7466
18914TIP3    H278158   3.688   2.228  16.452  0.3230 -1.1697  1.5391
18915TIP3   OH278159   3.817   4.334   1.200 -0.8130 -0.5101 -0.0329
18915TIP3    H178160   3.911   4.330   1.221 -1.0384 -0.9280  0.9237
18915TIP3    H278161   3.796   4.427   1.201 -0.9330 -0.5178  2.2105
18916TIP3   OH278162   4.739   5.365  16.533  0.1473 -0.3179  0.0291
18916TIP3    H178163   4.835   5.363  16.525  0.1555 -0.5745  0.1848
18916TIP3    H278164   4.707   5.358  16.443  0.2817  0.5020 -0.0933
18917TIP3   OH278165   6.005   5.564  15.648 -0.2157 -0.5550  0.5989
18917TIP3    H178166   5.959   5.596  15.571  0.2657  0.5988  0.7827
18917TIP3    H278167   5.955   5.486  15.674 -0.5013 -0.8497 -0.7365
18918TIP3   OH278168   5.954   4.927   3.603  0.2373 -0.5067  0.0218
18918TIP3    H178169   5.939   4.836   3.626  0.4185 -0.7086 -0.6429
18918TIP3    H278170   5.883   4.949   3.543  0.6492 -0.4447 -0.4427
18919TIP3   OH278171   1.885   1.137  11.450  0.4844 -0.1039  0.5395
18919TIP3    H178172   1.951   1.070  11.465  0.0985 -0.6399 -0.1186
18919TIP3    H278173   1.881   1.148  11.355 -0.3035 -0.0205  0.5704
18920TIP3   OH278174   6.012   3.079  13.044 -0.3414 -0.0376  0.3636
18920TIP3    H178175   5.942   3.021  13.075 -0.4878  0.1450  0.3714
18920TIP3    H278176   6.082   3.019  13.016 -1.1843 -0.2989 -1.3397
18921TIP3   OH278177   0.863   2.493  12.536 -0.6960 -0.1729 -0.8210
18921TIP3    H178178   0.919   2.560  12.576  0.1580 -0.3867 -1.6150
18921TIP3    H278179   0.809   2.461  12.608 -0.9159  1.1498 -0.3593
18922TIP3   OH278180   6.697   4.680  10.901  0.2426  0.3355 -0.6447
18922TIP3    H178181   6.663   4.591  10.906  1.2642 -0.0118  0.6071
18922TIP3    H278182   6.641   4.731  10.961  0.6040  0.2002 -0.1845
18923TIP3   OH278183   2.753   4.363   0.556  0.1346 -0.1242  0.1812
18923TIP3    H178184   2.814   4.419   0.604 -0.1813  1.2789 -0.9707
18923TIP3    H278185   2.694   4.425   0.512  1.2678 -1.1910 -3.1337
18924TIP3   OH278186   6.403   3.041   5.486 -0.5705 -0.1948  0.6541
18924TIP3    H178187   6.484   3.083   5.516 -0.6118 -1.1711  2.2273
18924TIP3    H278188   6.344   3.114   5.465 -0.4656  0.5686  2.8408
18925TIP3   OH278189   3.169   0.893   1.330  0.3299 -0.6094  0.3886
18925TIP3    H178190   3.143   0.814   1.378 -2.2195 -0.1028 -0.0626
18925TIP3    H278191   3.176   0.864   1.239 -0.8013 -0.2863  0.1941
18926TIP3   OH278192   1.734   6.105   3.369 -0.2699 -0.3530 -0.3841
18926TIP3    H178193   1.800   6.173   3.359  1.4772 -1.9783 -0.4278
18926TIP3    H278194   1.731   6.088   3.463  0.8696 -1.6073 -0.5293
18927TIP3   OH278195   3.200   0.216  15.791  0.1565  0.5729 -0.4788
18927TIP3    H178196   3.274   0.276  15.782 -1.8680  3.1687 -0.7695
18927TIP3    H278197   3.176   0.221  15.884 -0.2038  0.4384 -0.5629
18928TIP3   OH278198   5.638   4.420  10.636 -0.1772  0.0609 -0.7130
18928TIP3    H178199   5.579   4.347  10.621  0.0651 -0.2185 -0.3202
18928TIP3    H278200   5.601   4.467  10.711  0.4264 -0.4747 -0.0625
18929TIP3   OH278201   1.050   1.194  16.218 -0.1664  0.1834 -0.0198
18929TIP3    H178202   0.985   1.150  16.163 -0.2274 -1.4268  1.2634
18929TIP3    H278203   1.129   1.196  16.164 -0.3339 -0.9958 -0.3470
18930TIP3   OH278204   4.520   2.748   3.669  0.6127 -0.0763  0.1561
18930TIP3    H178205   4.500   2.816   3.604 -1.8669 -1.1716 -0.3164
18930TIP3    H278206   4.582   2.690   3.625  1.1732  0.7296 -0.1563
18931TIP3   OH278207   5.457   0.171  13.920  0.4799  0.6012 -0.2884
18931TIP3    H178208   5.524   0.239  13.913  1.9088 -0.7530 -0.2637
18931TIP3    H278209   5.479   0.123  13.999 -1.3099  0.8958  0.4463
18932TIP3   OH278210   3.375   6.557   5.319  0.7682 -0.0352  0.1625
18932TIP3    H178211   3.452   6.605   5.349  0.7744 -0.7984  1.4436
18932TIP3    H278212   3.410   6.477   5.280  0.6225 -0.6363  1.2321
18933TIP3   OH278213   5.963   0.265   2.935 -0.7007  0.2013  0.0891
18933TIP3    H178214   5.994   0.338   2.882  0.4148 -0.0997  0.2971
18933TIP3    H278215   5.946   0.195   2.873  0.4326 -0.0921  0.0807
18934TIP3   OH278216   3.800   6.594   6.240 -1.0127  0.6163 -0.1181
18934TIP3    H178217   3.751   6.676   6.246 -0.5936  0.8193  0.6743
18934TIP3    H278218   3.890   6.619   6.262 -0.9491 -0.1170  0.4718
18935TIP3   OH278219   0.579   6.139  15.848 -0.8795  0.3044 -0.0624
18935TIP3    H178220   0.673   6.136  15.833 -0.7630 -0.9734  0.8373
18935TIP3    H278221   0.564   6.084  15.924 -2.4333 -0.0310 -0.5651
18936TIP3   OH278222   1.297   3.621  14.282  0.2008  0.4763 -0.1026
18936TIP3    H178223   1.282   3.695  14.340 -0.1358 -0.3802  0.9365
18936TIP3    H278224   1.328   3.660  14.200  0.2587  1.7365  0.5017
18937TIP3   OH278225   2.195   3.109   2.760 -0.0089  0.0578  0.4273
18937TIP3    H178226   2.266   3.058   2.798  0.4499  1.2965  1.3035
18937TIP3    H278227   2.192   3.082   2.668  0.7220 -0.9550  0.6874
18938TIP3   OH278228   4.479   4.384  12.068 -0.9942 -0.5596  0.3206
18938TIP3    H178229   4.387   4.389  12.094 -0.5712  1.3831  1.6729
18938TIP3    H278230   4.526   4.361  12.148 -0.2374 -0.9328 -0.2146
18939TIP3   OH278231   3.806   1.044  11.691 -0.6089  0.4749 -0.4529
18939TIP3    H178232   3.784   1.079  11.605  0.1959  1.8229 -0.1295
18939TIP3    H278233   3.788   1.115  11.752  1.7975  0.6665  0.1334
18940TIP3   OH278234   5.729   3.508  10.145 -0.5134  0.0865 -0.7660
18940TIP3    H178235   5.798   3.549  10.198 -1.0565 -0.4315  0.3817
18940TIP3    H278236   5.648   3.526  10.194 -0.9427 -1.0171 -1.0428
18941TIP3   OH278237   3.062   4.935  12.224  0.1969  0.3996 -0.9569
18941TIP3    H178238   3.110   4.877  12.282 -0.2264 -0.5944 -1.5621
18941TIP3    H278239   2.970   4.921  12.246  0.0188 -0.1388 -1.9663
18942TIP3   OH278240   4.073   5.609  11.237  0.8859  0.0250 -0.4136
18942TIP3    H178241   4.045   5.667  11.166 -1.6015 -0.4552  0.0964
18942TIP3    H278242   3.998   5.606  11.296  1.4789 -2.6005  0.3066
18943TIP3   OH278243   1.509   1.974   2.180  0.2302  0.4826 -0.3280
18943TIP3    H178244   1.495   1.887   2.215 -1.5186  0.3917 -1.1250
18943TIP3    H278245   1.421   2.007   2.161  0.7778  2.7431  0.6907
18944TIP3   OH278246   3.040   2.146   2.264 -0.3252  0.6661 -0.1683
18944TIP3    H178247   3.030   2.060   2.304  0.2436  1.8253  2.7597
18944TIP3    H278248   2.972   2.200   2.306  0.8053  2.1528 -0.1621
18945TIP3   OH278249   2.939   5.741  14.929  0.1149 -0.2351  0.1693
18945TIP3    H178250   2.986   5.749  14.845  0.8299  3.6162  0.7556
18945TIP3    H278251   3.004   5.704  14.989  0.0650 -1.6252 -0.5932
18946TIP3   OH278252   1.711   0.894   0.696 -0.1780  0.4179  0.1177
18946TIP3    H178253   1.796   0.937   0.692 -1.0459  3.1688  4.6135
18946TIP3    H278254   1.688   0.894   0.789 -4.6288 -1.2341 -0.7329
18947TIP3   OH278255   2.005   6.437  16.692  0.4423  0.8452 -0.4473
18947TIP3    H178256   2.068   6.483  16.747 -0.0569  1.9146 -0.7522
18947TIP3    H278257   2.003   6.348  16.728  0.1305  1.4970  1.2746
18948TIP3   OH278258   1.422   4.843  11.982  0.0527 -0.1986 -0.0282
18948TIP3    H178259   1.375   4.814  11.904  1.3057  0.7141 -1.1704
18948TIP3    H278260   1.504   4.794  11.981  0.2817  0.1636  0.4589
18949TIP3   OH278261   0.536   0.952  13.368 -0.2594  0.7051 -0.6233
18949TIP3    H178262   0.482   0.968  13.445 -0.1237  0.4834 -0.4807
18949TIP3    H278263   0.477   0.912  13.304 -0.4369  1.1368 -0.7339
18950TIP3   OH278264   2.555   0.415   5.732 -0.2151  0.5157 -0.0236
18950TIP3    H178265   2.604   0.422   5.814 -0.6148  0.6148  0.2076
18950TIP3    H278266   2.622   0.401   5.665  0.3300  2.7468 -0.0171
18951TIP3   OH278267   4.392   1.733  12.076 -0.3731  0.3449 -0.3832
18951TIP3    H178268   4.445   1.690  12.010 -0.0528 -0.4289  0.3573
18951TIP3    H278269   4.452   1.747  12.150 -1.3264 -1.1101  0.7085
18952TIP3   OH278270   6.420   6.149   4.701 -0.1040  0.6628  0.3386
18952TIP3    H178271   6.431   6.094   4.778 -0.3778 -0.2775 -0.2717
18952TIP3    H278272   6.340   6.199   4.718 -1.3905 -1.1042 -0.2051
18953TIP3   OH278273   0.030   1.426  11.377  0.8594 -0.0178 -0.0312
18953TIP3    H178274   0.076   1.343  11.390 -0.7451 -0.5423  3.3235
18953TIP3    H278275   0.095   1.493  11.398  1.9145 -0.3985 -1.9056
18954TIP3   OH278276   5.289   6.009   6.059  0.2316 -0.4771  0.1270
18954TIP3    H178277   5.311   6.037   6.148  0.2031  2.0777 -0.5909
18954TIP3    H278278   5.197   6.035   6.048  0.3670 -0.3529 -0.7901
18955TIP3   OH278279   2.216   0.083  10.385 -0.3777 -0.2398  0.1163
18955TIP3    H178280   2.242   0.006  10.333 -0.4050 -0.4653  0.4326
18955TIP3    H278281   2.276   0.152  10.356 -1.0883 -0.0562 -0.9991
18956TIP3   OH278282   3.909   2.130   5.908  0.0978  0.2174 -0.0241
18956TIP3    H178283   3.890   2.206   5.964 -0.4130  0.8266 -0.9945
18956TIP3    H278284   3.825   2.110   5.866  0.5490 -0.0307 -0.8114
18957TIP3   OH278285   0.892   5.436  15.853  0.3890  0.3615 -0.2546
18957TIP3    H178286   0.911   5.505  15.916  0.3567  1.0714 -1.0002
18957TIP3    H278287   0.860   5.482  15.776 -0.0925 -0.5228 -0.6028
18958TIP3   OH278288   1.989   0.931  13.368  0.4483  0.4814 -0.1226
18958TIP3    H178289   2.032   0.906  13.287 -0.3124 -1.8371  0.1091
18958TIP3    H278290   2.044   0.999  13.405  2.5242 -0.6102 -1.0593
18959TIP3   OH278291   6.333   1.352  15.857 -0.5376  0.0589  0.5472
18959TIP3    H178292   6.257   1.406  15.832 -1.1239 -1.6190 -1.6476
18959TIP3    H278293   6.408   1.410  15.845 -1.1703  0.5713 -1.4097
18960TIP3   OH278294   1.151   4.525  15.148  0.1394 -0.1305  0.2566
18960TIP3    H178295   1.116   4.537  15.060 -0.7837  0.6824  0.7153
18960TIP3    H278296   1.245   4.513  15.135 -0.0113 -0.2202 -0.8495
18961TIP3   OH278297   1.295   2.299   2.375 -0.4654  0.5245 -0.2864
18961TIP3    H178298   1.314   2.307   2.282  0.7194 -2.1649 -0.3608
18961TIP3    H278299   1.377   2.320   2.418  0.1973 -2.0879 -0.1229
18962TIP3   OH278300   0.677   0.861   0.021  0.2044 -0.4446  0.2873
18962TIP3    H178301   0.645   0.822  -0.060 -0.3651 -0.3540  0.4680
18962TIP3    H278302   0.617   0.829   0.089 -0.2484  0.7227  0.4463
18963TIP3   OH278303   3.058   4.124  11.339 -0.0185 -0.3849  0.3361
18963TIP3    H178304   3.058   4.200  11.397  0.2290 -0.7253  0.7897
18963TIP3    H278305   2.966   4.097  11.335 -0.3225  0.7057 -0.8733
18964TIP3   OH278306   4.419   3.572  14.098  0.1171  0.2866 -0.1741
18964TIP3    H178307   4.477   3.497  14.104 -0.8620 -0.4249  0.7710
18964TIP3    H278308   4.445   3.629  14.170  1.1573  1.1138 -1.1566
18965TIP3   OH278309   2.172   0.918   4.190  0.4449  0.2308 -0.0798
18965TIP3    H178310   2.196   1.011   4.188  1.8532 -0.0368  1.7579
18965TIP3    H278311   2.213   0.881   4.111  0.9083  0.9555 -0.1904
18966TIP3   OH278312   0.101   4.044   2.207 -0.0580  0.2063  0.2892
18966TIP3    H178313   0.022   4.074   2.252 -0.9887 -0.6731 -0.7092
18966TIP3    H278314   0.102   3.949   2.220  1.0101  0.2463  0.5613
18967TIP3   OH278315   4.816   0.264   1.521  0.8211  0.2038  0.9851
18967TIP3    H178316   4.845   0.241   1.433 -2.1056 -1.1230  0.2392
18967TIP3    H278317   4.887   0.235   1.578  0.8562 -3.3835 -0.6086
18968TIP3   OH278318   1.219   3.447   5.345 -0.3853 -0.5403 -0.1497
18968TIP3    H178319   1.189   3.514   5.406 -1.4064  1.3775 -2.5947
18968TIP3    H278320   1.305   3.422   5.377 -0.3638  1.2920  1.3864
18969TIP3   OH278321   1.503   6.005  10.928 -0.5502  0.2491  0.4140
18969TIP3    H178322   1.549   6.080  10.968  1.2251  0.5189 -1.9428
18969TIP3    H278323   1.415   6.038  10.910  0.6011  2.3496 -1.8964
18970TIP3   OH278324   5.749   3.518  13.957 -0.0765  0.2459  0.2477
18970TIP3    H178325   5.833   3.564  13.961  1.4232 -2.0198 -2.4707
18970TIP3    H278326   5.691   3.578  13.911  1.3265  0.2152 -1.6466
18971TIP3   OH278327   1.504   6.680   0.490  0.5618 -0.4116  0.6864
18971TIP3    H178328   1.506   6.660   0.583  0.5571  0.9730  1.0175
18971TIP3    H278329   1.577   6.630   0.453  0.7829 -0.7007  1.4940
18972TIP3   OH278330   1.216   6.378  13.775 -0.5124 -0.1802 -0.7245
18972TIP3    H178331   1.129   6.411  13.800  0.0328 -0.2672  1.4456
18972TIP3    H278332   1.266   6.456  13.753 -0.3923  0.1438  0.5989
18973TIP3   OH278333   1.530   1.352  13.844 -0.0821  0.3994  0.0845
18973TIP3    H178334   1.505   1.408  13.770 -3.5301 -1.6473 -0.5396
18973TIP3    H278335   1.525   1.263  13.809  0.3262 -0.5317  2.2451
18974TIP3   OH278336   5.040   2.210  15.374 -0.5587 -0.0406 -0.0595
18974TIP3    H178337   4.995   2.139  15.327  2.2660 -1.6004 -0.6128
18974TIP3    H278338   5.067   2.169  15.457  1.4023  0.2348 -0.5315
18975TIP3   OH278339   3.994   5.605  16.565  0.3585  0.0714  0.5396
18975TIP3    H178340   4.032   5.540  16.624  0.3601 -1.4582 -1.0711
18975TIP3    H278341   3.899   5.597  16.579  0.3638 -0.2290  0.4144
18976TIP3   OH278342   0.407   2.299  11.501 -0.2672 -0.0412 -0.1787
18976TIP3    H178343   0.472   2.369  11.493 -1.2498  1.0844  1.3200
18976TIP3    H278344   0.445   2.238  11.564  0.4719 -0.7563 -1.2863
18977TIP3   OH278345   1.201   0.853   5.466 -0.3777  0.0271 -0.5859
18977TIP3    H178346   1.184   0.926   5.407 -2.6261  1.1479  1.2793
18977TIP3    H278347   1.157   0.778   5.426  0.1010  0.2001 -1.4459
18978TIP3   OH278348   0.655   6.082  16.635 -0.3972  0.1469 -0.5781
18978TIP3    H178349   0.699   6.166  16.619 -1.9966  0.7329 -2.1895
18978TIP3    H278350   0.593   6.102  16.706 -0.0158  0.0344 -0.2090
18979TIP3   OH278351   6.710   4.654   1.350 -0.3966  0.2648  0.3358
18979TIP3    H178352   6.657   4.644   1.271 -1.0371  0.2053  0.7729
18979TIP3    H278353   6.711   4.749   1.366  1.2410  0.4749 -0.7612
18980TIP3   OH278354   4.502   6.466   2.003 -0.0842 -0.0951 -0.6137
18980TIP3    H178355   4.564   6.438   1.935 -0.1833 -0.8402 -0.4030
18980TIP3    H278356   4.526   6.414   2.080 -1.2708 -0.7408 -0.6600
18981TIP3   OH278357   4.566   1.040  12.005  0.0428  0.5644  0.0035
18981TIP3    H178358   4.482   1.065  12.045  0.5724  1.0732  0.8250
18981TIP3    H278359   4.560   1.073  11.915 -1.2784 -0.8426 -0.4640
18982TIP3   OH278360   1.635   3.594   2.951 -0.1780 -0.2985  0.0023
18982TIP3    H178361   1.719   3.634   2.977 -0.5407 -0.3355  1.3147
18982TIP3    H278362   1.596   3.658   2.892 -0.2739  0.8377  1.2472
18983TIP3   OH278363   1.991   4.102   6.310 -0.0038 -0.1935  0.3211
18983TIP3    H178364   2.076   4.129   6.274 -0.4697 -0.4195 -1.0335
18983TIP3    H278365   1.992   4.006   6.303  0.1843 -0.2964  1.6343
18984TIP3   OH278366   3.162   5.395  13.151  0.0888  0.6088 -0.3397
18984TIP3    H178367   3.176   5.486  13.127 -0.2270  1.9102  3.6851
18984TIP3    H278368   3.074   5.375  13.118  0.2816  1.5866 -1.5516
18985TIP3   OH278369   3.965   1.979   3.572 -0.2715 -0.6195 -0.3869
18985TIP3    H178370   3.944   2.057   3.520  1.2749 -0.8454 -1.3975
18985TIP3    H278371   3.993   2.013   3.657  0.1393 -0.0795 -0.7342
18986TIP3   OH278372   4.853   0.959   0.180  0.1818 -0.9322  0.3194
18986TIP3    H178373   4.897   0.876   0.159  0.8901 -0.8948  1.5266
18986TIP3    H278374   4.922   1.013   0.218  0.0110  0.6991 -1.5576
18987TIP3   OH278375   0.584   0.564  13.363  0.4436  0.0244 -0.4169
18987TIP3    H178376   0.493   0.546  13.337 -0.0473  1.7745 -0.1128
18987TIP3    H278377   0.588   0.536  13.454 -0.4644  1.8326  0.2291
18988TIP3   OH278378   4.645   1.170   1.757 -1.0050  0.2298 -0.3437
18988TIP3    H178379   4.613   1.255   1.725  2.5595  1.7920 -0.2899
18988TIP3    H278380   4.586   1.147   1.828 -2.8372  2.0256 -1.1783
18989TIP3   OH278381   3.735   5.564  12.503  0.2440 -0.1134 -0.2567
18989TIP3    H178382   3.817   5.521  12.477 -0.2187 -0.7222 -0.7509
18989TIP3    H278383   3.746   5.585  12.596  1.2003  0.3822 -0.4661
18990TIP3   OH278384   1.647   1.638   4.555 -0.0720 -0.2005  0.8313
18990TIP3    H178385   1.598   1.639   4.472  2.3246 -1.3207 -0.7132
18990TIP3    H278386   1.612   1.563   4.603  1.0063 -1.9047 -0.8987
18991TIP3   OH278387   5.890   4.575   0.294 -0.3692 -0.6069 -0.3551
18991TIP3    H178388   5.866   4.662   0.259 -0.7913  0.1272  1.6121
18991TIP3    H278389   5.984   4.569   0.280 -0.6310 -0.7487 -2.3719
18992TIP3   OH278390   2.308   3.533  13.076 -0.5158 -0.2629 -0.1686
18992TIP3    H178391   2.348   3.516  12.991  0.0184  0.0922  0.0080
18992TIP3    H278392   2.378   3.571  13.129 -0.3249 -2.1572  1.0245
18993TIP3   OH278393   4.155   4.114   3.826  0.2310 -0.4859 -0.3313
18993TIP3    H178394   4.114   4.073   3.750 -0.9841  0.0577 -0.0005
18993TIP3    H278395   4.202   4.189   3.790  0.3053 -0.6794 -0.6406
18994TIP3   OH278396   3.279   5.751  17.117 -0.5674  0.0742  0.2815
18994TIP3    H178397   3.244   5.722  17.201 -0.8645 -0.5111 -0.0441
18994TIP3    H278398   3.363   5.791  17.139 -2.2205  3.3345  1.3622
18995TIP3   OH278399   3.541   5.377   4.574  0.2776 -0.6785  0.5972
18995TIP3    H178400   3.559   5.470   4.566  2.7818 -1.0884  0.5215
18995TIP3    H278401   3.609   5.344   4.633  0.1900 -2.6113 -0.2708
18996TIP3   OH278402   5.361   2.192   5.102  0.0150 -0.2768 -0.0214
18996TIP3    H178403   5.444   2.207   5.055 -0.7650  0.4833 -1.1972
18996TIP3    H278404   5.310   2.137   5.043 -1.1019  0.9415 -0.2135
18997TIP3   OH278405   6.341   3.082   5.088  0.5311 -0.8164 -0.0132
18997TIP3    H178406   6.302   3.169   5.080  0.5811 -0.8878 -1.2429
18997TIP3    H278407   6.378   3.080   5.176 -1.1092 -0.2846  0.7307
18998TIP3   OH278408   1.320   5.723  10.923  0.5543 -0.2762  0.4875
18998TIP3    H178409   1.295   5.633  10.947 -0.4523 -0.0130  0.4895
18998TIP3    H278410   1.380   5.751  10.991  2.0570 -1.4626 -0.2976
18999TIP3   OH278411   4.264   5.899   1.058  0.4091  0.3982 -0.4813
18999TIP3    H178412   4.328   5.896   0.987  1.1993  0.5346  0.2128
18999TIP3    H278413   4.199   5.832   1.034  0.8085  0.2433 -1.1818
19000TIP3   OH278414   0.746   5.234  13.933  0.2417  0.2481 -0.3311
19000TIP3    H178415   0.650   5.231  13.932  0.1053  2.8286 -0.2993
19000TIP3    H278416   0.768   5.301  13.998  2.1542 -1.2649  0.7072
19001TIP3   OH278417   0.576   6.454  11.933  0.3357 -0.4365  0.6728
19001TIP3    H178418   0.621   6.443  11.850 -1.5978  0.3684 -0.5460
19001TIP3    H278419   0.486   6.427  11.916 -0.5093  1.3014  2.0315
19002TIP3   OH278420   1.851   6.773   4.337 -0.2444  0.1562  0.0677
19002TIP3    H178421   1.809   6.698   4.295 -0.6110  0.7544 -0.6566
19002TIP3    H278422   1.856   6.749   4.429 -1.6633 -0.1795  0.0871
19003TIP3   OH278423   1.608   4.523  16.405 -0.0635 -0.1919  0.4850
19003TIP3    H178424   1.664   4.584  16.453 -0.3755  0.1830  0.3755
19003TIP3    H278425   1.570   4.575  16.335 -0.4839 -0.4673  0.5080
19004TIP3   OH278426   3.080   6.146  16.045 -0.2805  0.3946  0.3620
19004TIP3    H178427   3.121   6.093  16.113 -2.2241 -1.2561  0.3429
19004TIP3    H278428   3.088   6.094  15.965  1.7961  2.2216 -0.7158
19005TIP3   OH278429   0.197   5.658   2.334  0.9679 -0.3488  0.1161
19005TIP3    H178430   0.111   5.649   2.293  0.7734  0.1916  0.3994
19005TIP3    H278431   0.181   5.643   2.427  0.9065  1.2574  0.3787
19006TIP3   OH278432   2.121   1.694  16.711 -0.0645 -0.2654 -0.3197
19006TIP3    H178433   2.029   1.714  16.725  0.1973  0.1143  0.9816
19006TIP3    H278434   2.158   1.775  16.676  0.2203  0.3832  1.3686
19007TIP3   OH278435   5.216   0.535   4.624 -0.4206  0.8282  0.4928
19007TIP3    H178436   5.224   0.615   4.571 -2.1008  0.8174  0.1838
19007TIP3    H278437   5.283   0.477   4.589  1.6132  2.4423  1.4313
19008TIP3   OH278438   6.462   3.501   2.044 -0.1549 -0.4886 -0.5236
19008TIP3    H178439   6.374   3.537   2.048  0.1521  0.1855  0.7335
19008TIP3    H278440   6.483   3.478   2.134  0.5698 -1.6234 -0.9554
19009TIP3   OH278441   1.086   4.474   2.027 -0.2863  0.2252  0.2538
19009TIP3    H178442   1.010   4.415   2.032 -0.2097  0.1847  0.9476
19009TIP3    H278443   1.101   4.502   2.117  1.2810 -0.7225  0.3224
19010TIP3   OH278444   3.188   6.508  11.417 -0.1138  0.6957 -0.5257
19010TIP3    H178445   3.271   6.543  11.384 -0.3553  0.1556 -1.7766
19010TIP3    H278446   3.175   6.427  11.368 -0.6121 -0.0597  0.7907
19011TIP3   OH278447   0.439   2.165  14.952  0.2405 -0.0725 -0.4825
19011TIP3    H178448   0.349   2.176  14.983  0.5726 -0.0739  0.5058
19011TIP3    H278449   0.430   2.145  14.859 -0.7293  0.8900 -0.6108
19012TIP3   OH278450   1.796   6.391   2.424 -0.4854  0.1502 -0.1123
19012TIP3    H178451   1.811   6.351   2.510 -0.9652  0.9177  0.3367
19012TIP3    H278452   1.718   6.346   2.390  0.3523 -0.9569 -0.6676
19013TIP3   OH278453   5.424   0.583   5.360 -0.0621 -0.4171 -0.0596
19013TIP3    H178454   5.433   0.540   5.445  0.8955 -0.9456 -0.4110
19013TIP3    H278455   5.344   0.635   5.368 -0.1845 -0.7396  1.0372
19014TIP3   OH278456   2.418   3.994   2.249 -0.0082  0.3045 -0.3848
19014TIP3    H178457   2.387   3.967   2.162 -0.4636  1.0811 -0.4694
19014TIP3    H278458   2.361   3.947   2.310 -2.2389  2.6024 -0.5366
19015TIP3   OH278459   4.844   5.288  12.806  0.3956 -0.0923  0.6929
19015TIP3    H178460   4.828   5.356  12.872  2.1226  0.3108  0.7407
19015TIP3    H278461   4.786   5.216  12.832  1.5340 -0.2492  3.1326
19016TIP3   OH278462   0.384   1.741  13.273  0.2796 -0.1678  0.3367
19016TIP3    H178463   0.363   1.805  13.205  0.7686 -0.0205  0.3221
19016TIP3    H278464   0.476   1.721  13.260  0.5738  0.3882  1.3904
19017TIP3   OH278465   0.566   5.351   3.327 -0.4931 -0.8443  0.3609
19017TIP3    H178466   0.571   5.446   3.343  0.0544 -0.3819 -2.1073
19017TIP3    H278467   0.569   5.312   3.414 -0.9648  1.4125  1.4656
19018TIP3   OH278468   1.346   1.884   3.082 -0.2819 -0.7295 -0.0152
19018TIP3    H178469   1.365   1.918   3.169 -0.2532 -1.5946  0.3166
19018TIP3    H278470   1.258   1.848   3.088  0.3261 -2.2456  0.1019
19019TIP3   OH278471   2.120   3.981  16.996  0.2195  0.6227 -0.3464
19019TIP3    H178472   2.032   3.990  16.960 -0.3439  1.8801  1.2500
19019TIP3    H278473   2.109   3.932  17.077  0.9785  0.7772 -0.1371
19020TIP3   OH278474   2.322   2.407  11.854 -0.6473 -0.1273 -0.1009
19020TIP3    H178475   2.343   2.382  11.764 -1.4935 -1.0337 -0.0663
19020TIP3    H278476   2.227   2.420  11.853 -0.9928 -2.1762  1.1017
19021TIP3   OH278477   3.031   6.241   1.149  0.4322  0.3561 -0.3743
19021TIP3    H178478   2.950   6.192   1.136 -0.9974  1.8853  2.0968
19021TIP3    H278479   3.003   6.327   1.180  2.9313 -0.0997  3.9808
19022TIP3   OH278480   6.493   6.359   0.485 -0.3178 -0.3474 -0.1810
19022TIP3    H178481   6.495   6.264   0.498  0.1290 -0.3055  0.0719
19022TIP3    H278482   6.585   6.386   0.491 -0.4674  0.1335 -0.0035
19023TIP3   OH278483   3.876   5.664  11.882 -0.7029  0.2133 -0.3105
19023TIP3    H178484   3.891   5.663  11.788  1.6331  1.6396 -0.0331
19023TIP3    H278485   3.914   5.583  11.914 -1.5125 -0.2799 -0.5793
19024TIP3   OH278486   4.312   5.166  15.629 -0.2909  1.3310  0.0955
19024TIP3    H178487   4.246   5.135  15.691 -1.1702 -0.0360 -1.4528
19024TIP3    H278488   4.275   5.149  15.543  2.6240 -0.8825 -0.8970
19025TIP3   OH278489   0.564   3.502  16.020  0.5136 -0.3519  0.5760
19025TIP3    H178490   0.543   3.423  15.971 -0.1205 -0.8582  1.6365
19025TIP3    H278491   0.657   3.495  16.040  0.8325 -0.0414 -0.7000
19026TIP3   OH278492   6.523   4.528  12.398 -0.2132 -0.0917  0.5556
19026TIP3    H178493   6.611   4.545  12.364 -0.4682  1.3480  0.5262
19026TIP3    H278494   6.512   4.434  12.390  0.6848 -0.1062 -1.0436
19027TIP3   OH278495   2.989   0.555  15.830  0.0643 -0.0520 -0.2722
19027TIP3    H178496   2.907   0.602  15.840 -0.2225 -0.5456 -0.2872
19027TIP3    H278497   2.991   0.529  15.738  0.7292  0.8557 -0.5303
19028TIP3   OH278498   4.203   4.193   2.258 -0.0726  0.0669 -0.0190
19028TIP3    H178499   4.143   4.168   2.327 -0.6227 -0.1054 -0.5520
19028TIP3    H278500   4.288   4.203   2.302 -0.7026  1.4388  0.9508
19029TIP3   OH278501   1.725   0.181   5.061 -0.2377 -0.0268 -0.4305
19029TIP3    H178502   1.798   0.159   5.002  0.6173 -0.6184  0.7999
19029TIP3    H278503   1.761   0.247   5.120 -0.8708  0.0727 -0.1464
19030TIP3   OH278504   5.047   1.353  16.593  0.3161 -0.0003 -0.1242
19030TIP3    H178505   5.056   1.304  16.675  0.9633 -2.5373 -1.6009
19030TIP3    H278506   5.134   1.391  16.578  0.2938  0.1727  0.1811
19031TIP3   OH278507   1.607   1.127  16.800  0.2743 -0.0401  0.0965
19031TIP3    H178508   1.574   1.067  16.868  0.5622 -0.8757 -0.4966
19031TIP3    H278509   1.679   1.080  16.759 -1.1377 -0.4049 -2.1339
19032TIP3   OH278510   5.565   3.605   4.914 -0.0702  0.1869  0.3593
19032TIP3    H178511   5.562   3.700   4.910  0.4486  0.2194  0.6844
19032TIP3    H278512   5.498   3.581   4.979  0.8793  0.4209  1.4365
19033TIP3   OH278513   3.534   4.155   5.163  0.4969  0.3490  0.4068
19033TIP3    H178514   3.512   4.095   5.234 -1.1871  0.5595  0.1056
19033TIP3    H278515   3.478   4.231   5.178  0.6466  0.7026 -0.7293
19034TIP3   OH278516   3.918   2.622  16.025 -0.3410 -0.4556 -0.0274
19034TIP3    H178517   3.860   2.607  16.099 -0.6182 -1.4565 -0.4295
19034TIP3    H278518   3.868   2.593  15.949  0.4001 -0.6041 -0.4693
19035TIP3   OH278519   5.673   0.425  13.121 -0.1493  0.2937  0.0143
19035TIP3    H178520   5.637   0.494  13.177 -1.9019  0.5016 -1.2779
19035TIP3    H278521   5.757   0.460  13.091 -0.1897  1.0963  0.7896
19036TIP3   OH278522   2.767   0.771   2.526 -0.3776 -0.0028 -0.9309
19036TIP3    H178523   2.737   0.845   2.579 -0.1379  0.9748 -2.0939
19036TIP3    H278524   2.703   0.765   2.455 -1.1815 -1.8424 -0.1271
19037TIP3   OH278525   1.341   4.344  12.394  0.2690 -0.0806  0.5261
19037TIP3    H178526   1.282   4.357  12.468  1.2032  0.5578  1.1835
19037TIP3    H278527   1.418   4.301  12.431  1.4555  1.7072  0.3008
19038TIP3   OH278528   1.519   6.019  16.999 -0.2122  0.1047  0.0735
19038TIP3    H178529   1.552   5.955  16.936  1.4427  1.3390 -0.3526
19038TIP3    H278530   1.501   6.097  16.947  0.1771  0.7987  0.9602
19039TIP3   OH278531   5.853   1.252   4.024  0.9472 -0.2016 -0.1267
19039TIP3    H178532   5.776   1.268   4.078  0.9240 -0.2272 -0.1522
19039TIP3    H278533   5.818   1.217   3.942  0.7502  2.2775 -1.2027
19040TIP3   OH278534   1.177   2.442   1.085  0.1887  0.3290  0.0554
19040TIP3    H178535   1.108   2.428   1.150 -0.0237 -3.3651 -0.7672
19040TIP3    H278536   1.258   2.424   1.133  0.0871 -1.5171 -0.3902
19041TIP3   OH278537   4.644   3.635  11.928  0.2657 -0.4198 -0.2086
19041TIP3    H178538   4.599   3.636  12.013  0.3266 -1.1750 -0.1628
19041TIP3    H278539   4.585   3.586  11.870 -0.1087  0.7065 -0.7987
19042TIP3   OH278540   3.505   0.222   2.416 -0.5899  0.0619 -0.0439
19042TIP3    H178541   3.560   0.299   2.433 -0.1380 -0.2001 -0.2768
19042TIP3    H278542   3.549   0.151   2.463 -0.4141 -0.2663 -0.6981
19043TIP3   OH278543   5.402   2.619  11.505 -0.2308 -0.2968  0.3754
19043TIP3    H178544   5.400   2.701  11.456 -0.3975  1.1112  2.6454
19043TIP3    H278545   5.359   2.556  11.447 -0.8008  1.3712 -1.1080
19044TIP3   OH278546   2.907   2.920   1.594 -0.3181  0.2586  0.2137
19044TIP3    H178547   2.905   2.910   1.689  1.2091 -0.2048  0.2248
19044TIP3    H278548   3.000   2.926   1.572 -0.6433  0.5525 -1.2417
19045TIP3   OH278549   0.989   6.108   5.253  0.0627 -0.0536 -0.0957
19045TIP3    H178550   1.052   6.158   5.202 -0.9309 -1.5169 -3.0124
19045TIP3    H278551   0.904   6.127   5.213 -0.3314 -4.2921 -1.8958
19046TIP3   OH278552   2.718   3.666  14.589 -0.1972 -0.4600  0.7651
19046TIP3    H178553   2.682   3.577  14.580 -3.1425  0.4553  2.1718
19046TIP3    H278554   2.782   3.659  14.660  0.3535 -1.6330  0.1765
19047TIP3   OH278555   0.956   4.180   2.213  0.0715  0.5099  0.1446
19047TIP3    H178556   0.960   4.174   2.309 -1.1771 -1.4696  0.1281
19047TIP3    H278557   0.921   4.268   2.196 -2.2317 -0.0258  1.6475
19048TIP3   OH278558   5.879   0.585   5.568  0.0373  0.0540 -0.1403
19048TIP3    H178559   5.944   0.531   5.612  0.8362  0.6502 -0.5677
19048TIP3    H278560   5.918   0.606   5.483 -1.3269 -0.8085 -1.0418
19049TIP3   OH278561   4.711   0.283  13.299  0.3740  0.6101 -0.0139
19049TIP3    H178562   4.657   0.259  13.374 -0.3534  0.6876 -0.5025
19049TIP3    H278563   4.780   0.217  13.297  0.4624  0.6667  0.7772
19050TIP3   OH278564   1.648   5.864   0.797 -0.0155  0.1263  0.5128
19050TIP3    H178565   1.649   5.771   0.820  0.5475  0.0739  0.3003
19050TIP3    H278566   1.592   5.869   0.719  1.5839 -0.3588 -0.7299
19051TIP3   OH278567   3.442   6.597   0.986 -0.7787  0.3049 -0.4790
19051TIP3    H178568   3.446   6.669   1.048 -0.2042 -1.6387  1.8976
19051TIP3    H278569   3.363   6.614   0.934 -1.7486  1.6218  1.3290
19052TIP3   OH278570   4.261   4.650  13.663  0.6105  0.0995  0.7172
19052TIP3    H178571   4.354   4.671  13.661  0.9679 -1.3140  1.1213
19052TIP3    H278572   4.228   4.678  13.577  1.5077  0.1940  0.3970
19053TIP3   OH278573   6.180   0.370   4.484  0.3995  0.5746 -0.1726
19053TIP3    H178574   6.272   0.394   4.478  0.4076  0.4635 -0.5247
19053TIP3    H278575   6.137   0.449   4.516  0.6156  0.6270 -0.0065
19054TIP3   OH278576   1.408   2.558  13.068 -0.7375 -0.5816  0.1493
19054TIP3    H178577   1.442   2.617  13.001 -0.3026 -0.5352  0.3996
19054TIP3    H278578   1.327   2.523  13.032 -1.1280  0.3560  0.0935
19055TIP3   OH278579   5.692   5.897  11.728  0.3558  0.0409  0.0465
19055TIP3    H178580   5.675   5.830  11.793 -0.2083 -0.3844 -0.5192
19055TIP3    H278581   5.683   5.980  11.775  0.0770 -0.2630  0.5325
19056TIP3   OH278582   2.845   5.261   3.548  0.3589 -0.0844  0.4065
19056TIP3    H178583   2.935   5.284   3.521 -0.5176  2.5484 -0.6692
19056TIP3    H278584   2.853   5.236   3.640  2.0327  1.6234  0.7944
19057TIP3   OH278585   1.377   2.581   4.540  0.2285 -0.4883 -0.1001
19057TIP3    H178586   1.455   2.525   4.531 -0.3422 -1.2795 -0.2482
19057TIP3    H278587   1.381   2.640   4.465 -0.1753 -1.6309 -1.0491
19058TIP3   OH278588   2.884   1.307   3.499 -0.5565  0.1963  0.6429
19058TIP3    H178589   2.833   1.296   3.579  0.4496 -0.3597  1.2104
19058TIP3    H278590   2.856   1.235   3.442 -0.7629  0.1883  0.7542
19059TIP3   OH278591   5.892   1.723   4.684 -0.1351 -0.3175 -0.5472
19059TIP3    H178592   5.805   1.692   4.710  0.4505  0.2194  2.3893
19059TIP3    H278593   5.911   1.795   4.745  2.7687 -1.0763 -0.4221
19060TIP3   OH278594   2.483   1.077   1.772  0.1977  0.3976  0.0818
19060TIP3    H178595   2.425   1.005   1.800 -1.1946  2.0267  1.6707
19060TIP3    H278596   2.546   1.085   1.844 -0.1892  1.2718  0.3424
19061TIP3   OH278597   6.678   4.489   5.578 -0.3187 -0.4105 -0.6223
19061TIP3    H178598   6.595   4.497   5.531 -0.9542 -1.6349  0.2150
19061TIP3    H278599   6.742   4.465   5.511 -1.3225 -2.7099 -0.8431
19062TIP3   OH278600   2.952   0.956  11.564 -0.0777 -0.7342  0.0188
19062TIP3    H178601   2.890   0.901  11.516 -0.4384 -1.2435  1.0377
19062TIP3    H278602   2.898   1.026  11.601  0.2453 -0.1740 -0.5472
19063TIP3   OH278603   5.988   4.176   3.471  0.0478  0.7272 -0.5329
19063TIP3    H178604   5.932   4.219   3.406  0.2045  0.8612 -0.5815
19063TIP3    H278605   6.077   4.191   3.439  0.0904  0.1059 -0.7061
19064TIP3   OH278606   5.741   6.511  16.649  0.0496  0.0873 -0.2747
19064TIP3    H178607   5.654   6.474  16.632  0.6901 -1.0490 -1.1780
19064TIP3    H278608   5.801   6.437  16.642  1.1738  0.9685 -0.2757
19065TIP3   OH278609   2.156   3.914   2.566  0.1220  0.0155 -0.4136
19065TIP3    H178610   2.106   3.981   2.519  0.3577  1.0330  0.7315
19065TIP3    H278611   2.207   3.963   2.631  1.1494 -1.1808 -0.2767
19066TIP3   OH278612   3.146   1.779   1.324  0.1246 -0.5733  0.5828
19066TIP3    H178613   3.163   1.843   1.393 -0.8558  0.8272 -0.3911
19066TIP3    H278614   3.183   1.819   1.245 -1.5357 -0.6204 -0.2628
19067TIP3   OH278615   4.163   4.060  11.555 -0.3588  0.1330  0.1349
19067TIP3    H178616   4.157   4.149  11.590  0.4094  0.8123 -1.3396
19067TIP3    H278617   4.161   4.003  11.632 -1.7722  1.3641  1.0560
19068TIP3   OH278618   3.989   0.178   2.807 -0.0644 -0.1665 -0.6681
19068TIP3    H178619   3.910   0.231   2.819 -0.8057 -1.3784 -0.1110
19068TIP3    H278620   3.959   0.101   2.759  0.6526 -0.9683  0.1564
19069TIP3   OH278621   2.191   4.676  14.553  0.0077  0.1606 -0.8069
19069TIP3    H178622   2.163   4.703  14.640  0.7855  1.7458 -1.0277
19069TIP3    H278623   2.233   4.591  14.567  1.4755  1.0643  0.6224
19070TIP3   OH278624   1.817   0.903   1.396 -0.4876  0.1798  0.9281
19070TIP3    H178625   1.774   0.858   1.323  0.1306 -0.1361  0.7588
19070TIP3    H278626   1.885   0.843   1.425  1.6177  1.7391 -0.5163
19071TIP3   OH278627   5.696   5.472   4.662  0.1616  0.0876 -0.0008
19071TIP3    H178628   5.752   5.475   4.584 -2.0003 -0.1663 -1.6674
19071TIP3    H278629   5.668   5.562   4.675 -1.5394 -0.2091 -1.1962
19072TIP3   OH278630   1.298   6.627  11.013 -0.4441  0.2905  0.4385
19072TIP3    H178631   1.252   6.688  10.956  0.4920 -0.7775 -1.6025
19072TIP3    H278632   1.245   6.547  11.011 -0.3209  0.1893  0.9679
19073TIP3   OH278633   6.664   3.808  16.005 -0.2924 -0.2635 -0.6794
19073TIP3    H178634   6.756   3.826  16.023 -0.0725 -1.7244 -0.1733
19073TIP3    H278635   6.661   3.713  15.989 -1.4328  0.0238 -2.4825
19074TIP3   OH278636   5.116   2.691  12.415  0.3804 -0.2186  0.1804
19074TIP3    H178637   5.065   2.619  12.453  2.0818 -1.6056 -0.0548
19074TIP3    H278638   5.078   2.770  12.454 -0.8915 -1.2856  1.2160
19075TIP3   OH278639   5.614   0.692   0.559 -0.0210  0.5976  0.3420
19075TIP3    H178640   5.705   0.663   0.563  0.3435  1.6140 -0.1660
19075TIP3    H278641   5.589   0.682   0.467 -0.0785  1.2818  0.2751
19076TIP3   OH278642   3.786   6.214   2.093  0.4161 -0.2155  0.3571
19076TIP3    H178643   3.780   6.286   2.156 -1.1984  1.9266 -2.0208
19076TIP3    H278644   3.701   6.170   2.099  0.0185  0.3834 -0.7017
19077TIP3   OH278645   5.969   1.475   5.499  0.0593 -0.1706  0.2974
19077TIP3    H178646   5.956   1.489   5.592 -0.8795 -2.9007  0.6934
19077TIP3    H278647   6.063   1.486   5.485  0.1299  0.8324  1.4272
19078TIP3   OH278648   4.138   3.907  14.772 -0.5252  0.7534 -0.4919
19078TIP3    H178649   4.209   3.889  14.833 -0.8680 -0.9881 -0.5486
19078TIP3    H278650   4.181   3.923  14.689 -0.1680  0.1328 -0.4310
19079TIP3   OH278651   1.575   3.241  16.620  0.1590 -0.4412 -0.0692
19079TIP3    H178652   1.561   3.290  16.540 -0.3911  0.8589  0.7867
19079TIP3    H278653   1.642   3.290  16.668 -0.6531 -0.2956  0.9612
19080TIP3   OH278654   0.039   5.141  12.462 -0.2049  0.3512  0.2678
19080TIP3    H178655   0.071   5.058  12.497 -0.3281  0.4245  0.5597
19080TIP3    H278656   0.032   5.127  12.368 -3.1581 -0.9894  0.5811
19081TIP3   OH278657   3.624   3.082   1.179  0.0067  0.3820 -0.1756
19081TIP3    H178658   3.676   3.003   1.165  0.4624  0.5596  0.4309
19081TIP3    H278659   3.682   3.154   1.155 -0.5738  0.5216 -1.1972
19082TIP3   OH278660   0.901   1.591   0.994 -0.3071  0.4537  0.2852
19082TIP3    H178661   0.960   1.577   0.919 -0.7342 -0.6547  0.1375
19082TIP3    H278662   0.959   1.589   1.070 -0.4003 -4.1923  0.4950
19083TIP3   OH278663   2.370   1.923   4.987 -0.4824  0.4389  0.0532
19083TIP3    H178664   2.310   1.956   5.054  1.5320 -1.3451  2.9548
19083TIP3    H278665   2.351   1.829   4.982  1.1395  0.0876  0.0505
19084TIP3   OH278666   2.150   0.744   2.327 -0.1273 -0.0813  0.0700
19084TIP3    H178667   2.166   0.716   2.417 -0.1445 -0.7543 -0.1315
19084TIP3    H278668   2.205   0.821   2.315 -0.2569  0.1183  0.7096
19085TIP3   OH278669   6.393   3.897  12.772 -0.5603 -0.4985  0.1356
19085TIP3    H178670   6.400   3.964  12.840  2.1371 -0.1223 -0.3858
19085TIP3    H278671   6.392   3.814  12.819  0.9429 -0.2264  0.6951
19086TIP3   OH278672   5.234   1.873   0.677 -0.0819  0.4319  0.2473
19086TIP3    H178673   5.160   1.850   0.620 -1.6317  2.5434  1.2535
19086TIP3    H278674   5.311   1.865   0.621 -1.1938 -0.6610 -1.2030
19087TIP3   OH278675   4.105   1.496   1.419  0.7491 -0.7503 -0.4855
19087TIP3    H178676   4.113   1.436   1.345  0.4814 -1.1535 -0.1940
19087TIP3    H278677   4.016   1.531   1.412  0.8748 -0.4588 -0.6048
19088TIP3   OH278678   1.022   0.898   3.249 -0.1903 -0.1241  0.1212
19088TIP3    H178679   1.039   0.804   3.255  1.6463  0.1957  0.4638
19088TIP3    H278680   1.074   0.927   3.174 -0.4361  0.6753  0.2509
19089TIP3   OH278681   4.742   6.034   2.303 -0.0985  0.1826  0.2422
19089TIP3    H178682   4.652   6.065   2.298  0.2481  1.1415 -0.1970
19089TIP3    H278683   4.743   5.976   2.379 -1.1028  0.0858  0.1949
19090TIP3   OH278684   5.726   4.979  13.614 -0.2265 -0.0538  0.5369
19090TIP3    H178685   5.775   5.025  13.682  2.2496 -1.9830  0.1653
19090TIP3    H278686   5.677   4.912  13.662  0.8501 -0.8573  0.5485
19091TIP3   OH278687   0.347   2.337  13.014  0.1074  0.0646  0.1043
19091TIP3    H178688   0.297   2.290  12.948 -0.5603  1.5878 -0.5056
19091TIP3    H278689   0.369   2.270  13.079  0.6316 -1.4454 -1.5307
19092TIP3   OH278690   4.440   0.309  14.208  0.6221 -0.5123  0.8559
19092TIP3    H178691   4.475   0.384  14.256  0.3681 -0.0965  0.4004
19092TIP3    H278692   4.363   0.344  14.162  2.1761 -0.2613 -1.7503
19093TIP3   OH278693   2.543   0.687  13.020  0.2536  0.5625 -0.2569
19093TIP3    H178694   2.632   0.681  13.055  0.2501  2.1191  0.0455
19093TIP3    H278695   2.541   0.620  12.951  1.8643  0.9091 -0.6887
19094TIP3   OH278696   4.012   3.127   5.099  0.1753  0.1957  0.8008
19094TIP3    H178697   4.023   3.164   5.186  0.6115 -0.9344  1.2498
19094TIP3    H278698   4.053   3.191   5.040  0.4040  0.6879  1.4834
19095TIP3   OH278699   6.474   0.209  12.070  0.8132 -0.5387  0.1717
19095TIP3    H178700   6.451   0.178  11.982 -0.3537  0.6122  0.0282
19095TIP3    H278701   6.567   0.191  12.078  0.8258 -1.1938 -1.0807
19096TIP3   OH278702   0.793   6.152  14.985 -0.1551  0.2277  0.1684
19096TIP3    H178703   0.845   6.072  14.999 -0.6499 -0.3682 -1.1390
19096TIP3    H278704   0.841   6.220  15.031  1.5907 -0.3841 -0.6531
19097TIP3   OH278705   5.162   2.316  15.760 -0.0274  0.1969 -0.0505
19097TIP3    H178706   5.148   2.325  15.855 -1.8371 -0.2981 -0.2393
19097TIP3    H278707   5.255   2.295  15.752  0.4834  1.5811  1.5133
19098TIP3   OH278708   4.591   4.544  15.412  0.3664 -0.0876  0.0380
19098TIP3    H178709   4.654   4.580  15.473  0.4310  0.2124 -0.2039
19098TIP3    H278710   4.592   4.605  15.338  0.0528 -0.2706 -0.1178
19099TIP3   OH278711   0.277   0.934  11.857  0.2763  0.1562  0.4273
19099TIP3    H178712   0.210   0.979  11.908  0.9632  2.3414 -0.4847
19099TIP3    H278713   0.356   0.984  11.872  0.5766  0.7142 -2.4648
19100TIP3   OH278714   3.333   6.112   3.384  0.4806 -0.2883  0.7102
19100TIP3    H178715   3.284   6.066   3.316 -0.3947  0.8512  0.5300
19100TIP3    H278716   3.353   6.045   3.450  1.3943 -1.4320 -0.6745
19101TIP3   OH278717   2.863   5.760   0.569 -0.0412 -0.3747 -0.1282
19101TIP3    H178718   2.915   5.751   0.650 -0.2107  0.4828  0.0922
19101TIP3    H278719   2.788   5.813   0.595 -1.1651 -1.7795 -0.3981
19102TIP3   OH278720   0.190   0.605  12.655  0.4982 -0.3671 -0.2799
19102TIP3    H178721   0.106   0.645  12.632 -0.1604 -0.4127  1.7936
19102TIP3    H278722   0.186   0.517  12.619  0.6873  0.3893 -2.2555
19103TIP3   OH278723   6.702   1.474  15.845  0.3627  0.3350  0.5633
19103TIP3    H178724   6.745   1.400  15.887  2.0644  0.0090 -1.5407
19103TIP3    H278725   6.762   1.548  15.859 -1.3829  1.4441  2.7700
19104TIP3   OH278726   3.498   3.189  15.233  0.1997  0.2341  0.2709
19104TIP3    H178727   3.533   3.244  15.303  1.2473 -0.0681  0.0078
19104TIP3    H278728   3.529   3.230  15.152  0.9371 -0.6596  0.0684
19105TIP3   OH278729   3.937   2.778  11.075  0.0774  0.3870 -0.6293
19105TIP3    H178730   3.862   2.725  11.048  0.7203 -0.7047 -0.3384
19105TIP3    H278731   3.993   2.781  10.998  0.8885 -0.9038 -0.1214
19106TIP3   OH278732   5.130   5.276   4.766  0.1414 -0.7555 -0.1612
19106TIP3    H178733   5.121   5.234   4.852  0.9520 -2.2715 -0.7719
19106TIP3    H278734   5.191   5.348   4.781  2.6406 -2.7649  0.0507
19107TIP3   OH278735   2.952   5.550  15.281  0.0539  0.1191 -0.5434
19107TIP3    H178736   3.023   5.496  15.315 -0.9688 -1.8031 -1.3363
19107TIP3    H278737   2.989   5.590  15.202  1.0527  1.2359  0.4440
19108TIP3   OH278738   0.021   1.464   5.922 -0.1321  0.6043 -0.1971
19108TIP3    H178739  -0.045   1.438   5.986  0.3705 -0.2894 -0.0168
19108TIP3    H278740   0.105   1.444   5.965  0.2191  0.3759 -0.9687
19109TIP3   OH278741   5.819   5.403   2.916  0.1109  0.4558  0.2044
19109TIP3    H178742   5.744   5.345   2.908 -1.1336  1.9060  0.8863
19109TIP3    H278743   5.870   5.388   2.836  0.3371 -2.1841  0.7604
19110TIP3   OH278744   0.072   3.632   1.691  0.8507  0.7135 -0.0350
19110TIP3    H178745   0.068   3.653   1.784  0.8204  2.0483 -0.3070
19110TIP3    H278746   0.067   3.537   1.687  1.5511  0.5965  1.3610
19111TIP3   OH278747   2.643   3.111   0.716  0.0712 -0.0644  0.6907
19111TIP3    H178748   2.737   3.092   0.708  0.2448  1.2049 -1.0474
19111TIP3    H278749   2.641   3.200   0.753 -0.4509 -0.0930  0.7290
19112TIP3   OH278750   4.976   0.043  13.634  0.0141 -0.4012  0.5121
19112TIP3    H178751   4.951  -0.034  13.686  0.5676  0.4708  2.1590
19112TIP3    H278752   5.071   0.036  13.625 -0.3057 -2.0602 -3.0145
19113TIP3   OH278753   1.184   1.894   0.069  0.4736  0.8020  0.2111
19113TIP3    H178754   1.235   1.834   0.124  0.6029  0.8107  0.1014
19113TIP3    H278755   1.193   1.979   0.112 -0.0554  0.6637  0.5981
19114TIP3   OH278756   3.436   1.869   2.456 -0.4201 -0.7268 -0.0976
19114TIP3    H178757   3.525   1.835   2.457 -0.4152 -0.7058  0.0777
19114TIP3    H278758   3.429   1.913   2.371 -0.5206 -1.4155 -0.4560
19115TIP3   OH278759   2.617   1.548   6.553  0.2932 -0.1860 -0.4809
19115TIP3    H178760   2.538   1.553   6.607  0.6514  3.0235 -0.0295
19115TIP3    H278761   2.656   1.464   6.574 -0.1465  0.4190  3.5236
19116TIP3   OH278762   6.017   4.048  15.407 -0.1547 -0.0884 -0.3187
19116TIP3    H178763   6.052   4.111  15.344 -1.1986  0.0123 -0.8289
19116TIP3    H278764   6.045   4.081  15.492 -0.5331  0.9828 -0.5901
19117TIP3   OH278765   2.467   0.833  16.214  0.1325 -0.3185  0.5177
19117TIP3    H178766   2.498   0.840  16.304 -0.6821  0.4302  0.7563
19117TIP3    H278767   2.403   0.904  16.205 -1.2577 -1.5909 -0.0350
19118TIP3   OH278768   0.481   2.418  15.631 -0.1008 -0.0603  0.5616
19118TIP3    H178769   0.548   2.480  15.601  0.1121 -0.6448 -0.2159
19118TIP3    H278770   0.476   2.432  15.725 -0.3216  1.3949  0.3543
19119TIP3   OH278771   4.216   0.605   1.808 -0.1097 -0.4026  0.2203
19119TIP3    H178772   4.263   0.649   1.880  0.3396 -1.3421  0.5122
19119TIP3    H278773   4.279   0.600   1.737  0.0783 -1.1969  0.4322
19120TIP3   OH278774   6.312   4.712   3.015  0.0163  0.0798 -0.3005
19120TIP3    H178775   6.393   4.709   3.065  0.5618  2.2132 -0.9310
19120TIP3    H278776   6.266   4.789   3.049  0.0122  1.0889 -2.4143
19121TIP3   OH278777   5.136   6.483  17.094 -0.6755  0.2897  0.0205
19121TIP3    H178778   5.206   6.498  17.032 -0.0694 -3.5175 -0.5005
19121TIP3    H278779   5.177   6.492  17.180 -0.1539  0.5047 -0.2486
19122TIP3   OH278780   4.066   6.254   2.160 -0.1784  0.3392  0.4216
19122TIP3    H178781   4.110   6.314   2.099  2.1575 -1.6608 -0.0085
19122TIP3    H278782   4.013   6.197   2.104  0.9302 -0.6470  0.3337
19123TIP3   OH278783   6.586   0.852  12.733  0.0844 -0.5662 -0.0442
19123TIP3    H178784   6.547   0.799  12.663  0.9056  0.2970 -1.1876
19123TIP3    H278785   6.562   0.942  12.710  1.2328 -0.1813  0.2041
19124TIP3   OH278786   3.977   1.014   1.996 -0.6904  0.5966  0.3035
19124TIP3    H178787   3.976   1.043   1.904  0.9753  0.6421  0.2746
19124TIP3    H278788   3.951   0.921   1.992  0.5926  0.2497 -0.3709
19125TIP3   OH278789   3.345   3.340  15.854 -0.3394 -0.1966 -0.3086
19125TIP3    H178790   3.319   3.282  15.925 -0.9163 -0.6346 -0.8639
19125TIP3    H278791   3.278   3.409  15.854  0.4674  0.6103  0.4939
19126TIP3   OH278792   3.913   4.806   5.056 -0.1153  0.5792 -0.4027
19126TIP3    H178793   3.847   4.858   5.009 -0.3477  1.1064  0.4854
19126TIP3    H278794   3.862   4.739   5.102 -0.2900  2.0786  1.7562
19127TIP3   OH278795   1.263   6.458   2.394  0.4196  0.2736 -0.2088
19127TIP3    H178796   1.294   6.514   2.323 -1.5234  0.3397 -1.0814
19127TIP3    H278797   1.239   6.376   2.351  0.1378 -0.0468  0.5341
19128TIP3   OH278798   3.806   1.082   0.898 -0.5165 -0.3231  0.2459
19128TIP3    H178799   3.772   1.004   0.855 -0.5552 -0.2479  0.1404
19128TIP3    H278800   3.777   1.074   0.989  1.4971 -1.6543  0.8516
19129TIP3   OH278801   1.436   5.905   2.151 -1.1866 -0.2701 -0.0917
19129TIP3    H178802   1.488   5.925   2.229 -0.7065  0.6821 -0.6432
19129TIP3    H278803   1.469   5.820   2.121 -0.5553 -0.0834  0.0676
19130TIP3   OH278804   2.353   6.386   3.304 -0.2436  0.1170 -0.4380
19130TIP3    H178805   2.374   6.401   3.212 -2.7782 -1.2806 -1.3355
19130TIP3    H278806   2.354   6.473   3.344  1.1624  0.7148 -1.6873
19131TIP3   OH278807   1.543   5.545  13.664  0.2971  0.6874 -0.0970
19131TIP3    H178808   1.583   5.623  13.704  0.3565  0.5419  0.1266
19131TIP3    H278809   1.597   5.472  13.695 -0.1957  0.4782  0.2724
19132TIP3   OH278810   1.510   1.420   3.721  0.3261 -0.1888  0.1490
19132TIP3    H178811   1.570   1.361   3.676 -1.3889 -1.4442 -0.6194
19132TIP3    H278812   1.510   1.390   3.812  1.2759  0.2004  0.2857
19133TIP3   OH278813   3.436   4.258   2.867 -0.0684 -0.0893  0.2701
19133TIP3    H178814   3.493   4.282   2.940  2.2416 -1.6944 -0.8776
19133TIP3    H278815   3.440   4.162   2.864 -0.6811 -0.0956 -1.5068
19134TIP3   OH278816   2.585   3.568   3.267 -0.1635  0.0327  0.5197
19134TIP3    H178817   2.608   3.476   3.257  2.5731  0.4129  2.1182
19134TIP3    H278818   2.496   3.575   3.232  0.5360 -2.6163 -2.2139
19135TIP3   OH278819   1.535   5.049  16.530 -0.3933  0.5156  0.0852
19135TIP3    H178820   1.485   5.002  16.463 -0.7738  0.7371  0.2144
19135TIP3    H278821   1.615   5.077  16.485 -1.0712  1.4979 -0.5420
19136TIP3   OH278822   0.223   6.721   0.798  0.1838 -0.0497  0.0749
19136TIP3    H178823   0.228   6.625   0.800 -0.1103 -0.0578  0.7780
19136TIP3    H278824   0.270   6.746   0.719  1.1538 -0.7227  0.4155
19137TIP3   OH278825   1.595   3.862  13.975 -0.3702  0.3189 -0.2427
19137TIP3    H178826   1.543   3.941  13.993 -0.6266  0.6064 -2.0165
19137TIP3    H278827   1.651   3.887  13.902  1.9909 -0.1436  1.3062
19138TIP3   OH278828   6.792   5.248   3.469 -0.0433  0.2776 -0.4678
19138TIP3    H178829   6.698   5.256   3.489  0.0800  2.7413 -0.5975
19138TIP3    H278830   6.829   5.207   3.548 -1.1741 -0.5569 -0.3388
19139TIP3   OH278831   4.517   3.191   0.535  0.4103  0.3794 -0.0600
19139TIP3    H178832   4.478   3.139   0.465 -1.9698 -0.2502  1.6319
19139TIP3    H278833   4.545   3.272   0.492  1.3688 -0.9667 -2.1575
19140TIP3   OH278834   6.357   5.034  16.064  0.7449  0.4823 -0.6951
19140TIP3    H178835   6.352   4.939  16.067 -0.5677  0.3516 -3.6302
19140TIP3    H278836   6.448   5.052  16.039  1.2652  0.1020  0.8245
19141TIP3   OH278837   0.086   2.589  12.189 -0.4310 -0.0778 -0.3388
19141TIP3    H178838   0.065   2.519  12.127 -0.6450  0.2344 -0.6189
19141TIP3    H278839   0.002   2.630  12.208 -0.0783  1.3074 -1.6201
19142TIP3   OH278840   3.188   5.631   1.761  0.2067  0.3806 -0.4826
19142TIP3    H178841   3.189   5.677   1.845 -2.7314  2.1244 -1.2561
19142TIP3    H278842   3.124   5.562   1.772  1.5146 -0.9200 -0.6596
19143TIP3   OH278843   0.629   4.536  12.516  0.4917 -0.3549 -0.1713
19143TIP3    H178844   0.548   4.560  12.560  0.2964 -1.5946  0.1849
19143TIP3    H278845   0.698   4.577  12.569  0.0809  1.7777 -1.1912
19144TIP3   OH278846   6.383   0.174   6.049 -0.7170 -0.9030 -0.3332
19144TIP3    H178847   6.465   0.194   6.005 -2.0227  2.2065 -1.6859
19144TIP3    H278848   6.389   0.219   6.134 -1.5448  0.7967 -1.1129
19145TIP3   OH278849   1.654   2.862   6.477  0.0372  0.1774 -0.1877
19145TIP3    H178850   1.713   2.790   6.497 -1.2103 -0.4317  1.5235
19145TIP3    H278851   1.572   2.819   6.452 -0.1410  1.0055 -1.0907
19146TIP3   OH278852   0.930   0.884   1.271  0.2711  0.0438  0.4762
19146TIP3    H178853   0.838   0.864   1.258  0.4730 -1.9791  1.6943
19146TIP3    H278854   0.958   0.923   1.188 -1.3457 -0.6181 -0.4332
19147TIP3   OH278855   6.494   6.144   5.101 -0.3031 -0.3226 -0.1730
19147TIP3    H178856   6.464   6.070   5.049  0.0388  0.0959 -0.9852
19147TIP3    H278857   6.419   6.168   5.155 -0.2247 -1.6370  0.5462
19148TIP3   OH278858   4.904   4.209   5.210 -0.1402 -0.4199  0.1213
19148TIP3    H178859   4.844   4.279   5.183  0.6446 -0.0274 -0.6309
19148TIP3    H278860   4.977   4.255   5.251  0.3213 -0.8109 -0.2587
19149TIP3   OH278861   5.061   4.630  13.049  0.0241 -0.3680 -0.0970
19149TIP3    H178862   5.045   4.577  13.127  1.1959 -1.3526 -0.5042
19149TIP3    H278863   4.983   4.618  12.995 -3.1219  3.9470  2.7315
19150TIP3   OH278864   3.244   0.478  16.508 -0.0170 -0.7137  0.0319
19150TIP3    H178865   3.196   0.400  16.537  1.2669 -1.8018 -0.6349
19150TIP3    H278866   3.322   0.479  16.563  0.0693  0.0187 -0.0959
19151TIP3   OH278867   4.142   6.256  16.684 -0.2599 -0.2394 -0.2004
19151TIP3    H178868   4.099   6.302  16.757 -0.7626 -1.1967  0.1297
19151TIP3    H278869   4.070   6.210  16.640  0.4306 -2.0609  0.5028
19152TIP3   OH278870   3.214   4.364  11.706 -0.2500  0.5847 -0.6345
19152TIP3    H178871   3.261   4.282  11.689 -0.5676  0.1848  0.3396
19152TIP3    H278872   3.157   4.375  11.630 -2.1083 -1.4883  0.3153
19153TIP3   OH278873   3.737   2.614   2.091 -0.2085  0.7321  0.1084
19153TIP3    H178874   3.792   2.692   2.097 -0.8219  1.2466 -0.7381
19153TIP3    H278875   3.657   2.644   2.048 -0.2218 -0.4768 -0.7734
19154TIP3   OH278876   3.876   5.533   4.471  0.2757 -0.2975 -0.6789
19154TIP3    H178877   3.946   5.546   4.536 -0.7180 -0.0303  0.3697
19154TIP3    H278878   3.808   5.594   4.497 -1.4416 -2.3254 -0.0998
19155TIP3   OH278879   4.151   3.372   6.159 -0.2068 -0.0641  0.6225
19155TIP3    H178880   4.132   3.378   6.253  1.5063 -0.5179  1.0271
19155TIP3    H278881   4.096   3.299   6.129  1.0127 -1.5717  1.8202
19156TIP3   OH278882   6.349   1.806  13.121  0.2431  0.0991 -0.2763
19156TIP3    H178883   6.322   1.854  13.199 -1.2490  0.6808 -1.1107
19156TIP3    H278884   6.288   1.732  13.116  1.3046 -0.8201 -0.0695
19157TIP3   OH278885   6.311   0.726   5.671  0.3402 -0.0816 -0.5112
19157TIP3    H178886   6.335   0.757   5.759 -1.7432 -1.7997  0.7587
19157TIP3    H278887   6.261   0.798   5.633  1.0964  0.6045 -0.2423
19158TIP3   OH278888   3.430   2.084   0.359  0.1936 -0.4458 -0.0740
19158TIP3    H178889   3.425   2.091   0.454  2.0418 -0.8869  0.0848
19158TIP3    H278890   3.507   2.136   0.335 -1.0836  0.8896 -1.5086
19159TIP3   OH278891   2.866   3.251   5.147 -0.1885 -0.0162 -0.1754
19159TIP3    H178892   2.922   3.320   5.110 -2.1122  2.3332  0.9974
19159TIP3    H278893   2.783   3.259   5.100 -0.8226 -0.7840  0.7711
19160TIP3   OH278894   1.129   2.536   0.152  0.5971  0.0252  0.0855
19160TIP3    H178895   1.140   2.631   0.152  2.8695 -0.1806  0.0125
19160TIP3    H278896   1.215   2.501   0.176  0.0691 -2.0450 -0.7565
19161TIP3   OH278897   6.271   4.661  13.589 -0.0351  0.4527 -0.2329
19161TIP3    H178898   6.344   4.622  13.542  1.1802  0.3077  1.6608
19161TIP3    H278899   6.257   4.746  13.547 -1.1238 -0.8965 -2.8410
19162TIP3   OH278900   3.294   6.542   4.019  0.1693  0.2448 -0.1326
19162TIP3    H178901   3.248   6.479   4.075 -1.7377  0.6379 -1.1950
19162TIP3    H278902   3.360   6.489   3.973  1.7440 -0.0997  2.3206
19163TIP3   OH278903   5.483   3.521  10.319  0.2686 -0.3959  0.0085
19163TIP3    H178904   5.450   3.611  10.310  0.0720 -0.5246 -0.5746
19163TIP3    H278905   5.488   3.507  10.413 -2.9340 -0.9564  0.1849
19164TIP3   OH278906   4.538   1.412  16.677 -0.3501 -0.6570  0.5451
19164TIP3    H178907   4.615   1.463  16.651 -1.2658 -0.7186 -2.6064
19164TIP3    H278908   4.499   1.463  16.748  1.2317  0.6534  0.5355
19165TIP3   OH278909   3.059   3.735  17.060 -0.9321 -0.6951 -0.0658
19165TIP3    H178910   3.065   3.729  16.964 -0.6412 -0.6270 -0.0532
19165TIP3    H278911   2.969   3.763  17.076 -0.7594  0.0583 -0.3564
19166TIP3   OH278912   1.810   0.641  13.879 -0.3820  0.2041 -0.0934
19166TIP3    H178913   1.746   0.662  13.811  0.3972  3.7563  0.0906
19166TIP3    H278914   1.764   0.657  13.962 -0.3898 -1.1197  0.1866
19167TIP3   OH278915   1.813   1.602  12.976  0.3516  0.1962  0.4616
19167TIP3    H178916   1.750   1.674  12.979 -1.3290 -1.2358  1.3298
19167TIP3    H278917   1.851   1.600  13.064 -0.3326 -0.5753  0.7461
19168TIP3   OH278918   1.614   3.951   1.948 -0.6712  0.0278 -0.5921
19168TIP3    H178919   1.587   3.915   1.864 -0.0652  0.6144 -1.0511
19168TIP3    H278920   1.532   3.968   1.995 -0.9969 -0.6477 -0.9085
19169TIP3   OH278921   3.851   3.614  12.925  1.0616  0.0692  0.3624
19169TIP3    H178922   3.946   3.622  12.917  0.7589  3.3171 -1.8681
19169TIP3    H278923   3.826   3.686  12.982 -0.1547 -0.4084  0.4634
19170TIP3   OH278924   4.228   4.311  10.838 -0.0909 -0.4721  0.2614
19170TIP3    H178925   4.156   4.250  10.825 -0.5059 -0.1761  1.0796
19170TIP3    H278926   4.199   4.392  10.795  0.5030 -0.8549 -0.9163
19171TIP3   OH278927   3.470   6.615   1.826 -0.2952 -0.4392 -0.1042
19171TIP3    H178928   3.555   6.571   1.835 -0.4529 -1.0870 -1.5431
19171TIP3    H278929   3.405   6.546   1.840 -0.5449 -0.4971 -1.3786
19172TIP3   OH278930   0.100   6.606  14.740  0.0260  0.2429  0.8424
19172TIP3    H178931   0.005   6.606  14.753  0.0371  0.1472  0.9273
19172TIP3    H278932   0.129   6.524  14.779  0.0138 -0.2407 -0.1303
19173TIP3   OH278933   2.631   4.226   1.273 -0.1777 -0.0076  0.1817
19173TIP3    H178934   2.688   4.266   1.208 -0.8781 -0.1444 -0.5394
19173TIP3    H278935   2.567   4.294   1.293 -0.2382 -0.1232  0.3806
19174TIP3   OH278936   1.802   0.976  16.717 -0.3994 -0.2078  0.2754
19174TIP3    H178937   1.782   0.915  16.646 -2.1864  0.1045  0.4589
19174TIP3    H278938   1.833   1.055  16.673  0.5282 -0.7342 -0.0336
19175TIP3   OH278939   2.860   3.835  15.360 -0.4100  0.2855  0.4463
19175TIP3    H178940   2.935   3.895  15.361 -0.4935  0.6367 -3.0669
19175TIP3    H278941   2.786   3.890  15.388 -0.0184  1.0698 -0.0199
19176TIP3   OH278942   0.161   6.590   4.836 -0.2696 -0.4862  0.0278
19176TIP3    H178943   0.127   6.658   4.777 -0.4417 -1.6632 -1.2998
19176TIP3    H278944   0.249   6.619   4.858 -0.9270  0.9683  0.8202
19177TIP3   OH278945   1.123   3.709  15.178  0.6607 -0.1101 -0.5318
19177TIP3    H178946   1.127   3.637  15.241 -1.3411  0.2136  0.0051
19177TIP3    H278947   1.127   3.788  15.232  2.2882  0.2264 -1.0838
19178TIP3   OH278948   1.584   0.687  13.335 -0.2135 -0.0729 -0.0597
19178TIP3    H178949   1.632   0.734  13.267 -0.4962 -2.0052 -1.6913
19178TIP3    H278950   1.493   0.713  13.323 -0.6697 -2.2015 -2.1844
19179TIP3   OH278951   4.010   6.139  14.158 -0.3901  0.8222 -0.2042
19179TIP3    H178952   3.945   6.199  14.119  0.0531  1.1900 -0.3833
19179TIP3    H278953   3.989   6.054  14.120 -2.0372  0.5145  1.2482
19180TIP3   OH278954   0.442   0.789  15.681 -0.2464  0.3154 -0.0302
19180TIP3    H178955   0.534   0.765  15.691 -0.7761 -1.9469 -0.0633
19180TIP3    H278956   0.443   0.884  15.674  2.0803  0.3533 -0.0256
19181TIP3   OH278957   5.528   1.621  15.114 -0.1387  0.0724  0.2374
19181TIP3    H178958   5.473   1.699  15.111 -0.0867  0.1106  0.2794
19181TIP3    H278959   5.617   1.654  15.108 -0.1287 -0.0040 -0.0828
19182TIP3   OH278960   5.565   3.001  13.251  0.0552  0.4848 -0.3665
19182TIP3    H178961   5.500   2.932  13.246  1.0945 -0.6852  1.1291
19182TIP3    H278962   5.634   2.974  13.190  0.7517 -0.1952  0.6708
19183TIP3   OH278963   0.276   5.190  12.102  0.0402  0.4173  0.0131
19183TIP3    H178964   0.314   5.147  12.025 -2.6679 -1.5141 -0.3604
19183TIP3    H278965   0.306   5.281  12.095  1.2466 -0.0862 -2.3803
19184TIP3   OH278966   4.648   3.435  16.318 -0.2899 -0.2101 -0.6536
19184TIP3    H178967   4.690   3.401  16.239  0.5783  2.0723 -1.2516
19184TIP3    H278968   4.645   3.529  16.305 -2.1633  0.0429  1.0950
19185TIP3   OH278969   3.041   6.127  13.808 -0.3247 -0.1983 -0.3231
19185TIP3    H178970   3.116   6.067  13.804  0.3938  0.6384  0.4362
19185TIP3    H278971   2.995   6.102  13.888  0.6772  1.0616  0.6733
19186TIP3   OH278972   2.247   5.254   0.097 -0.4424  0.4945  0.0353
19186TIP3    H178973   2.294   5.175   0.123  0.2015  0.5646 -0.8677
19186TIP3    H278974   2.161   5.246   0.139 -0.9048 -1.3651 -1.1364
19187TIP3   OH278975   2.620   6.597  13.088  0.3677  0.0255 -0.2450
19187TIP3    H178976   2.690   6.653  13.123  0.9434 -0.6191 -0.3448
19187TIP3    H278977   2.557   6.589  13.159  0.9827 -0.3654  0.2649
19188TIP3   OH278978   0.516   1.626   2.706  0.5696  0.4517 -0.2779
19188TIP3    H178979   0.464   1.679   2.767  2.1836  0.5133  1.1203
19188TIP3    H278980   0.604   1.664   2.710  1.3194 -1.1512 -0.7025
19189TIP3   OH278981   2.402   2.791  11.472 -0.0311  0.2037 -0.2762
19189TIP3    H178982   2.493   2.794  11.503 -0.3257 -0.5309  0.7242
19189TIP3    H278983   2.390   2.700  11.445 -1.0553 -0.2555  1.5470
19190TIP3   OH278984   6.266   1.632  11.094  0.6355 -0.1944 -0.1089
19190TIP3    H178985   6.349   1.669  11.124  1.8268 -0.8313 -2.3662
19190TIP3    H278986   6.292   1.562  11.034 -1.5406 -0.3979 -0.8850
19191TIP3   OH278987   0.369   5.923   4.903  0.7622 -0.7512 -0.2900
19191TIP3    H178988   0.411   6.009   4.895  0.1034  0.2962  4.6414
19191TIP3    H278989   0.442   5.861   4.908  1.2467 -0.6160 -3.3863
19192TIP3   OH278990   3.807   4.219   2.306  0.5802  0.3466 -0.1772
19192TIP3    H178991   3.733   4.232   2.247 -0.2831  0.1641  0.8553
19192TIP3    H278992   3.848   4.138   2.274 -0.2720 -0.1152 -0.1220
19193TIP3   OH278993   1.107   1.653   3.969  0.0607  0.0613  0.0291
19193TIP3    H178994   1.158   1.578   4.000  0.0084  0.1270  0.2768
19193TIP3    H278995   1.112   1.647   3.874  0.4847  0.0340  0.0501
19194TIP3   OH278996   1.594   2.193   1.053  0.3475  0.1499  0.3087
19194TIP3    H178997   1.675   2.194   1.001  0.1104  1.7218 -0.0620
19194TIP3    H278998   1.524   2.193   0.989  0.0423 -0.0990  0.6361
19195TIP3   OH278999   4.411   5.566  16.790 -0.2995  0.7409 -0.6635
19195TIP3    H179000   4.437   5.500  16.725  1.5529  0.1826  0.5863
19195TIP3    H279001   4.415   5.649  16.742 -0.9208  0.1582 -1.7818
19196TIP3   OH279002   5.577   5.276   3.400  0.3736  0.0468 -0.4220
19196TIP3    H179003   5.525   5.324   3.465  0.8493 -0.3763  0.2881
19196TIP3    H279004   5.563   5.323   3.318 -1.2361 -0.1375 -0.2822
19197TIP3   OH279005   5.960   5.733   3.257 -0.1028 -0.3790  0.3280
19197TIP3    H179006   6.027   5.705   3.195 -0.5287 -0.8005  0.0617
19197TIP3    H279007   6.000   5.718   3.343 -0.3565 -1.8835  0.1977
19198TIP3   OH279008   6.293   3.206   3.920 -0.1458  0.5429  0.1265
19198TIP3    H179009   6.222   3.262   3.887  0.6959  1.8201  0.3888
19198TIP3    H279010   6.263   3.179   4.007 -0.2109  1.3140  0.3587
19199TIP3   OH279011   4.645   5.519   5.336  0.0518  0.4076  0.1043
19199TIP3    H179012   4.606   5.596   5.294  0.2615  0.6875  0.4235
19199TIP3    H279013   4.738   5.524   5.316 -0.2271 -1.0638 -1.9429
19200TIP3   OH279014   3.557   4.564  11.322 -0.5598  0.0784  0.0931
19200TIP3    H179015   3.583   4.647  11.362  1.4489 -1.1908  1.6296
19200TIP3    H279016   3.568   4.578  11.228  2.2995  0.7917  0.4639
19201TIP3   OH279017   3.302   5.761  16.458 -0.9489  0.4997 -0.4552
19201TIP3    H179018   3.263   5.796  16.538 -0.8380  0.6798 -0.4792
19201TIP3    H279019   3.314   5.837  16.402 -0.3715  0.4780 -0.3675
19202TIP3   OH279020   5.990   4.132   2.853 -0.1096 -0.0045  0.4383
19202TIP3    H179021   5.988   4.043   2.819 -1.3525  0.4350 -0.7494
19202TIP3    H279022   6.043   4.180   2.790 -0.4894  0.3392  0.3715
19203TIP3   OH279023   2.006   6.007   5.436  0.1547 -0.0445  0.3532
19203TIP3    H179024   1.939   6.071   5.415  1.4975  2.0996  2.0590
19203TIP3    H279025   1.970   5.923   5.408 -2.5164  1.1999 -0.2331
19204TIP3   OH279026   6.668   5.426   0.009  0.1687  0.0319 -0.2527
19204TIP3    H179027   6.619   5.504  -0.016 -1.3488 -1.4557 -2.2673
19204TIP3    H279028   6.609   5.379   0.068  0.3603 -0.4044 -0.4094
19205TIP3   OH279029   6.464   3.328  12.294 -0.3945 -0.7268 -0.6840
19205TIP3    H179030   6.394   3.392  12.310 -0.8146 -0.2337 -3.8454
19205TIP3    H279031   6.455   3.265  12.365 -1.3650  1.5226  1.3352
19206TIP3   OH279032   5.216   0.266  13.254  0.7152  0.1256  0.0644
19206TIP3    H179033   5.292   0.225  13.294 -0.8172 -0.9139  2.1201
19206TIP3    H279034   5.203   0.346  13.305  1.3115  1.1455 -1.3144
19207TIP3   OH279035   1.019   4.660   4.160 -0.3332  0.1580 -0.3230
19207TIP3    H179036   1.046   4.600   4.090 -1.1403 -0.4020 -0.1666
19207TIP3    H279037   0.924   4.646   4.168 -0.5384  1.4844 -0.3067
19208TIP3   OH279038   6.234   2.391   2.422 -0.0721  0.3732  0.4914
19208TIP3    H179039   6.245   2.296   2.425 -1.3787  0.2283  1.6425
19208TIP3    H279040   6.272   2.422   2.504  0.1413  0.8317  0.2243
19209TIP3   OH279041   0.642   6.400   2.275  0.6852  0.1405 -0.4608
19209TIP3    H179042   0.557   6.401   2.231  1.2613 -1.6710 -1.6927
19209TIP3    H279043   0.620   6.390   2.368 -0.4368  0.0485 -0.7168
19210TIP3   OH279044   5.269   5.179   5.209  0.9621 -0.0493 -0.2498
19210TIP3    H179045   5.240   5.267   5.233  1.4109 -0.2361  1.0554
19210TIP3    H279046   5.268   5.130   5.291  1.3762 -1.0770 -0.8383
19211TIP3   OH279047   3.152   6.477   2.991 -0.4910  0.1585 -0.6911
19211TIP3    H179048   3.156   6.419   3.067  2.7268 -0.2762 -1.0356
19211TIP3    H279049   3.125   6.562   3.027  0.8839 -0.0512  0.9962
19212TIP3   OH279050   5.841   4.553   4.862  0.1270  0.6622  0.5226
19212TIP3    H179051   5.791   4.630   4.887 -0.2499  0.3675  0.6847
19212TIP3    H279052   5.911   4.587   4.805  0.0454  1.1340  0.6993
19213TIP3   OH279053   3.471   0.829   2.302 -0.1672 -0.4013  0.4962
19213TIP3    H179054   3.444   0.780   2.380  1.6786 -1.6778  0.4081
19213TIP3    H279055   3.498   0.915   2.336 -0.9612 -0.3428  1.0111
19214TIP3   OH279056   0.193   3.068   2.790 -0.0373  0.7472  0.3925
19214TIP3    H179057   0.135   3.060   2.867 -2.1480  1.4015 -1.0417
19214TIP3    H279058   0.233   3.154   2.800 -2.3823  2.0429 -0.4933
19215TIP3   OH279059   4.807   4.359  15.238  0.5324  0.3546 -0.7183
19215TIP3    H179060   4.890   4.311  15.237  0.7743  0.7380  0.3130
19215TIP3    H279061   4.772   4.347  15.326  0.2784  1.5223 -0.6342
19216TIP3   OH279062   3.234   5.689  14.504 -0.2958  0.2268 -0.3803
19216TIP3    H179063   3.330   5.690  14.515 -0.4366 -0.8756  1.4484
19216TIP3    H279064   3.203   5.755  14.565 -0.7338  0.0305 -0.3892
19217TIP3   OH279065   3.460   6.493  11.310 -1.1529  0.1351  0.0207
19217TIP3    H179066   3.463   6.537  11.225 -0.0920 -0.5956 -0.3402
19217TIP3    H279067   3.537   6.525  11.357  0.0934 -1.8472 -0.5475
19218TIP3   OH279068   5.825   6.407   3.150  0.0352  0.1540 -0.2598
19218TIP3    H179069   5.748   6.460   3.129  0.2535  1.0840  1.1691
19218TIP3    H279070   5.877   6.462   3.209  0.7483 -1.2749  0.4892
19219TIP3   OH279071   3.791   1.792  14.013 -0.1177  0.3226 -0.0343
19219TIP3    H179072   3.792   1.701  14.045  0.0865  0.3204 -0.0429
19219TIP3    H279073   3.699   1.815  14.009 -0.3602 -0.7932 -2.6199
19220TIP3   OH279074   5.346   4.681  15.878  0.2792  0.3064  0.6104
19220TIP3    H179075   5.313   4.592  15.864 -1.8802  0.9666  1.0888
19220TIP3    H279076   5.430   4.683  15.831 -0.1685 -1.6177 -0.4014
19221TIP3   OH279077   3.193   3.604   0.434 -0.4752  0.1174  0.8446
19221TIP3    H179078   3.155   3.665   0.372  0.2834  0.3691  0.6089
19221TIP3    H279079   3.132   3.602   0.508 -0.2641  1.5542  1.0851
19222TIP3   OH279080   0.253   4.220   2.071  0.0435  0.3719  0.3452
19222TIP3    H179081   0.322   4.217   2.138  0.2236  0.6141  0.1706
19222TIP3    H279082   0.184   4.164   2.106  0.4771 -0.1572  0.3516
19223TIP3   OH279083   0.476   1.061  14.300 -0.6616 -0.1187 -0.0942
19223TIP3    H179084   0.487   0.974  14.338 -2.1578 -0.2787  0.0225
19223TIP3    H279085   0.399   1.053  14.244 -1.3396  1.3512  0.5831
19224TIP3   OH279086   3.430   1.003  12.607 -0.3305  0.0835 -0.5706
19224TIP3    H179087   3.493   1.051  12.555 -1.5435  1.4261 -0.8584
19224TIP3    H279088   3.418   0.920  12.559 -0.1896  0.6001 -1.5214
19225TIP3   OH279089   4.956   6.629   2.693 -0.5907 -0.4330 -0.2435
19225TIP3    H179090   4.985   6.614   2.603 -1.1785  0.4652 -0.5919
19225TIP3    H279091   4.949   6.541   2.731  1.9784 -0.7401 -0.3060
19226TIP3   OH279092   4.340   4.326  13.697  0.5027 -0.6110  0.4852
19226TIP3    H179093   4.278   4.356  13.631  1.1585  2.2790  1.0734
19226TIP3    H279094   4.288   4.269  13.754 -1.0547 -0.0293 -0.2910
19227TIP3   OH279095   3.868   1.859   1.303  0.5040  0.1239 -0.0526
19227TIP3    H179096   3.956   1.828   1.281  0.6779 -0.3371  1.2011
19227TIP3    H279097   3.811   1.822   1.236  1.3745  1.2572 -1.4834
19228TIP3   OH279098   2.310   3.440   5.992 -0.2723 -0.1589  0.3047
19228TIP3    H179099   2.364   3.361   5.997 -0.4871 -0.2381  1.5016
19228TIP3    H279100   2.326   3.487   6.074 -0.2879  0.9613 -0.3028
19229TIP3   OH279101   3.005   3.553  12.017 -0.5885 -0.0836  0.4948
19229TIP3    H179102   3.025   3.622  11.954  1.0201 -1.1035 -0.1714
19229TIP3    H279103   3.027   3.592  12.102 -3.6198  1.6158  0.6468
19230TIP3   OH279104   2.121   2.697  14.011 -0.0044 -0.2446  0.0983
19230TIP3    H179105   2.181   2.766  14.040  0.1795  0.6609 -2.2189
19230TIP3    H279106   2.040   2.743  13.988  0.3367 -0.6389 -2.1011
19231TIP3   OH279107   2.922   5.987  14.029  0.4397 -0.2950  0.6085
19231TIP3    H179108   2.830   6.015  14.024  0.7121  0.4255 -1.2561
19231TIP3    H279109   2.947   6.002  14.120 -0.3353  2.7664  0.4173
19232TIP3   OH279110   1.474   4.168   3.549  0.0233  0.2684  0.2699
19232TIP3    H179111   1.549   4.188   3.493 -1.1915  2.4721 -0.7181
19232TIP3    H279112   1.420   4.109   3.497  0.9893 -1.3050  0.9744
19233TIP3   OH279113   4.764   4.331  16.561  0.4635  0.0109 -0.4892
19233TIP3    H179114   4.792   4.354  16.472 -0.2418 -0.6661 -0.8972
19233TIP3    H279115   4.708   4.405  16.587  0.5100  0.1156 -0.6818
19234TIP3   OH279116   3.257   3.864   3.007  0.3253  0.0080  0.1735
19234TIP3    H179117   3.334   3.913   3.035 -1.2577  1.7427  1.7285
19234TIP3    H279118   3.204   3.855   3.086 -0.8117 -1.7287 -0.7082
19235TIP3   OH279119   4.010   1.272   0.462  0.8953 -0.3717 -0.5532
19235TIP3    H179120   4.086   1.304   0.509  1.4198 -0.0222 -1.6023
19235TIP3    H279121   4.031   1.180   0.442  0.6880 -0.5097 -0.1567
19236TIP3   OH279122   0.087   5.685   6.026 -0.5716  0.0904  0.4136
19236TIP3    H179123   0.053   5.664   5.939  0.3378 -0.0143  0.0691
19236TIP3    H279124   0.068   5.607   6.078  0.8485 -0.7741 -0.2919
19237TIP3   OH279125   4.617   2.123  14.820  0.0851 -0.1509  0.2842
19237TIP3    H179126   4.662   2.045  14.851  2.2275  0.7889 -0.2538
19237TIP3    H279127   4.645   2.193  14.879 -0.1245  0.5939 -0.4678
19238TIP3   OH279128   6.576   3.262   5.550  0.0470 -0.4226  0.6872
19238TIP3    H179129   6.667   3.248   5.523 -0.1759  0.3713 -0.5933
19238TIP3    H279130   6.570   3.356   5.566 -0.3980 -0.5623  1.3948
19239TIP3   OH279131   1.860   5.986  10.870  0.6674  0.6056 -0.2523
19239TIP3    H179132   1.943   6.032  10.865  2.0284 -0.8918  4.0016
19239TIP3    H279133   1.796   6.054  10.889  1.6724  1.4128  0.3378
19240TIP3   OH279134   1.006   5.839   3.186 -0.4285 -0.4451 -0.2217
19240TIP3    H179135   1.078   5.897   3.209 -0.6177  0.1195 -1.0000
19240TIP3    H279136   1.000   5.844   3.091 -1.3364 -0.6723 -0.1901
19241TIP3   OH279137   1.839   2.363   2.527 -0.0325 -0.2886 -0.6229
19241TIP3    H179138   1.808   2.273   2.529 -0.0103 -0.2876  1.3948
19241TIP3    H279139   1.863   2.383   2.617  1.1651  1.3390 -1.2443
19242TIP3   OH279140   6.510   2.829   6.538  0.1277 -0.5379  0.3825
19242TIP3    H179141   6.596   2.855   6.573  0.0369 -1.6536  1.4863
19242TIP3    H279142   6.455   2.819   6.615 -1.1122  0.4803 -0.3370
19243TIP3   OH279143   2.939   5.372  12.442  0.2587  0.2055  0.0994
19243TIP3    H179144   2.967   5.304  12.381  1.5658 -0.1870  1.0870
19243TIP3    H279145   2.869   5.332  12.493  0.6059 -0.1952  0.2644
19244TIP3   OH279146   2.978   4.781  13.774 -0.1506  0.5137  0.2297
19244TIP3    H179147   2.890   4.785  13.737 -0.0024  1.0712 -0.0779
19244TIP3    H279148   3.032   4.827  13.711  0.3795  0.1113  0.3816
19245TIP3   OH279149   0.359   0.875  16.868  0.0810  0.3184 -0.0519
19245TIP3    H179150   0.430   0.818  16.899 -0.3116 -0.8247 -1.1870
19245TIP3    H279151   0.280   0.822  16.876 -0.1559  0.2588 -2.1074
19246TIP3   OH279152   4.233   2.201   5.175 -0.0222  0.6214  0.2019
19246TIP3    H179153   4.195   2.114   5.173 -0.7978  0.8924  1.7399
19246TIP3    H279154   4.200   2.240   5.256 -1.3736  3.0958 -1.4135
19247TIP3   OH279155   6.244   6.477   5.032 -0.0005 -0.2269 -0.3520
19247TIP3    H179156   6.330   6.469   4.990 -0.6054  1.2350 -1.9760
19247TIP3    H279157   6.262   6.524   5.114  1.0157 -1.9446  0.4803
19248TIP3   OH279158   6.479   4.117   4.712 -0.2047 -0.2058 -0.0024
19248TIP3    H179159   6.452   4.043   4.658 -1.1298 -0.5929  0.9471
19248TIP3    H279160   6.412   4.122   4.781  0.7645  0.4597  0.9264
19249TIP3   OH279161   5.973   5.930  16.093 -0.0429  0.7211  0.1844
19249TIP3    H179162   5.886   5.895  16.111 -0.4205  0.9309 -1.1360
19249TIP3    H279163   5.958   6.001  16.031  1.0947  0.5808 -0.2667
19250TIP3   OH279164   5.576   2.530   4.828  0.5281  0.0436 -0.3554
19250TIP3    H179165   5.549   2.450   4.783  1.0351  0.0247 -0.6283
19250TIP3    H279166   5.506   2.546   4.892  0.5337 -0.7407 -0.1470
19251TIP3   OH279167   0.863   6.533   0.696 -0.4155  0.4369  0.7021
19251TIP3    H179168   0.867   6.562   0.788 -1.1148  0.7521  0.6444
19251TIP3    H279169   0.792   6.468   0.695 -1.4867  1.5579  0.1149
19252TIP3   OH279170   6.371   1.738  13.623  0.2851  0.2734 -0.9354
19252TIP3    H179171   6.407   1.794  13.554 -1.0278 -0.7131 -2.5115
19252TIP3    H279172   6.349   1.656  13.577 -0.8168 -0.3467  0.6305
19253TIP3   OH279173   4.150   0.849   0.022  0.3984  0.0922 -0.5591
19253TIP3    H179174   4.217   0.826  -0.042  0.1768 -1.7194 -0.2127
19253TIP3    H279175   4.199   0.875   0.100  0.8049 -2.4676  0.1302
19254TIP3   OH279176   6.197   5.210  12.877  0.4004 -0.4263  0.5898
19254TIP3    H179177   6.263   5.147  12.848 -0.3979 -0.7986 -0.4971
19254TIP3    H279178   6.247   5.287  12.903  1.3533 -1.2517  1.2993
19255TIP3   OH279179   2.429   2.209  14.115  0.7663 -0.4448 -0.4354
19255TIP3    H179180   2.376   2.289  14.118  0.3054 -0.5636 -2.9303
19255TIP3    H279181   2.366   2.140  14.091  1.4698 -1.2497 -0.0215
19256TIP3   OH279182   6.079   1.355   6.245 -0.2279 -0.0794 -0.3910
19256TIP3    H179183   6.046   1.352   6.335 -0.3520 -1.4648 -0.4567
19256TIP3    H279184   6.070   1.265   6.213  1.1065  0.0841 -1.3255
19257TIP3   OH279185   4.317   3.798  12.662  0.2322  0.4784 -0.2795
19257TIP3    H179186   4.247   3.862  12.674  0.5458  1.1304 -1.6783
19257TIP3    H279187   4.384   3.823  12.725  0.6222  1.9562 -1.2293
19258TIP3   OH279188   6.127   0.871   0.418 -0.0934 -0.0984 -0.1672
19258TIP3    H179189   6.218   0.840   0.421  0.1731  0.7094  0.7550
19258TIP3    H279190   6.120   0.930   0.493 -1.4678 -0.3561 -0.0712
19259TIP3   OH279191   1.574   5.132   2.946 -0.5488  0.0809  0.0435
19259TIP3    H179192   1.558   5.038   2.954 -1.3088  0.1395 -0.7146
19259TIP3    H279193   1.503   5.164   2.890 -1.3592  1.4217  1.7623
19260TIP3   OH279194   4.539   2.404  10.630 -0.2310 -0.0831  0.3952
19260TIP3    H179195   4.560   2.318  10.594 -3.5582  0.1151 -2.6404
19260TIP3    H279196   4.567   2.466  10.562 -0.1093  1.0057  1.4156
19261TIP3   OH279197   1.819   4.427  11.818 -0.2418 -0.2710 -0.0490
19261TIP3    H179198   1.871   4.492  11.771  0.9033  1.6306  3.5091
19261TIP3    H279199   1.880   4.355  11.836 -0.4445 -0.6097 -0.6924
19262TIP3   OH279200   2.039   6.261   1.450  0.1136 -0.3156 -0.5500
19262TIP3    H179201   2.100   6.204   1.401  0.0431 -0.1281 -0.8598
19262TIP3    H279202   1.972   6.201   1.482  0.0403 -0.4107 -0.8738
19263TIP3   OH279203   0.079   3.420   4.336  0.2544  0.4951 -0.1605
19263TIP3    H179204   0.158   3.449   4.291  0.4058  0.0396 -0.1961
19263TIP3    H279205   0.009   3.430   4.271  0.7447 -1.8128 -1.1510
19264TIP3   OH279206   5.530   5.757   3.385  0.0463 -0.6679 -0.8275
19264TIP3    H179207   5.509   5.754   3.478  2.9970 -1.4630 -0.0590
19264TIP3    H279208   5.603   5.695   3.376  1.0058  0.7038 -3.3261
19265TIP3   OH279209   1.876   5.728  13.118  0.1512  0.4378  0.3278
19265TIP3    H179210   1.954   5.674  13.105 -0.6599 -1.1756  1.6976
19265TIP3    H279211   1.815   5.671  13.166 -1.8699  1.6372 -0.6662
19266TIP3   OH279212   1.491   6.212  16.751 -0.2128  0.3018  0.3289
19266TIP3    H179213   1.460   6.296  16.717 -1.1337 -0.4174 -0.6796
19266TIP3    H279214   1.586   6.221  16.753 -0.3478  1.8333  1.5169
19267TIP3   OH279215   4.013   4.710   5.552 -0.9596 -0.0544  0.4604
19267TIP3    H179216   4.008   4.647   5.623  0.8764 -0.2632  0.4692
19267TIP3    H279217   4.033   4.657   5.474 -0.8965  0.3544  0.1941
19268TIP3   OH279218   5.668   5.595   4.085 -0.3637  0.1459  0.3804
19268TIP3    H179219   5.700   5.684   4.101  0.4134 -0.5058  2.9720
19268TIP3    H279220   5.743   5.549   4.048  0.0404 -0.0004  1.3351
19269TIP3   OH279221   0.344   2.161  15.617  0.6524  0.0566  0.0417
19269TIP3    H179222   0.411   2.226  15.638  1.5367 -0.8041 -0.0406
19269TIP3    H279223   0.317   2.182  15.527 -0.1910  1.2359  0.5440
19270TIP3   OH279224   3.575   5.269   3.759 -0.4774 -0.2647  0.4276
19270TIP3    H179225   3.616   5.276   3.673 -0.3519 -0.4243  0.4750
19270TIP3    H279226   3.648   5.265   3.820 -0.5468  1.2779  0.6612
19271TIP3   OH279227   5.561   5.130   5.578  0.4048 -0.0641  0.0764
19271TIP3    H179228   5.594   5.149   5.490 -1.4188  1.8630 -0.2946
19271TIP3    H279229   5.624   5.170   5.637  1.5237 -1.1704 -0.3357
19272TIP3   OH279230   1.957   0.842   3.008  0.7253  0.4803  0.9845
19272TIP3    H179231   1.930   0.757   3.042  0.2328  0.0362 -0.4323
19272TIP3    H279232   2.008   0.882   3.079  2.6304 -1.8013  1.0215
19273TIP3   OH279233   1.010   4.972  12.550  0.5690  0.1989 -0.0358
19273TIP3    H179234   0.971   4.899  12.501  0.0607  1.7446 -2.0824
19273TIP3    H279235   1.071   5.012  12.489  1.8134  0.7288  1.5019
19274TIP3   OH279236   1.032   6.124   0.395  0.0493 -0.7044  0.4116
19274TIP3    H179237   0.989   6.149   0.477  0.3493 -1.6843  0.8900
19274TIP3    H279238   0.965   6.133   0.328 -1.0202 -2.3986  1.1688
19275TIP3   OH279239   1.655   6.668  17.164  0.5468  0.4416  0.5909
19275TIP3    H179240   1.604   6.615  17.224 -0.4625 -0.1185 -0.7048
19275TIP3    H279241   1.745   6.661  17.196  0.5635 -2.6090  0.1337
19276TIP3   OH279242   0.901   5.154   6.260 -0.0890  0.4030  0.1297
19276TIP3    H179243   0.946   5.094   6.200 -0.5643 -0.1245  0.2916
19276TIP3    H279244   0.964   5.225   6.274  0.3562  0.1066 -0.3222
19277TIP3   OH279245   0.764   5.670  14.586  0.6227 -0.0047 -1.0320
19277TIP3    H179246   0.775   5.669  14.681  2.3468 -0.2891 -1.1858
19277TIP3    H279247   0.760   5.762  14.563  0.4522  0.0723 -0.6944
19278TIP3   OH279248   1.504   1.106   1.129  0.2461  0.0829  0.3104
19278TIP3    H179249   1.459   1.190   1.125  0.3515  0.0958 -1.5582
19278TIP3    H279250   1.435   1.043   1.151  0.1346  0.5962  1.5365
19279TIP3   OH279251   4.813   5.778  14.708  0.5364 -0.6473 -0.6817
19279TIP3    H179252   4.860   5.734  14.637  0.0069 -1.2754 -0.6491
19279TIP3    H279253   4.876   5.842  14.742  0.9877 -0.7286 -1.3470
19280TIP3   OH279254   1.065   1.632   1.208  0.5940 -0.0482 -0.7056
19280TIP3    H179255   1.054   1.727   1.213 -0.9167 -0.1770 -1.1155
19280TIP3    H279256   1.157   1.618   1.231  0.3562  1.3430  1.4968
19281TIP3   OH279257   1.889   0.769   1.939 -0.8028 -0.4536 -0.1050
19281TIP3    H179258   1.947   0.845   1.942 -0.3216 -0.8419  0.8276
19281TIP3    H279259   1.898   0.729   2.026 -1.6830 -1.1038 -0.3007
19282TIP3   OH279260   4.687   6.642  13.961 -0.2400 -0.8721  0.1292
19282TIP3    H179261   4.615   6.580  13.947 -0.2402 -0.8854  0.1897
19282TIP3    H279262   4.655   6.725  13.926  0.0374 -1.0756 -0.6239
19283TIP3   OH279263   1.792   4.069  14.654 -0.0578 -0.1203 -0.6647
19283TIP3    H179264   1.796   3.990  14.708 -0.8449 -0.4038 -1.0131
19283TIP3    H279265   1.739   4.130  14.705  3.1395  1.4324  1.1365
19284TIP3   OH279266   0.626   5.656   1.949 -0.0401 -0.0903 -0.2771
19284TIP3    H179267   0.623   5.606   2.031 -1.3045 -0.3278 -0.4514
19284TIP3    H279268   0.657   5.593   1.884 -0.4432 -0.3206 -0.2526
19285TIP3   OH279269   4.985   4.413  13.222 -0.0175 -0.3052  0.1270
19285TIP3    H179270   4.960   4.322  13.242 -2.5530  0.4759  0.8216
19285TIP3    H279271   5.068   4.425  13.269 -0.2389 -1.9181  1.0251
19286TIP3   OH279272   5.634   4.776  17.093 -0.0206  0.7890 -0.2987
19286TIP3    H179273   5.608   4.846  17.153  1.7959 -0.4496  2.1367
19286TIP3    H279274   5.563   4.712  17.098 -0.6240  1.4112 -0.7637
19287TIP3   OH279275   1.962   0.879   5.328  0.1230  0.1760 -0.0529
19287TIP3    H179276   2.029   0.811   5.338  0.4490  0.3612 -0.8466
19287TIP3    H279277   2.004   0.945   5.272 -0.4422  0.6793  0.1141
19288TIP3   OH279278   2.398   3.474  12.521  0.3740  0.8537 -0.1250
19288TIP3    H179279   2.320   3.495  12.469  0.1363 -0.0645 -0.1532
19288TIP3    H279280   2.379   3.511  12.607  0.9302  2.7088 -0.7549
19289TIP3   OH279281   3.490   1.843  16.897 -0.4564 -0.1799 -0.1985
19289TIP3    H179282   3.434   1.797  16.835 -0.1520  1.6177 -1.9087
19289TIP3    H279283   3.454   1.931  16.902  0.2244  0.0488  1.3157
19290TIP3   OH279284   1.721   2.891   0.279  0.4369  0.1552 -0.3569
19290TIP3    H179285   1.794   2.896   0.217  0.1909 -1.7660 -0.8731
19290TIP3    H279286   1.747   2.821   0.340 -0.1957  0.6684  0.5141
19291TIP3   OH279287   3.675   6.603  11.422  0.0474 -0.1076 -0.1541
19291TIP3    H179288   3.759   6.644  11.401 -0.6128  0.9465 -0.8267
19291TIP3    H279289   3.636   6.661  11.487 -0.7931  0.2222 -0.9353
19292TIP3   OH279290   6.116   3.496  14.179 -0.0945 -0.3941  0.0302
19292TIP3    H179291   6.149   3.426  14.235 -1.1769 -0.8743  0.0916
19292TIP3    H279292   6.021   3.494  14.192 -0.1279  1.2885  0.2663
19293TIP3   OH279293   3.184   2.691  15.334 -0.0859  0.3302  0.7702
19293TIP3    H179294   3.270   2.651  15.347 -0.7578 -1.3221  0.3708
19293TIP3    H279295   3.175   2.699  15.239  0.4686  2.5172  0.8454
19294TIP3   OH279296   0.271   5.755  12.279  0.2471  0.2244  0.8751
19294TIP3    H179297   0.246   5.843  12.252 -0.8286  0.3270  2.0699
19294TIP3    H279298   0.187   5.708  12.285  0.6759 -0.4707  1.5805
19295TIP3   OH279299   3.289   5.677  12.345  0.0348 -0.1864 -0.3659
19295TIP3    H179300   3.309   5.665  12.438 -1.1944  1.7621  0.2184
19295TIP3    H279301   3.244   5.596  12.320 -1.6244  0.1289  1.3745
19296TIP3   OH279302   1.945   1.487   0.938  0.5834  0.3360  0.4162
19296TIP3    H179303   1.930   1.572   0.980  0.8260  1.0071 -0.8123
19296TIP3    H279304   1.982   1.433   1.008 -0.1048  1.0511  1.3764
19297TIP3   OH279305   2.829   3.518  12.645 -0.1046  0.3763  0.2839
19297TIP3    H179306   2.915   3.556  12.660  1.1958 -1.5600 -1.7058
19297TIP3    H279307   2.829   3.493  12.552 -1.8124 -2.0472  0.8271
19298TIP3   OH279308   0.979   2.846   2.641 -0.5626 -0.3166 -0.1401
19298TIP3    H179309   0.964   2.793   2.719 -0.7535  0.4356  0.3460
19298TIP3    H279310   0.975   2.936   2.673 -0.1306 -0.0124 -0.9318
19299TIP3   OH279311   0.189   1.627   4.647  0.0045  0.0883  0.0145
19299TIP3    H179312   0.230   1.708   4.617  0.0085  0.2335  0.4073
19299TIP3    H279313   0.137   1.597   4.572  1.5007 -0.5672 -0.8186
19300TIP3   OH279314   5.444   5.299   2.914 -0.5660 -0.2572 -0.3633
19300TIP3    H179315   5.434   5.246   2.834 -1.7236  0.2407 -0.5625
19300TIP3    H279316   5.430   5.237   2.985  1.4908 -0.9304 -0.4843
19301TIP3   OH279317   1.406   4.525  15.057  0.0078 -0.3012  0.5970
19301TIP3    H179318   1.412   4.599  15.118  0.2117 -0.6313  0.9870
19301TIP3    H279319   1.426   4.562  14.971 -0.1514  0.1455  0.7526
19302TIP3   OH279320   1.718   3.373  16.910 -0.4984  0.8821  0.1029
19302TIP3    H179321   1.769   3.359  16.990  1.6448  0.2741 -1.2589
19302TIP3    H279322   1.736   3.295  16.857  0.4737  2.4688 -2.0728
19303TIP3   OH279323   2.859   4.131   1.866 -0.3511  0.0117  0.3185
19303TIP3    H179324   2.816   4.053   1.901 -0.1114  0.2134  1.0850
19303TIP3    H279325   2.938   4.141   1.919 -0.6016  1.0253  0.5332
19304TIP3   OH279326   4.133   6.793   4.016 -0.3172 -0.2126 -0.2005
19304TIP3    H179327   4.148   6.788   4.111 -1.3969  0.6728  0.0431
19304TIP3    H279328   4.218   6.815   3.979  0.4330 -1.9429  0.4118
19305TIP3   OH279329   6.783   6.313  13.238  0.1177 -0.3332  0.3942
19305TIP3    H179330   6.810   6.221  13.241 -0.7619 -0.5969  0.7366
19305TIP3    H279331   6.790   6.337  13.145  0.1902 -0.7990  0.2749
19306TIP3   OH279332   1.126   5.230  14.695 -0.4756 -0.2559 -0.1873
19306TIP3    H179333   1.128   5.232  14.790 -0.7346  0.9249 -0.1918
19306TIP3    H279334   1.184   5.300  14.668 -0.3613 -0.6156 -0.9111
19307TIP3   OH279335   2.947   4.632   4.379 -0.2904  0.2350 -0.0884
19307TIP3    H179336   2.882   4.690   4.338  0.4626  0.2124 -1.3644
19307TIP3    H279337   2.994   4.689   4.440 -1.2270  0.3453  0.5541
19308TIP3   OH279338   2.246   3.720  15.083  0.0178  0.0903  0.4406
19308TIP3    H179339   2.257   3.811  15.057 -0.3969 -0.0331 -0.1860
19308TIP3    H279340   2.331   3.679  15.064  0.7239  0.6751  2.1853
19309TIP3   OH279341   1.232   0.421  13.777  0.0406 -0.1719  0.3078
19309TIP3    H179342   1.263   0.425  13.687  1.5311 -0.0325  0.8083
19309TIP3    H279343   1.184   0.504  13.789  1.0953  0.4887  0.0832
19310TIP3   OH279344   1.202   5.800  12.984  0.4343  0.0432  0.6355
19310TIP3    H179345   1.150   5.870  12.944  0.1538  0.4166  1.6157
19310TIP3    H279346   1.185   5.809  13.078  2.3105  0.2219  0.9956
19311TIP3   OH279347   5.084   3.915   2.901 -0.3139  0.1626  0.4625
19311TIP3    H179348   5.130   3.974   2.961 -1.3338  2.0705 -0.5311
19311TIP3    H279349   4.992   3.941   2.907 -0.9510 -1.9498  0.6128
19312TIP3   OH279350   0.891   0.360   5.506  0.0979 -0.2109 -0.6015
19312TIP3    H179351   0.900   0.441   5.456 -0.5830  0.1373 -0.1735
19312TIP3    H279352   0.890   0.388   5.598 -1.4989 -0.5419 -0.4771
19313TIP3   OH279353   1.456   0.805   0.521  0.3584 -0.5775 -0.5001
19313TIP3    H179354   1.460   0.713   0.496  0.6529 -0.6171 -0.3106
19313TIP3    H279355   1.494   0.809   0.609 -2.4274 -0.7110  0.7939
19314TIP3   OH279356   4.996   3.468  11.732  0.0873 -0.2089 -0.1877
19314TIP3    H179357   4.998   3.375  11.712 -0.0972 -0.1260 -0.5996
19314TIP3    H279358   5.086   3.498  11.717  0.0583 -0.2430 -0.4287
19315TIP3   OH279359   1.912   5.548  16.869  0.2777 -0.0296  0.3334
19315TIP3    H179360   1.884   5.566  16.959  0.7746  3.6317 -0.0850
19315TIP3    H279361   1.855   5.603  16.814  1.5100 -0.3578 -1.3675
19316TIP3   OH279362   2.729   4.142  16.204  0.1526 -0.1661 -0.4807
19316TIP3    H179363   2.694   4.230  16.190 -2.8334 -1.0661  0.4438
19316TIP3    H279364   2.702   4.093  16.126  0.7116 -0.5763 -0.4242
19317TIP3   OH279365   2.794   2.592   5.734  0.9742  0.5005 -0.2541
19317TIP3    H179366   2.740   2.557   5.805 -0.7874 -1.9541 -2.5579
19317TIP3    H279367   2.872   2.626   5.777  0.1744 -1.1679  2.8178
19318TIP3   OH279368   4.182   5.187   4.936  0.1641 -0.9632  0.0597
19318TIP3    H179369   4.260   5.170   4.883  0.2178 -1.9540  0.4408
19318TIP3    H279370   4.185   5.120   5.005 -0.3388 -0.2027  0.8348
19319TIP3   OH279371   2.104   3.516  14.584 -0.2172  0.2758  0.0434
19319TIP3    H179372   2.010   3.528  14.574 -0.6675  0.6135  3.4134
19319TIP3    H279373   2.123   3.432  14.542 -2.1380 -0.1003 -0.1444
19320TIP3   OH279374   5.125   0.747  12.789  0.4207 -0.2580 -0.1044
19320TIP3    H179375   5.051   0.805  12.769  2.1061  2.1588  0.1715
19320TIP3    H279376   5.117   0.676  12.725 -1.4525  0.5444 -0.8535
19321TIP3   OH279377   5.266   1.465  16.327 -0.0770 -0.1119  0.2577
19321TIP3    H179378   5.229   1.446  16.241  1.6437 -0.8931 -0.3510
19321TIP3    H279379   5.297   1.380  16.359 -2.3193 -0.2142  2.5226
19322TIP3   OH279380   3.318   0.004   3.908  0.1972 -0.0734  0.4042
19322TIP3    H179381   3.399   0.007   3.859 -0.0940  0.9964 -0.0459
19322TIP3    H279382   3.321  -0.079   3.956 -0.1311 -1.8489 -2.4429
19323TIP3   OH279383   0.517   4.045   0.777 -0.3011 -0.4104  0.1344
19323TIP3    H179384   0.448   4.036   0.843 -1.1272 -0.6686 -0.7299
19323TIP3    H279385   0.590   3.993   0.811 -0.2886  0.3466  1.3504
19324TIP3   OH279386   0.165   4.261   5.062  0.1796 -0.1597  0.1177
19324TIP3    H179387   0.167   4.315   4.983  0.8058 -1.0450 -0.4829
19324TIP3    H279388   0.253   4.266   5.097  0.2664 -0.8670  0.0047
19325TIP3   OH279389   0.860   1.852  17.163  0.4073 -0.3287  0.0735
19325TIP3    H179390   0.768   1.825  17.174 -0.0513  1.5470  1.4901
19325TIP3    H279391   0.857   1.918  17.093  0.6373 -0.1540  0.2282
19326TIP3   OH279392   6.589   5.637   0.424 -0.2070  0.1099  0.5345
19326TIP3    H179393   6.576   5.703   0.493 -0.2645  0.4028  0.2441
19326TIP3    H279394   6.672   5.661   0.383 -0.2482  0.0237  0.4007
19327TIP3   OH279395   6.501   1.676  16.413 -0.5270  0.0508 -0.4894
19327TIP3    H179396   6.413   1.638  16.422 -0.7125  0.5226 -0.2845
19327TIP3    H279397   6.524   1.702  16.502 -0.8521  1.4101 -0.7916
19328TIP3   OH279398   1.569   0.073  12.896 -0.5633 -0.1810 -0.3993
19328TIP3    H179399   1.595   0.161  12.869  0.3779 -0.1048  0.6576
19328TIP3    H279400   1.565   0.078  12.992  0.6886 -1.5633 -0.2264
19329TIP3   OH279401   4.370   4.568   5.994 -0.0449 -0.2141  0.1541
19329TIP3    H179402   4.303   4.636   6.000  0.6830  0.4406  1.0699
19329TIP3    H279403   4.324   4.493   5.956 -0.4059  1.3488 -2.7815
19330TIP3   OH279404   2.325   4.275   3.754 -0.0015  0.0632 -0.1194
19330TIP3    H179405   2.318   4.203   3.816  0.2479  0.5556  0.4851
19330TIP3    H279406   2.417   4.301   3.756 -0.2855  1.0687  0.4414
19331TIP3   OH279407   4.244   6.608  13.569 -0.1926 -0.0044  0.0617
19331TIP3    H179408   4.247   6.643  13.480  1.8555 -1.7697 -0.6365
19331TIP3    H279409   4.313   6.654  13.616 -1.7673  1.4935  1.0671
19332TIP3   OH279410   5.469   6.652   4.478  0.3723 -0.3957  0.4427
19332TIP3    H179411   5.456   6.558   4.475  1.6648 -0.5532 -1.1202
19332TIP3    H279412   5.464   6.674   4.572  0.1793 -1.9991  0.8315
19333TIP3   OH279413   1.593   6.230   0.152  0.5869 -0.2226  0.3571
19333TIP3    H179414   1.670   6.181   0.121 -0.2751 -0.2740 -1.8746
19333TIP3    H279415   1.519   6.176   0.126 -0.2697  0.1821  1.8372
19334TIP3   OH279416   0.768   2.042  11.767 -0.0800  0.0598  0.3813
19334TIP3    H179417   0.835   2.100  11.732  0.0912  0.1335  0.8210
19334TIP3    H279418   0.723   2.007  11.690 -0.2511  0.8448  0.1157
19335TIP3   OH279419   0.500   6.230   4.625 -0.0395 -0.1155 -0.4223
19335TIP3    H179420   0.421   6.240   4.679  1.0903  0.5237  1.1939
19335TIP3    H279421   0.470   6.247   4.536 -2.1311 -1.9528 -0.1541
19336TIP3   OH279422   5.214   2.255   3.255  0.3134 -0.4998  0.5423
19336TIP3    H179423   5.140   2.255   3.194 -0.3462 -1.6984  1.3172
19336TIP3    H279424   5.264   2.334   3.232  0.2498 -1.0458 -1.7477
19337TIP3   OH279425   1.521   2.045  15.799 -0.2541  0.0388  0.2083
19337TIP3    H179426   1.577   2.052  15.721  0.2219 -0.2067  0.5191
19337TIP3    H279427   1.508   1.950  15.810 -0.6865  0.0952  0.1686
19338TIP3   OH279428   3.107   5.849   2.630  0.8575 -0.0698  0.3130
19338TIP3    H179429   3.096   5.943   2.623  0.6292 -0.1116  0.0796
19338TIP3    H279430   3.034   5.820   2.685  2.1379  0.1440  2.2148
19339TIP3   OH279431   1.765   1.330  15.577 -0.6837  0.2768  0.8962
19339TIP3    H179432   1.743   1.386  15.651 -2.3776  0.8175  0.0405
19339TIP3    H279433   1.727   1.375  15.501 -0.0774 -0.8820 -0.1313
19340TIP3   OH279434   5.711   2.178  11.276  0.3202  0.0167  0.1378
19340TIP3    H179435   5.642   2.147  11.335 -0.3862  4.1234  1.8430
19340TIP3    H279436   5.668   2.247  11.225  2.0476 -0.5705 -2.2703
19341TIP3   OH279437   4.697   2.468   5.803 -0.1856  0.1081 -0.3409
19341TIP3    H179438   4.602   2.457   5.809 -0.3578  1.1056 -0.9658
19341TIP3    H279439   4.724   2.497   5.891 -0.7186  1.4751 -0.6059
19342TIP3   OH279440   1.626   0.623   0.942 -0.5290  0.4959 -0.3186
19342TIP3    H179441   1.650   0.706   0.983 -1.5150 -0.8888  3.3916
19342TIP3    H279442   1.695   0.562   0.970  1.3347  0.2502 -4.6097
19343TIP3   OH279443   3.478   4.853   1.378 -0.0063  0.4581  0.0699
19343TIP3    H179444   3.399   4.800   1.384 -0.6484  1.4022  0.2626
19343TIP3    H279445   3.466   4.903   1.297  0.5904  0.3081 -0.1142
19344TIP3   OH279446   0.803   4.499  14.896  0.0446  0.5647  0.0759
19344TIP3    H179447   0.829   4.452  14.976  0.3271  1.5499  0.5761
19344TIP3    H279448   0.875   4.485  14.835  0.2151  0.5184  0.2877
19345TIP3   OH279449   3.897   3.267  10.673  0.5078  0.1401  0.5156
19345TIP3    H179450   3.984   3.237  10.647  1.5920  2.1597  1.5364
19345TIP3    H279451   3.867   3.322  10.601 -1.2154 -2.6784 -1.0845
19346TIP3   OH279452   2.494   3.753   5.517  0.4132  0.6710 -0.0823
19346TIP3    H179453   2.575   3.724   5.559 -0.6165 -2.5565 -0.0778
19346TIP3    H279454   2.455   3.815   5.579  1.9915  0.9336  0.7007
19347TIP3   OH279455   0.930   0.688   3.097 -0.3802  0.0219  0.6603
19347TIP3    H179456   0.837   0.666   3.105 -0.2272 -2.0534 -1.7218
19347TIP3    H279457   0.938   0.727   3.010  1.2119 -1.7780 -0.0864
19348TIP3   OH279458   1.561   6.150  14.149  0.7192 -0.3714 -0.3698
19348TIP3    H179459   1.646   6.176  14.185  0.1544 -0.1173  0.8282
19348TIP3    H279460   1.568   6.055  14.138  1.2933 -0.3007 -0.6500
19349TIP3   OH279461   2.068   5.982   2.278 -0.4104  0.3948 -0.1404
19349TIP3    H179462   2.037   5.893   2.290  2.9138 -1.0646 -1.2005
19349TIP3    H279463   2.057   6.024   2.363 -1.8690 -1.0700  0.4154
19350TIP3   OH279464   3.255   0.448   2.074 -0.0607 -0.2960 -0.6525
19350TIP3    H179465   3.328   0.476   2.019  0.8453  0.6248  0.9365
19350TIP3    H279466   3.284   0.466   2.164 -1.9449 -0.6029  0.0745
19351TIP3   OH279467   4.126   2.115   1.766  0.0612 -0.4955  0.0975
19351TIP3    H179468   4.150   2.170   1.840 -1.1598  0.4579 -0.1750
19351TIP3    H279469   4.191   2.138   1.698  1.6818 -1.9638  1.0742
19352TIP3   OH279470   1.170   3.887   5.433 -1.0578  0.0357  0.4509
19352TIP3    H179471   1.238   3.867   5.498 -1.9797  0.3145  1.5338
19352TIP3    H279472   1.140   3.975   5.455 -1.6904 -0.0328 -0.0876
19353TIP3   OH279473   5.902   1.652   1.635 -0.0454 -0.0603 -0.2689
19353TIP3    H179474   5.948   1.647   1.719  0.0453  0.3814 -0.2889
19353TIP3    H279475   5.948   1.589   1.579 -0.7020 -1.0649  0.2821
19354TIP3   OH279476   4.696   2.981  15.968 -0.7849 -0.3207 -0.0804
19354TIP3    H179477   4.636   2.917  15.928 -2.8816  1.7747 -0.5289
19354TIP3    H279478   4.762   2.996  15.900 -2.3161  0.5769 -1.4551
19355TIP3   OH279479   4.359   6.173   2.085 -0.1732 -0.0481 -0.6227
19355TIP3    H179480   4.312   6.093   2.062  1.6207 -0.9011 -1.6123
19355TIP3    H279481   4.307   6.244   2.047 -2.7481 -0.4724  1.7699
19356TIP3   OH279482   4.386   4.524   2.921  0.7839 -0.3022  0.2450
19356TIP3    H179483   4.306   4.549   2.874  1.8797  2.7711 -0.2273
19356TIP3    H279484   4.361   4.446   2.972 -2.8550  1.1645  1.0334
19357TIP3   OH279485   1.882   2.982   0.057  0.3470  0.2970  0.8494
19357TIP3    H179486   1.975   2.959   0.058  0.8032  1.6652 -1.9122
19357TIP3    H279487   1.838   2.905   0.022  0.4429 -0.2242  1.8365
19358TIP3   OH279488   5.664   5.581   1.099 -0.7340 -0.0039 -0.1193
19358TIP3    H179489   5.732   5.516   1.082  0.7797  1.1033  1.2160
19358TIP3    H279490   5.668   5.640   1.024 -1.9098 -1.2452 -1.1903
19359TIP3   OH279491   0.038   1.152   0.079 -0.3606  0.1116 -0.3073
19359TIP3    H179492   0.064   1.220   0.141 -0.6838 -1.2660  1.4093
19359TIP3    H279493   0.097   1.079   0.098 -2.1970 -1.3037  0.2775
19360TIP3   OH279494   1.157   2.676  12.820  0.5416 -0.4777 -0.3586
19360TIP3    H179495   1.167   2.748  12.883 -1.4167  1.0980 -1.7174
19360TIP3    H279496   1.126   2.602  12.873  1.3748  0.0303  0.8945
19361TIP3   OH279497   1.686   1.689  15.350 -0.1796 -0.3475  0.3917
19361TIP3    H179498   1.715   1.711  15.262 -0.8365 -2.2654 -0.3630
19361TIP3    H279499   1.628   1.760  15.376 -0.8307 -0.2738 -1.1703
19362TIP3   OH279500   2.591   3.096  10.794  0.1247 -0.1206 -0.1157
19362TIP3    H179501   2.523   3.072  10.730  0.1406  1.1367 -0.6289
19362TIP3    H279502   2.616   3.185  10.770  1.4056 -0.2805  0.5639
19363TIP3   OH279503   0.066   0.556  15.439 -0.4681  0.1025 -0.1580
19363TIP3    H179504   0.073   0.575  15.345  1.9395 -0.6970 -0.2138
19363TIP3    H279505   0.157   0.549  15.469 -1.1482  1.1126  2.4374
19364TIP3   OH279506   4.730   0.016   0.076  0.0356 -0.0495  0.5570
19364TIP3    H179507   4.750  -0.010  -0.014 -0.5568  2.0965 -0.2678
19364TIP3    H279508   4.811  -0.002   0.124  0.0388 -2.1543 -0.1567
19365TIP3   OH279509   1.196   3.204   4.200 -0.4190 -0.2316  0.0038
19365TIP3    H179510   1.155   3.256   4.269  0.5448  0.0768  0.3730
19365TIP3    H279511   1.208   3.266   4.127  0.0390 -0.1232  0.1657
19366TIP3   OH279512   5.023   6.681   4.263  0.3689 -0.1126 -1.3727
19366TIP3    H179513   5.067   6.602   4.234  0.9005 -0.6603  0.7632
19366TIP3    H279514   5.087   6.751   4.249  1.2560 -0.6248  0.0028
19367TIP3   OH279515   3.470   1.252   2.247 -0.0069 -0.0589  0.3332
19367TIP3    H179516   3.389   1.241   2.296  1.4233  2.2557  3.5855
19367TIP3    H279517   3.539   1.254   2.314  2.9170 -2.3188 -2.2469
19368TIP3   OH279518   4.808   1.073   5.440 -0.0305  0.1574  0.2091
19368TIP3    H179519   4.806   1.022   5.521  0.4045 -1.9256 -1.0026
19368TIP3    H279520   4.763   1.017   5.376  2.3876  0.2384 -1.7198
19369TIP3   OH279521   1.464   2.978  11.427  0.7491 -0.4758 -0.6987
19369TIP3    H179522   1.470   3.014  11.339 -1.0939  1.0524 -0.2669
19369TIP3    H279523   1.396   2.910  11.420  2.6048 -2.4290 -1.0062
19370TIP3   OH279524   3.495   6.010  13.188  0.7184 -0.1404  0.2488
19370TIP3    H179525   3.569   5.976  13.237  0.2934 -1.3446  0.0931
19370TIP3    H279526   3.423   6.013  13.251  0.7732  0.5799  0.2844
19371TIP3   OH279527   3.133   4.279  13.564 -0.3567  0.0878 -0.0736
19371TIP3    H179528   3.122   4.212  13.496 -1.1751 -0.7027  0.8165
19371TIP3    H279529   3.045   4.314  13.579  0.0667  1.4385 -0.5668
19372TIP3   OH279530   4.428   3.635   1.726 -0.1881  0.4010  0.5215
19372TIP3    H179531   4.440   3.680   1.642 -1.2043  0.2425  0.2746
19372TIP3    H279532   4.506   3.656   1.776  1.0341 -0.5227 -0.9185
19373TIP3   OH279533   0.773   0.301   0.947  0.1553 -0.3997 -0.2468
19373TIP3    H179534   0.774   0.395   0.967 -1.3448 -0.3803 -0.1795
19373TIP3    H279535   0.704   0.291   0.882  0.2750 -1.4735 -0.2296
19374TIP3   OH279536   6.363   1.027  13.847 -0.1959 -0.6048  0.7739
19374TIP3    H179537   6.449   1.063  13.829 -0.0965 -1.3942 -0.3889
19374TIP3    H279538   6.317   1.097  13.894  0.8944 -0.0001  0.9622
19375TIP3   OH279539   3.891   5.689   4.799 -0.5410  0.2477  0.3350
19375TIP3    H179540   3.805   5.654   4.776 -0.2202 -0.9775  0.9300
19375TIP3    H279541   3.951   5.649   4.737 -0.5295  2.1643 -0.9804
19376TIP3   OH279542   1.748   3.773   3.380 -0.6320  0.0528  0.0674
19376TIP3    H179543   1.794   3.704   3.332  1.6478  1.8064 -0.4513
19376TIP3    H279544   1.754   3.849   3.323 -2.2555  0.9634  1.0320
19377TIP3   OH279545   5.416   5.551  13.656 -0.0897 -0.5011  0.0939
19377TIP3    H179546   5.455   5.494  13.589 -1.0008 -1.1838  0.1182
19377TIP3    H279547   5.385   5.491  13.723 -0.1608  0.1044  0.6088
19378TIP3   OH279548   1.202   3.743  12.826  0.0509 -0.3424  0.0319
19378TIP3    H179549   1.119   3.697  12.825  0.3932 -1.1686  2.2881
19378TIP3    H279550   1.183   3.830  12.791 -2.5612  0.6041  3.2674
19379TIP3   OH279551   4.345   5.304  14.825 -0.2136 -0.0212 -0.1187
19379TIP3    H179552   4.421   5.251  14.802 -0.4211 -0.5633  0.3921
19379TIP3    H279553   4.300   5.319  14.741  0.5791  0.5247 -0.4573
19380TIP3   OH279554   2.564   1.351  13.276 -0.0845 -0.8503 -0.2300
19380TIP3    H179555   2.632   1.308  13.328  0.7043 -0.4271 -0.9051
19380TIP3    H279556   2.601   1.436  13.253 -1.3445 -0.0826  0.4671
19381TIP3   OH279557   5.219   6.300  15.448  0.1399  0.4832  0.8036
19381TIP3    H179558   5.155   6.364  15.417  1.2255  0.6342 -1.2498
19381TIP3    H279559   5.296   6.351  15.471  0.2937  0.0925  1.1763
19382TIP3   OH279560   1.053   3.124  16.861 -0.0458  0.1353 -0.1462
19382TIP3    H179561   1.106   3.166  16.793 -0.6941  1.6240  0.2361
19382TIP3    H279562   1.039   3.035  16.828  0.4178  0.5413 -1.5231
19383TIP3   OH279563   0.850   5.856   0.127 -0.5723 -0.1196  0.0467
19383TIP3    H179564   0.848   5.817   0.214  2.5597  1.2860  0.9100
19383TIP3    H279565   0.791   5.932   0.134  0.7436  0.8296  1.4747
19384TIP3   OH279566   4.165   4.412   2.574  0.0244  0.2390  0.1885
19384TIP3    H179567   4.240   4.461   2.539 -0.3034  1.7362  1.4728
19384TIP3    H279568   4.145   4.455   2.657 -1.6433 -0.7648  0.3489
19385TIP3   OH279569   6.001   6.436  11.860 -0.0617 -0.1449 -0.0249
19385TIP3    H179570   6.010   6.341  11.867 -0.6781 -0.2522 -0.6244
19385TIP3    H279571   5.970   6.451  11.771  1.3844  0.7256 -0.4154
19386TIP3   OH279572   5.557   2.850   5.286 -0.4986 -0.2079 -0.0512
19386TIP3    H179573   5.469   2.882   5.306  0.0516  1.2553  0.0862
19386TIP3    H279574   5.547   2.754   5.284 -2.0227 -0.0823  0.2499
19387TIP3   OH279575   6.216   6.204   2.912 -0.6841 -1.0151  0.5908
19387TIP3    H179576   6.288   6.150   2.945 -0.4344 -0.5678  0.7967
19387TIP3    H279577   6.232   6.210   2.818 -0.1813 -0.5321  0.7007
19388TIP3   OH279578   6.224   0.619   2.887 -0.2670 -0.0990 -0.1146
19388TIP3    H179579   6.234   0.698   2.940  1.3789 -2.2976  3.2303
19388TIP3    H279580   6.143   0.579   2.918 -0.1380 -0.6168 -0.4281
19389TIP3   OH279581   4.215   1.188   3.144 -0.2628 -0.1799  0.5713
19389TIP3    H179582   4.165   1.187   3.062  1.4813  1.4760 -0.6099
19389TIP3    H279583   4.298   1.145   3.122 -0.1249 -0.5508  1.7517
19390TIP3   OH279584   2.855   2.009   5.867  0.5100 -0.0484  0.4012
19390TIP3    H179585   2.888   1.960   5.942 -1.3145  0.1099  1.3647
19390TIP3    H279586   2.911   2.087   5.863  2.4472 -1.3996 -0.2090
19391TIP3   OH279587   5.746   2.652  12.983  0.0083 -0.3212  0.2000
19391TIP3    H179588   5.694   2.618  13.056 -1.1835 -0.5678 -0.7379
19391TIP3    H279589   5.738   2.586  12.915 -0.7072  0.8920 -0.9356
19392TIP3   OH279590   1.219   0.926   0.926 -0.3849  0.0021  0.1534
19392TIP3    H179591   1.267   0.863   0.873 -0.8524 -1.0744  0.9741
19392TIP3    H279592   1.260   1.010   0.906  0.6927 -0.6433 -0.4592
19393TIP3   OH279593   2.912   3.321   5.502  0.5852 -0.4444  0.0949
19393TIP3    H179594   2.917   3.239   5.453  1.0619  0.7907 -2.0623
19393TIP3    H279595   3.003   3.349   5.511  0.4334 -0.2086  0.9491
19394TIP3   OH279596   0.458   4.879   0.756 -0.4883 -0.1630  0.1920
19394TIP3    H179597   0.435   4.864   0.664  0.4890 -1.4353  0.1184
19394TIP3    H279598   0.529   4.943   0.753 -0.4599 -0.1999  0.0585
19395TIP3   OH279599   5.575   5.003   3.308 -0.7080 -0.1404  0.3300
19395TIP3    H179600   5.564   5.079   3.365  2.2308 -0.2529  1.2211
19395TIP3    H279601   5.633   4.945   3.358  2.5425  0.0059 -2.8913
19396TIP3   OH279602   6.109   3.749   4.564  0.0549  0.1611 -0.1776
19396TIP3    H179603   6.135   3.771   4.474  2.3144  0.6368  0.5426
19396TIP3    H279604   6.139   3.659   4.576  1.7797  0.8347  0.7870
19397TIP3   OH279605   2.513   0.314   0.167  0.2010  0.3060  0.1953
19397TIP3    H179606   2.572   0.261   0.114  2.2077  1.6968  0.9022
19397TIP3    H279607   2.494   0.259   0.243  3.5584  0.9957  1.7278
19398TIP3   OH279608   6.587   5.303   6.058 -0.4538 -0.2481 -0.0950
19398TIP3    H179609   6.569   5.354   5.979 -2.5038 -0.9214 -0.1274
19398TIP3    H279610   6.535   5.346   6.126  0.6876 -0.1424  0.7359
19399TIP3   OH279611   4.441   1.293  15.036 -0.0508 -0.5369 -0.0424
19399TIP3    H179612   4.394   1.232  14.979  2.0035 -0.4155 -2.0268
19399TIP3    H279613   4.397   1.377  15.022 -1.2650 -1.0274  0.6935
19400TIP3   OH279614   3.298   0.481  13.852 -0.1579 -0.2715  0.1773
19400TIP3    H179615   3.284   0.417  13.921 -0.4153  0.9886  1.3322
19400TIP3    H279616   3.213   0.489  13.809  0.0118 -1.0856 -0.3216
19401TIP3   OH279617   2.684   3.466  15.869  0.6056 -0.4135  0.2812
19401TIP3    H179618   2.718   3.542  15.917  1.3203 -0.7765  0.3670
19401TIP3    H279619   2.630   3.504  15.800  0.3708  0.1465  0.7640
19402TIP3   OH279620   0.309   0.409  12.201 -0.3476 -0.1813 -0.0181
19402TIP3    H179621   0.304   0.324  12.245  0.9427 -0.5041 -0.4563
19402TIP3    H279622   0.383   0.401  12.142 -0.7784  0.9515 -0.7417
19403TIP3   OH279623   1.787   1.852   1.287 -0.1003 -0.0708  0.1539
19403TIP3    H179624   1.712   1.833   1.230  0.8214  0.3003 -1.2167
19403TIP3    H279625   1.789   1.948   1.292 -0.2676 -0.1042  0.9574
19404TIP3   OH279626   1.360   1.294  11.285 -0.0637  0.5440 -0.4050
19404TIP3    H179627   1.410   1.240  11.224  0.7165 -1.3376  1.7612
19404TIP3    H279628   1.412   1.375  11.293  0.7206  0.1096 -0.9550
19405TIP3   OH279629   1.986   2.477  12.981  0.3680 -0.0864 -0.4044
19405TIP3    H179630   1.968   2.543  13.049  0.8365  0.3607 -0.7026
19405TIP3    H279631   1.975   2.524  12.899  4.8080  0.9275 -0.6875
19406TIP3   OH279632   1.136   2.184  16.062 -0.4751 -0.3310  0.0048
19406TIP3    H179633   1.134   2.133  15.981 -0.0184  0.5101 -0.5433
19406TIP3    H279634   1.220   2.162  16.102 -0.0587  0.3491 -0.4768
19407TIP3   OH279635   3.015   2.366  11.156  0.9076  0.0295  0.2122
19407TIP3    H179636   3.052   2.398  11.238  1.6997  1.0975 -0.5309
19407TIP3    H279637   3.081   2.388  11.090  0.9167 -2.0255 -0.5411
19408TIP3   OH279638   3.323   2.063   0.805 -0.2447  0.2764 -0.3414
19408TIP3    H179639   3.408   2.047   0.846 -0.4912 -0.5429 -0.1209
19408TIP3    H279640   3.302   2.154   0.827  0.5415  0.4610 -0.3429
19409TIP3   OH279641   2.178   4.828  16.426 -0.4567 -0.2190  0.0144
19409TIP3    H179642   2.096   4.780  16.433 -0.9728  0.6465  0.0963
19409TIP3    H279643   2.210   4.833  16.516 -0.3744 -0.4592 -0.0028
19410TIP3   OH279644   5.593   6.324   0.277 -0.3698  0.4509  0.3866
19410TIP3    H179645   5.623   6.270   0.203 -0.9853 -0.0032  0.4648
19410TIP3    H279646   5.663   6.388   0.289 -0.3679  0.6786 -0.7436
19411TIP3   OH279647   1.067   0.782   6.039 -0.1606 -0.0081  0.9743
19411TIP3    H179648   1.057   0.833   6.120 -0.5501 -1.5983  1.9888
19411TIP3    H279649   1.049   0.691   6.066 -1.6795 -0.4321 -1.1742
19412TIP3   OH279650   4.216   5.444   2.259  0.3304  0.1152 -0.1599
19412TIP3    H179651   4.258   5.521   2.220 -0.1251  1.8356  2.4640
19412TIP3    H279652   4.137   5.431   2.206  1.5654 -0.0515 -2.0694
19413TIP3   OH279653   6.696   1.731   5.513  0.2651 -0.1763 -0.0442
19413TIP3    H179654   6.649   1.745   5.595 -0.8987  1.2258 -0.8992
19413TIP3    H279655   6.763   1.666   5.535 -1.3567 -1.4556  1.4881
19414TIP3   OH279656   4.331   6.097  13.181  0.1848  0.0658  0.0354
19414TIP3    H179657   4.413   6.063  13.145  0.5595  1.0825 -0.1107
19414TIP3    H279658   4.272   6.101  13.106  0.3018  0.2098 -0.0503
19415TIP3   OH279659   3.119   6.612  14.208  0.0047 -0.0926 -0.3160
19415TIP3    H179660   3.148   6.539  14.153  2.3153 -0.0534  0.7496
19415TIP3    H279661   3.200   6.651  14.240 -1.0884  3.5182 -1.5033
19416TIP3   OH279662   2.354   3.818   2.949  0.1541 -0.2931 -0.1898
19416TIP3    H179663   2.326   3.907   2.973 -1.2861 -0.7824  0.0360
19416TIP3    H279664   2.409   3.831   2.871  2.2398  1.0105  1.4030
19417TIP3   OH279665   6.584   2.053  10.906  0.0645  0.5632  0.1876
19417TIP3    H179666   6.534   2.101  10.840 -1.2329 -1.9929 -0.8078
19417TIP3    H279667   6.658   2.016  10.858  0.3554  0.5224  0.6631
19418TIP3   OH279668   1.309   0.659  17.126  0.5433 -0.2674  0.2206
19418TIP3    H179669   1.364   0.732  17.155  0.5898 -0.5414  0.8454
19418TIP3    H279670   1.353   0.581  17.159  0.8699 -0.6341 -1.0550
19419TIP3   OH279671   5.104   3.778  14.496 -0.5898  0.2966 -0.2407
19419TIP3    H179672   5.088   3.736  14.580 -0.1638  1.3594  0.4006
19419TIP3    H279673   5.170   3.723  14.454 -1.3762 -0.6768 -0.2311
19420TIP3   OH279674   3.498   1.225   3.892  0.4933  0.2978  0.2945
19420TIP3    H179675   3.448   1.162   3.944  1.3676 -1.2764 -0.7003
19420TIP3    H279676   3.513   1.299   3.951  0.8779 -1.1445  2.0646
19421TIP3   OH279677   6.447   5.327   0.139 -0.3047 -0.1492 -0.2425
19421TIP3    H179678   6.424   5.240   0.172  1.5387 -0.6919 -0.3034
19421TIP3    H279679   6.412   5.328   0.050  0.7989 -1.3669 -0.7226
19422TIP3   OH279680   6.121   6.754  16.871 -0.8356 -0.4005  0.2437
19422TIP3    H179681   6.117   6.663  16.844 -0.8842 -0.8584  1.7203
19422TIP3    H279682   6.085   6.803  16.797  0.1194 -1.4776 -0.9719
19423TIP3   OH279683   2.704   0.412   0.330  0.0384 -0.8443 -0.3197
19423TIP3    H179684   2.626   0.404   0.275  0.4396 -3.5017 -0.6193
19423TIP3    H279685   2.777   0.419   0.268  0.2166 -0.0182 -0.0428
19424TIP3   OH279686   4.586   1.014   5.765 -0.0368 -0.0631  0.6775
19424TIP3    H179687   4.545   0.958   5.832  0.8010 -2.0983 -0.4193
19424TIP3    H279688   4.513   1.039   5.708 -0.3678 -0.4239  0.9323
19425TIP3   OH279689   2.669   2.365  14.156  0.0193 -0.1746 -0.8286
19425TIP3    H179690   2.590   2.356  14.104  0.3493 -1.0218 -1.2072
19425TIP3    H279691   2.647   2.328  14.241 -0.3268  0.6203 -0.5710
19426TIP3   OH279692   5.274   1.081   3.602  0.0249 -0.8289  0.0623
19426TIP3    H179693   5.216   1.047   3.670 -3.1640  2.4755 -0.6911
19426TIP3    H279694   5.317   1.156   3.643  1.3997 -1.3622 -0.3597
19427TIP3   OH279695   5.635   2.338   1.274  0.2156  0.0300 -0.0254
19427TIP3    H179696   5.650   2.409   1.211 -0.8088 -0.4974 -0.8976
19427TIP3    H279697   5.547   2.306   1.254 -0.0369 -0.3483  1.5030
19428TIP3   OH279698   2.944   2.829   2.852 -0.4798  0.1774  0.3172
19428TIP3    H179699   2.990   2.871   2.924  1.0131  0.6081 -0.8212
19428TIP3    H279700   2.988   2.861   2.773 -2.5189  0.2982 -0.8483
19429TIP3   OH279701   4.856   4.809   0.582  0.3120  0.4932 -0.1896
19429TIP3    H179702   4.873   4.715   0.585  2.6291  0.8646  0.1181
19429TIP3    H279703   4.901   4.844   0.658 -1.0411  1.8121  0.0496
19430TIP3   OH279704   1.721   0.138   2.133 -0.6351 -0.4630  0.3346
19430TIP3    H179705   1.666   0.151   2.056 -0.2024  0.4454  0.1625
19430TIP3    H279706   1.747   0.045   2.129  0.3526 -0.1602 -1.2857
19431TIP3   OH279707   5.597   5.436  13.494 -0.1036  0.0236  0.5521
19431TIP3    H179708   5.666   5.416  13.556  0.7067 -0.0126 -0.3357
19431TIP3    H279709   5.643   5.469  13.417 -1.0205 -0.7485 -0.3529
19432TIP3   OH279710   2.725   4.769   3.910  0.0274  0.2047  0.0154
19432TIP3    H179711   2.636   4.754   3.879 -0.0218 -0.0745  0.2859
19432TIP3    H279712   2.780   4.716   3.851  0.1509  1.4414 -1.0182
19433TIP3   OH279713   0.887   4.519   2.335  0.4373  0.1794 -0.1616
19433TIP3    H179714   0.876   4.473   2.418  2.9925  0.9436  0.6770
19433TIP3    H279715   0.901   4.610   2.360 -0.6096  0.7545 -1.5671
19434TIP3   OH279716   2.885   2.957   4.517 -0.2820 -0.3078 -0.1169
19434TIP3    H179717   2.906   2.920   4.431  1.3791  0.3156 -0.0119
19434TIP3    H279718   2.829   3.032   4.498  1.4776  0.8942 -0.8510
19435TIP3   OH279719   3.595   2.578  13.136  0.3697  0.0795  0.2838
19435TIP3    H179720   3.690   2.586  13.140  0.5115 -1.4750  0.4428
19435TIP3    H279721   3.578   2.535  13.052  0.0086 -1.8956  1.3133
19436TIP3   OH279722   4.027   4.680  15.531 -0.1117 -0.1431 -0.0266
19436TIP3    H179723   3.957   4.660  15.593  2.1284 -0.9408  2.4356
19436TIP3    H279724   3.982   4.714  15.454 -3.3157 -2.3716  0.6722
19437TIP3   OH279725   3.336   3.342  13.670  0.4117  0.1739  0.0661
19437TIP3    H179726   3.317   3.435  13.654  1.8452  0.5827  0.5748
19437TIP3    H279727   3.412   3.343  13.727 -0.2611 -1.3273  1.0436
19438TIP3   OH279728   5.839   4.798  14.201 -0.3308 -0.2354 -0.3291
19438TIP3    H179729   5.839   4.734  14.130  3.4941 -1.3777  0.4505
19438TIP3    H279730   5.857   4.882  14.158  0.0289 -0.6045 -0.9095
19439TIP3   OH279731   2.392   1.082   3.924  0.5003 -0.3000  0.0180
19439TIP3    H179732   2.360   0.993   3.939  0.8640 -0.0638  2.7195
19439TIP3    H279733   2.487   1.075   3.935  0.3413  0.7973  3.2263
19440TIP3   OH279734   4.633   2.598   3.887  0.1747 -0.0303 -0.0514
19440TIP3    H179735   4.600   2.509   3.889 -0.4632  0.1828  2.1135
19440TIP3    H279736   4.582   2.642   3.819 -1.8208 -0.5307  1.0568
19441TIP3   OH279737   4.202   6.575  15.626  0.2251  0.5041 -0.6321
19441TIP3    H179738   4.185   6.574  15.531  1.7715  1.1143 -0.9400
19441TIP3    H279739   4.263   6.503  15.641 -1.3078 -0.6790  0.2082
19442TIP3   OH279740   5.833   0.508  12.802 -0.8991 -0.1113 -0.3573
19442TIP3    H179741   5.757   0.454  12.782 -1.1145  0.5244 -1.2973
19442TIP3    H279742   5.856   0.484  12.893 -0.9151 -1.8328 -0.7677
19443TIP3   OH279743   0.558   0.710   5.561 -0.5578 -0.0118 -0.1942
19443TIP3    H179744   0.588   0.703   5.652  0.1127  2.0327 -0.1969
19443TIP3    H279745   0.632   0.749   5.515 -1.8833  1.6800 -0.9862
19444TIP3   OH279746   4.889   1.220   3.975  0.7050  0.4990  0.1417
19444TIP3    H179747   4.889   1.141   3.920  1.0262 -0.2616  1.2138
19444TIP3    H279748   4.982   1.238   3.990  0.6945  1.8795 -1.1765
19445TIP3   OH279749   3.328   0.834  13.425  0.0566 -0.2345  0.2096
19445TIP3    H179750   3.244   0.864  13.390 -0.8388 -0.8506  1.7166
19445TIP3    H279751   3.375   0.914  13.448  0.3874  0.1574 -1.6789
19446TIP3   OH279752   3.445   0.932  11.890 -0.0753 -0.0788  0.2568
19446TIP3    H179753   3.454   0.882  11.809  0.9289 -0.0079  0.3095
19446TIP3    H279754   3.493   1.014  11.873 -0.6103  0.3168  0.6164
19447TIP3   OH279755   2.499   2.846   0.715  0.5041 -0.0984 -0.2620
19447TIP3    H179756   2.425   2.900   0.689  0.5969 -0.0597 -0.4486
19447TIP3    H279757   2.576   2.895   0.686  0.6394  0.2304  0.6022
19448TIP3   OH279758   0.018   1.919   3.252  0.2796  0.6934  0.7536
19448TIP3    H179759   0.091   1.942   3.309  0.4972  0.8716  0.4100
19448TIP3    H279760  -0.034   2.000   3.245  1.5463  1.4155 -1.1981
19449TIP3   OH279761   0.218   6.365  13.991  0.1059 -0.3317 -0.0965
19449TIP3    H179762   0.204   6.439  14.050 -1.6971 -1.5100  1.0638
19449TIP3    H279763   0.135   6.355  13.944  0.2867 -1.6412 -0.1940
19450TIP3   OH279764   6.612   1.312   5.062  0.4380 -0.2781 -0.5969
19450TIP3    H179765   6.577   1.304   4.973 -0.3261  1.6266 -0.5143
19450TIP3    H279766   6.672   1.238   5.071 -0.9329 -1.6252 -1.9917
19451TIP3   OH279767   3.529   5.173  13.757 -0.5173 -0.0059 -0.3697
19451TIP3    H179768   3.480   5.189  13.838  0.6798 -0.1690  0.4048
19451TIP3    H279769   3.473   5.209  13.688 -1.4736  0.3034  0.5352
19452TIP3   OH279770   2.196   0.569  12.063 -0.3845 -0.2775  0.0870
19452TIP3    H179771   2.240   0.654  12.062  2.4657 -1.5343  2.6289
19452TIP3    H279772   2.112   0.586  12.106  0.0072  1.2853  0.2967
19453TIP3   OH279773   3.635   4.668  12.430 -0.0019 -0.6015  0.0476
19453TIP3    H179774   3.720   4.697  12.399  0.4742 -0.2133  1.6177
19453TIP3    H279775   3.595   4.746  12.468 -0.0281 -1.2710  1.4726
19454TIP3   OH279776   4.111   2.910   3.695 -0.3069 -0.0570 -0.9413
19454TIP3    H179777   4.020   2.881   3.702 -0.3283  0.0626 -0.7156
19454TIP3    H279778   4.156   2.868   3.767 -0.2796  0.2455 -0.7793
19455TIP3   OH279779   4.178   6.707  14.251 -0.3493  0.3938 -0.3072
19455TIP3    H179780   4.263   6.746  14.272  0.4985 -1.1792 -0.6642
19455TIP3    H279781   4.173   6.712  14.156 -0.2701 -0.2716 -0.3483
19456TIP3   OH279782   6.771   6.725  13.986  0.0470  0.0086 -0.0249
19456TIP3    H179783   6.839   6.704  13.922 -0.7763 -1.5802 -0.4378
19456TIP3    H279784   6.744   6.640  14.021 -1.8229  0.5658  0.0013
19457TIP3   OH279785   3.662   0.772  12.834 -0.2230  0.2999  0.0839
19457TIP3    H179786   3.632   0.704  12.895  0.0770  0.7672  0.7689
19457TIP3    H279787   3.635   0.854  12.874 -1.5105  0.5616 -1.2624
19458TIP3   OH279788   1.175   0.632  11.712  0.0719 -0.6631  0.1616
19458TIP3    H179789   1.158   0.650  11.804 -1.5290 -0.4343 -0.1476
19458TIP3    H279790   1.166   0.717  11.669  0.9332 -0.7431 -0.2152
19459TIP3   OH279791   5.242   1.728  14.633 -0.7106 -0.2955  0.0495
19459TIP3    H179792   5.300   1.701  14.562 -0.6783  1.2739 -0.5591
19459TIP3    H279793   5.260   1.666  14.704 -0.3838 -1.5897 -1.1266
19460TIP3   OH279794   2.648   5.528  16.445 -0.1992  0.0863 -0.1801
19460TIP3    H179795   2.588   5.550  16.373 -1.2826  0.3669  0.7906
19460TIP3    H279796   2.611   5.448  16.483  0.6287 -0.3203 -0.1946
19461TIP3   OH279797   0.151   4.212  11.373 -0.1617  0.0423 -0.2126
19461TIP3    H179798   0.083   4.271  11.407  1.2765  1.7530 -0.2102
19461TIP3    H279799   0.123   4.125  11.402 -1.5233  0.8822  1.1529
19462TIP3   OH279800   1.531   6.748  14.169 -0.2679 -0.2938 -0.0995
19462TIP3    H179801   1.490   6.683  14.112  0.6224  0.8890 -2.1507
19462TIP3    H279802   1.584   6.802  14.111 -0.2790  1.7378  1.6609
19463TIP3   OH279803   2.368   0.775   5.952  0.0057 -0.1099 -0.0306
19463TIP3    H179804   2.441   0.720   5.981  0.8961  0.0202 -1.9026
19463TIP3    H279805   2.337   0.734   5.871 -0.2878  1.2920 -0.6594
19464TIP3   OH279806   1.945   5.184   1.088  0.1854  0.9411  0.0575
19464TIP3    H179807   1.988   5.244   1.027  0.2591  1.5323  0.6760
19464TIP3    H279808   1.928   5.238   1.166  0.0126  0.2242  0.5202
19465TIP3   OH279809   6.612   3.443   3.506  0.0371 -0.1013  0.2737
19465TIP3    H179810   6.616   3.378   3.436  0.1290  0.9578 -0.7373
19465TIP3    H279811   6.693   3.431   3.555  0.2721 -0.4409 -0.1912
19466TIP3   OH279812   2.898   2.910   3.120  0.6817 -0.3675 -0.5043
19466TIP3    H179813   2.968   2.886   3.181  0.4989 -0.5472 -0.3628
19466TIP3    H279814   2.866   2.994   3.152 -1.9149 -2.1262  1.9064
19467TIP3   OH279815   1.964   1.788  12.404 -0.2541 -0.0807  0.2175
19467TIP3    H179816   2.018   1.866  12.395 -0.3809  0.5489  3.7149
19467TIP3    H279817   2.027   1.716  12.415 -0.1251 -0.7197 -3.3382
19468TIP3   OH279818   3.585   6.136   4.662  0.2762 -0.2868 -0.1801
19468TIP3    H179819   3.573   6.196   4.735 -0.0595 -0.5600 -0.0103
19468TIP3    H279820   3.513   6.074   4.669 -0.4927  0.4331 -1.4983
19469TIP3   OH279821   1.343   0.983   4.597  0.5776 -0.3276  0.7071
19469TIP3    H179822   1.258   0.938   4.591  1.5945 -2.4583  1.4439
19469TIP3    H279823   1.365   0.978   4.690  1.0766  1.0912  0.6755
19470TIP3   OH279824   0.122   1.981  12.723  0.1676 -0.2975 -0.1227
19470TIP3    H179825   0.066   1.910  12.754  2.9187 -1.8106  1.8639
19470TIP3    H279826   0.102   2.055  12.781 -1.2011 -0.0699 -0.8331
19471TIP3   OH279827   2.133   1.567   3.585 -0.0553 -0.3534  0.3039
19471TIP3    H179828   2.094   1.575   3.672 -2.1246 -2.1020 -0.4115
19471TIP3    H279829   2.080   1.624   3.530 -0.1415 -0.9558 -0.2390
19472TIP3   OH279830   3.081   3.720  14.332 -0.3544 -0.1484  0.2041
19472TIP3    H179831   3.034   3.665  14.269  1.4372 -0.7539 -0.6771
19472TIP3    H279832   3.082   3.668  14.413 -2.0255  0.3122  0.5493
19473TIP3   OH279833   1.538   4.546  15.890  0.4546  0.4473  0.5238
19473TIP3    H179834   1.609   4.518  15.832 -1.6621 -1.2776 -1.4259
19473TIP3    H279835   1.516   4.467  15.940 -1.1927  0.4377 -0.1657
19474TIP3   OH279836   5.685   4.331  14.771  0.0208  0.4380  0.9949
19474TIP3    H179837   5.591   4.318  14.786 -0.0379 -0.4610 -0.0499
19474TIP3    H279838   5.690   4.368  14.683  0.7539 -1.8300  0.0285
19475TIP3   OH279839   2.756   2.994  13.811 -0.1806  0.0867  0.1140
19475TIP3    H179840   2.833   2.937  13.804  1.6797  2.2020  1.6897
19475TIP3    H279841   2.739   3.022  13.721  0.0647 -1.4180 -0.4280
19476TIP3   OH279842   3.032   0.055   2.165 -0.4138  0.6682  0.8264
19476TIP3    H179843   3.067   0.122   2.224  0.5154  1.5877 -0.7015
19476TIP3    H279844   2.946   0.088   2.139 -0.8969  0.1821  1.7473
19477TIP3   OH279845   0.261   1.464   4.216  0.1416 -0.3786 -0.6967
19477TIP3    H179846   0.262   1.392   4.279 -1.3710  0.1773  0.0178
19477TIP3    H279847   0.326   1.526   4.248 -0.8190  0.0328  0.5064
19478TIP3   OH279848   2.230   3.931   1.647  0.4600  0.2060 -0.5759
19478TIP3    H179849   2.182   3.958   1.725 -0.1870 -0.9689 -0.5424
19478TIP3    H279850   2.321   3.950   1.667  0.2376  0.4738  0.2301
19479TIP3   OH279851   1.787   5.844  16.914 -0.7129 -0.0224 -0.5871
19479TIP3    H179852   1.740   5.801  16.986  0.7231 -1.4992 -0.4772
19479TIP3    H279853   1.858   5.891  16.957 -0.0027 -0.6984 -0.9873
19480TIP3   OH279854   4.370   1.599   5.242 -0.1335  0.0781 -0.0105
19480TIP3    H179855   4.276   1.599   5.222  0.2155 -2.9796 -2.4357
19480TIP3    H279856   4.412   1.629   5.162  1.0113 -3.1337 -0.7871
19481TIP3   OH279857   0.741   6.751   1.614 -0.4185  0.0327 -0.1122
19481TIP3    H179858   0.662   6.749   1.669 -0.8537  1.0387 -0.6833
19481TIP3    H279859   0.724   6.819   1.549 -0.1341 -1.4552 -1.8399
19482TIP3   OH279860   0.980   4.640  12.941  0.5989 -0.4444 -0.5934
19482TIP3    H179861   1.009   4.677  13.024  1.6837 -0.7827 -0.8067
19482TIP3    H279862   1.043   4.672  12.876 -1.2130  1.2505 -1.6308
19483TIP3   OH279863   3.361   1.943  11.292 -0.4275  0.0399  0.1568
19483TIP3    H179864   3.377   1.850  11.308 -0.8400  0.1265  1.2185
19483TIP3    H279865   3.445   1.985  11.308 -0.1896 -0.1653 -0.5273
19484TIP3   OH279866   0.765   1.670  11.454 -0.0756  0.8338  0.0201
19484TIP3    H179867   0.731   1.745  11.503  1.1323  1.4188 -0.0083
19484TIP3    H279868   0.860   1.676  11.463  0.0554 -0.5414 -0.2214
19485TIP3   OH279869   2.491   4.151   6.153 -0.4642 -0.7076  0.5065
19485TIP3    H179870   2.576   4.123   6.186 -0.4679 -0.0604  1.0879
19485TIP3    H279871   2.443   4.178   6.232 -0.2006  1.6341 -0.0622
19486TIP3   OH279872   6.146   5.476  13.212 -0.1960 -0.1622  0.1664
19486TIP3    H179873   6.198   5.554  13.193 -0.8511  0.1507 -0.3930
19486TIP3    H279874   6.071   5.482  13.153 -2.3034  0.7963  2.7664
19487TIP3   OH279875   3.574   6.469  16.251 -0.1297  0.3739 -0.1519
19487TIP3    H179876   3.594   6.538  16.188  2.3520 -0.0283  0.0913
19487TIP3    H279877   3.596   6.387  16.205 -1.6054 -0.1866  0.0786
19488TIP3   OH279878   4.468   5.434  16.556  0.2798 -0.0149 -0.4511
19488TIP3    H179879   4.445   5.452  16.465 -0.6151  0.5111 -0.1319
19488TIP3    H279880   4.562   5.417  16.554  0.3188  0.2570 -1.4317
19489TIP3   OH279881   0.608   2.666   4.894 -0.0336 -0.2675  0.0010
19489TIP3    H179882   0.688   2.639   4.940  1.0156  0.5361 -1.2915
19489TIP3    H279883   0.601   2.605   4.821 -0.1069  0.2142 -0.3955
19490TIP3   OH279884   3.924   2.433  16.732  0.2627  0.2650  0.3004
19490TIP3    H179885   4.009   2.389  16.730  0.3739  0.4987 -1.2008
19490TIP3    H279886   3.943   2.524  16.708 -0.4216  0.2707 -0.2494
19491TIP3   OH279887   6.234   4.891  11.774  0.2032 -0.1392  0.2694
19491TIP3    H179888   6.177   4.816  11.760 -1.2342  0.8201  0.8161
19491TIP3    H279889   6.178   4.958  11.813  1.6714  0.8885  0.7312
19492TIP3   OH279890   6.530   2.308  13.629  0.5598  0.1959  0.7240
19492TIP3    H179891   6.591   2.246  13.670 -0.2943 -1.7982 -0.8744
19492TIP3    H279892   6.449   2.259  13.617  0.1881  1.2138 -1.6220
19493TIP3   OH279893   4.005   4.984   1.155  0.2483 -0.3546  0.2969
19493TIP3    H179894   4.076   5.042   1.126  1.8058 -1.9755  0.7139
19493TIP3    H279895   4.048   4.920   1.212 -1.1078 -2.8868 -1.3512
19494TIP3   OH279896   1.961   6.697  16.914 -0.1005 -0.3188 -0.2614
19494TIP3    H179897   2.042   6.670  16.870  1.0566  1.6981  0.4706
19494TIP3    H279898   1.947   6.787  16.883 -1.2536 -0.1269  0.7672
19495TIP3   OH279899   3.305   3.875  15.455 -0.7351  0.3775  0.9770
19495TIP3    H179900   3.219   3.850  15.488 -1.1994  0.5295 -0.0925
19495TIP3    H279901   3.292   3.961  15.415 -0.4311 -0.2391 -0.5102
19496TIP3   OH279902   1.687   3.428  13.260 -0.3729 -0.4244  0.5780
19496TIP3    H179903   1.741   3.503  13.235  0.1017 -1.2768 -1.0629
19496TIP3    H279904   1.660   3.448  13.350 -1.3985  2.3729 -0.2277
19497TIP3   OH279905   1.233   3.186   5.400 -0.2622 -0.3635  0.0017
19497TIP3    H179906   1.264   3.267   5.359  1.0842 -1.2171 -0.7542
19497TIP3    H279907   1.311   3.129   5.403 -0.5644 -0.7768  2.7460
19498TIP3   OH279908   1.020   0.988   1.647 -0.8821 -0.1384  0.6179
19498TIP3    H179909   1.097   1.042   1.667 -1.2351  0.4723  0.3657
19498TIP3    H279910   1.048   0.932   1.574 -0.7953  0.3606  0.2641
19499TIP3   OH279911   1.126   3.550   2.726  0.6388  0.2363  0.9578
19499TIP3    H179912   1.168   3.632   2.753 -1.0411  0.8770  1.7497
19499TIP3    H279913   1.159   3.485   2.787  0.6608  0.6744  1.4169
19500TIP3   OH279914   4.900   6.635  10.530 -0.2272  0.1525  0.0060
19500TIP3    H179915   4.994   6.620  10.519 -0.3370 -0.1190 -0.6278
19500TIP3    H279916   4.885   6.721  10.490 -0.1892  0.3512  0.4225
19501TIP3   OH279917   5.779   3.806   5.061  0.7406 -0.1440  0.1716
19501TIP3    H179918   5.792   3.883   5.117 -0.0401 -0.9211  1.4615
19501TIP3    H279919   5.724   3.838   4.990 -1.7936 -0.0291  2.0521
19502TIP3   OH279920   1.856   4.735   4.983  0.3059  0.2191 -0.4887
19502TIP3    H179921   1.815   4.769   5.063 -1.7795 -0.9318 -0.9887
19502TIP3    H279922   1.937   4.694   5.014  0.8913  2.0665  0.6344
19503TIP3   OH279923   1.864   6.622   0.207 -0.6081  0.6434 -0.6512
19503TIP3    H179924   1.838   6.549   0.262  0.8707  0.6857  0.1551
19503TIP3    H279925   1.831   6.700   0.251  0.7788  0.6977  0.3696
19504TIP3   OH279926   4.588   3.185  16.445 -0.1097  0.2551 -0.3401
19504TIP3    H179927   4.588   3.267  16.396 -0.4324  0.6043  0.2274
19504TIP3    H279928   4.596   3.116  16.379  0.5577  0.7612 -0.7843
19505TIP3   OH279929   3.505   3.641  11.518 -0.6351  0.4749 -0.0846
19505TIP3    H179930   3.468   3.682  11.596 -0.1495  0.5033  0.1354
19505TIP3    H279931   3.444   3.571  11.496 -0.7752  0.4641  0.3253
19506TIP3   OH279932   4.850   1.457   4.251 -0.7267  0.2861 -0.0435
19506TIP3    H179933   4.876   1.366   4.266  3.0008  1.2674  0.4578
19506TIP3    H279934   4.792   1.478   4.325 -0.1342 -1.1469  0.8578
19507TIP3   OH279935   3.277   2.275   2.367  0.5749  0.0367  0.6313
19507TIP3    H179936   3.196   2.236   2.335 -0.0271  1.3211  0.5505
19507TIP3    H279937   3.267   2.278   2.462  1.0215 -0.8356  0.7203
19508TIP3   OH279938   3.947   0.630   4.961 -0.3330  0.3919  0.2505
19508TIP3    H179939   3.939   0.638   4.866 -1.6922  0.7093  0.3695
19508TIP3    H279940   3.894   0.553   4.983  0.5422 -0.1071  0.7016
19509TIP3   OH279941   4.538   2.675   5.212  0.1389  0.2266 -0.2706
19509TIP3    H179942   4.598   2.666   5.286  1.4327  0.4568 -1.2678
19509TIP3    H279943   4.457   2.707   5.252  0.6051 -0.2208  1.1230
19510TIP3   OH279944   2.588   2.243  11.161  0.0963  0.7365  0.6314
19510TIP3    H179945   2.570   2.336  11.145 -0.8419  0.8943  2.4233
19510TIP3    H279946   2.557   2.199  11.082  0.5062  1.9230 -0.2298
19511TIP3   OH279947   2.443   2.450  11.029 -0.2482  0.2779  0.4126
19511TIP3    H179948   2.456   2.407  10.944  1.7538 -1.0740  1.3195
19511TIP3    H279949   2.413   2.538  11.007  0.4791  0.0550 -1.7214
19512TIP3   OH279950   4.206   0.087   4.262  0.0171  0.0439 -0.3886
19512TIP3    H179951   4.158   0.037   4.327 -0.0546  0.1265 -0.3782
19512TIP3    H279952   4.297   0.058   4.272  0.0760  0.3661  0.0374
19513TIP3   OH279953   3.327   0.793   3.856  0.2571 -0.0266  0.3798
19513TIP3    H179954   3.250   0.738   3.872  0.6121 -0.6911 -0.1161
19513TIP3    H279955   3.292   0.878   3.832 -0.3859 -0.7774 -1.5379
19514TIP3   OH279956   4.766   0.848  15.868  0.1770 -0.0639  0.2021
19514TIP3    H179957   4.767   0.928  15.815 -1.7405 -0.0971  0.0240
19514TIP3    H279958   4.743   0.779  15.806 -0.8782 -0.2991  0.8288
19515TIP3   OH279959   4.036   2.132   0.965  0.8273  0.0590 -0.2468
19515TIP3    H179960   4.131   2.134   0.969  0.8618 -1.0798 -0.1609
19515TIP3    H279961   4.015   2.059   0.907 -0.0017 -1.3443  1.7074
19516TIP3   OH279962   0.772   3.922   0.851 -0.5091  0.0925 -0.0588
19516TIP3    H179963   0.797   3.834   0.821  1.1627 -0.9191  3.7190
19516TIP3    H279964   0.854   3.972   0.851 -0.4944  0.1590  2.1009
19517TIP3   OH279965   4.412   4.953  16.642  0.2377  0.0716  0.7769
19517TIP3    H179966   4.408   4.991  16.554  3.2160  0.0188  0.5254
19517TIP3    H279967   4.324   4.917  16.656  0.0908 -1.5353 -2.9301
19518TIP3   OH279968   2.284   5.729   0.716 -0.4453  0.2088 -0.1368
19518TIP3    H179969   2.275   5.645   0.671 -1.5221 -0.7303  1.7215
19518TIP3    H279970   2.327   5.707   0.799  0.0510  1.6421  0.0025
19519TIP3   OH279971   6.356   1.383  16.719 -0.8144  0.5690  0.3950
19519TIP3    H179972   6.347   1.470  16.758  1.3623  2.2539 -2.5373
19519TIP3    H279973   6.354   1.323  16.795 -1.9014  3.1453  2.5583
19520TIP3   OH279974   1.471   0.529   0.558  0.5393  0.1084  0.2712
19520TIP3    H179975   1.504   0.504   0.471 -0.3788 -0.0428 -0.0464
19520TIP3    H279976   1.547   0.521   0.616  1.0358 -0.3012 -0.4234
19521TIP3   OH279977   3.988   4.595  16.590 -0.5594 -0.1033 -0.7918
19521TIP3    H179978   3.907   4.608  16.541  0.1892  1.6185 -1.6472
19521TIP3    H279979   4.054   4.574  16.523  0.2234  1.0645 -0.4251
19522TIP3   OH279980   3.258   5.961  14.994  0.1277 -0.4752  0.3786
19522TIP3    H179981   3.296   5.887  14.947 -2.1463 -1.8731  0.5720
19522TIP3    H279982   3.319   5.978  15.066  1.2041 -1.4981 -0.2685
19523TIP3   OH279983   0.506   2.561   0.976  0.1299  0.0476 -0.2014
19523TIP3    H179984   0.503   2.637   0.918  1.2474  0.3054  0.0478
19523TIP3    H279985   0.511   2.599   1.064 -1.9546 -0.3350  0.1412
19524TIP3   OH279986   1.746   3.959  13.774 -0.2862  0.4362 -0.3426
19524TIP3    H179987   1.689   4.031  13.747 -0.4983  1.0598  1.6546
19524TIP3    H279988   1.830   3.979  13.733 -0.0860  2.3280  0.8685
19525TIP3   OH279989   1.971   4.991   3.146 -1.0034 -0.4619  0.0605
19525TIP3    H179990   1.919   5.069   3.165 -2.0609 -1.4651  1.5328
19525TIP3    H279991   1.925   4.949   3.073  0.0055  0.6367 -1.2609
19526TIP3   OH279992   1.301   3.146   0.218  0.2246 -0.0900  0.4450
19526TIP3    H179993   1.358   3.074   0.193 -0.1841 -0.3254  0.1742
19526TIP3    H279994   1.215   3.123   0.181  0.5413  1.5539 -1.4912
19527TIP3   OH279995   2.857   3.301   0.834  0.2938  0.2838  0.4576
19527TIP3    H179996   2.872   3.225   0.778  2.8496  0.8783  0.1727
19527TIP3    H279997   2.778   3.343   0.800 -0.2789 -1.3887 -0.3356
19528TIP3   OH279998   6.684   2.427   5.971 -0.2052 -0.0334 -0.0353
19528TIP3    H179999   6.764   2.377   5.991 -0.6951 -0.3692  1.2396
19528TIP3    H280000   6.714   2.500   5.917  0.4649 -1.9881 -2.4772
19529TIP3   OH280001   4.872   2.157  14.043  0.2192  0.1477  0.0657
19529TIP3    H180002   4.826   2.124  13.966  1.7666 -1.3155 -0.2987
19529TIP3    H280003   4.919   2.081  14.078  1.5653  1.3256  0.9581
19530TIP3   OH280004   5.825   0.096  17.009 -0.1523  0.4251  0.1809
19530TIP3    H180005   5.824   0.005  16.980 -2.3726 -0.1225  1.6814
19530TIP3    H280006   5.889   0.139  16.953 -0.2896 -1.6857 -1.7208
19531TIP3   OH280007   3.741   6.425  13.327  0.0770  0.4133 -0.1903
19531TIP3    H180008   3.657   6.381  13.315 -0.0757  0.8045 -0.5496
19531TIP3    H280009   3.755   6.425  13.422 -0.5620  0.7903 -0.0982
19532TIP3   OH280010   0.076   4.391  14.117  0.3253  0.2545  0.6401
19532TIP3    H180011   0.005   4.437  14.160  0.8359  1.4545  0.2402
19532TIP3    H280012   0.137   4.460  14.090  0.7623 -0.5817 -0.6201
19533TIP3   OH280013   1.975   5.955  16.338  0.1249 -0.0253  0.3156
19533TIP3    H180014   2.003   5.947  16.430  0.0206 -0.6914  0.2903
19533TIP3    H280015   1.971   6.050  16.323  0.8377  0.0924  0.7876
19534TIP3   OH280016   1.280   6.268   0.298  0.8719 -0.4482  0.1754
19534TIP3    H180017   1.197   6.223   0.316 -2.0932  3.3953 -2.0823
19534TIP3    H280018   1.313   6.225   0.219 -1.1707  0.2732 -1.1740
19535TIP3   OH280019   0.521   3.910   3.257  0.6254  0.2177 -0.0584
19535TIP3    H180020   0.590   3.969   3.227  1.1813  0.4795  1.6182
19535TIP3    H280021   0.454   3.968   3.294  1.1029 -0.1358  1.4549
19536TIP3   OH280022   2.406   4.821  13.930  0.6688 -0.6286 -0.5433
19536TIP3    H180023   2.312   4.813  13.949  0.5133  1.5568 -0.1774
19536TIP3    H280024   2.411   4.809  13.835 -0.0542 -0.2719 -0.6376
19537TIP3   OH280025   3.170   6.532  13.023  0.1098 -0.2023  0.8763
19537TIP3    H180026   3.188   6.533  12.929  1.1838  0.6807  1.0779
19537TIP3    H280027   3.077   6.507  13.029  0.0386 -0.3176 -0.4011
19538TIP3   OH280028   3.129   1.414   0.820  0.4415 -0.1788 -0.2923
19538TIP3    H180029   3.147   1.502   0.788  0.2590  0.3512  1.0100
19538TIP3    H280030   3.127   1.422   0.915  0.4959 -1.6093 -0.1402
19539TIP3   OH280031   2.232   5.988  11.001  0.4016  0.2725  0.0802
19539TIP3    H180032   2.225   5.969  10.907 -1.1920 -0.0774  0.2574
19539TIP3    H280033   2.253   5.904  11.041  1.8425  0.5553 -0.0017
19540TIP3   OH280034   4.443   2.337   4.691 -0.0556  0.3420  0.3015
19540TIP3    H180035   4.529   2.313   4.725  0.3166 -2.5071 -2.1984
19540TIP3    H280036   4.390   2.351   4.769  2.2270  0.4977  1.9366
19541TIP3   OH280037   2.711   5.150   1.164 -0.5095 -0.2920  0.1497
19541TIP3    H180038   2.752   5.063   1.157 -0.1629 -0.2257  1.2219
19541TIP3    H280039   2.755   5.202   1.096 -1.2233 -1.1217 -0.9952
19542TIP3   OH280040   4.299   5.493   0.889 -0.0818  0.1582  0.0263
19542TIP3    H180041   4.380   5.452   0.919 -0.3424 -0.7135 -0.4110
19542TIP3    H280042   4.324   5.545   0.813  0.3305  1.2028  0.8534
19543TIP3   OH280043   1.687   2.801  17.110 -0.6559  0.3933  0.0726
19543TIP3    H180044   1.655   2.890  17.096 -0.7537  0.4196  0.4392
19543TIP3    H280045   1.658   2.752  17.033 -1.6063  0.4077  0.4084
19544TIP3   OH280046   1.795   0.583   3.802 -0.0600  0.0617  1.2480
19544TIP3    H180047   1.733   0.510   3.803 -0.6778  0.4745 -1.3386
19544TIP3    H280048   1.861   0.558   3.867 -1.0052 -2.0918  1.4870
19545TIP3   OH280049   3.508   3.652  16.214  0.9157  0.0258  0.2602
19545TIP3    H180050   3.498   3.667  16.308  1.5559  0.0839  0.3255
19545TIP3    H280051   3.438   3.704  16.174  1.4228  1.0321  0.6362
19546TIP3   OH280052   6.738   4.663   3.136  0.1690  0.4825 -0.3813
19546TIP3    H180053   6.709   4.617   3.215 -0.1578 -0.8936 -1.2646
19546TIP3    H280054   6.783   4.741   3.168 -2.4410  1.4961  1.1236
19547TIP3   OH280055   5.543   1.611   3.060 -0.5415  0.1950 -0.1856
19547TIP3    H180056   5.615   1.580   3.006 -1.4097  1.1728 -1.9934
19547TIP3    H280057   5.529   1.542   3.125  0.3928 -1.1260 -1.3443
19548TIP3   OH280058   1.295   3.169   0.715 -0.2327 -0.2829  0.7850
19548TIP3    H180059   1.359   3.097   0.722 -0.1223 -0.3588 -0.7393
19548TIP3    H280060   1.275   3.174   0.622 -0.9860  1.0361  1.0005
19549TIP3   OH280061   2.979   3.967   5.728 -0.1447 -0.8133  0.2750
19549TIP3    H180062   2.919   4.035   5.760  1.4635  1.0547 -0.4197
19549TIP3    H280063   3.028   3.940   5.805 -0.2445 -0.5949  0.4161
19550TIP3   OH280064   2.220   4.648  13.775 -0.1865  0.2181 -0.0204
19550TIP3    H180065   2.147   4.708  13.788 -0.5635  0.0895 -1.3819
19550TIP3    H280066   2.234   4.608  13.860 -0.7311  1.3319  0.6142
19551TIP3   OH280067   0.404   5.631  13.292  0.3832 -0.7383  0.2311
19551TIP3    H180068   0.469   5.626  13.363  0.1342 -2.4272  0.3771
19551TIP3    H280069   0.333   5.574  13.322 -1.3068  1.2577  0.1824
19552TIP3   OH280070   1.169   2.872  15.274 -0.1473  0.0681 -0.5128
19552TIP3    H180071   1.196   2.864  15.183 -1.2397 -0.8895 -0.7727
19552TIP3    H280072   1.158   2.966  15.288 -1.6413  0.1446 -1.8947
19553TIP3   OH280073   1.071   1.655  12.184 -0.3343 -0.0556 -0.0068
19553TIP3    H180074   1.114   1.586  12.234  0.1243 -0.2589 -0.6743
19553TIP3    H280075   0.985   1.619  12.162 -1.0268  0.4868  1.6372
19554TIP3   OH280076   5.917   0.832  12.088  0.7467  0.2001 -0.4767
19554TIP3    H180077   5.982   0.871  12.030  0.2515  2.9426  0.6676
19554TIP3    H280078   5.966   0.809  12.167  0.5834  1.1304 -0.0900
19555TIP3   OH280079   6.235   4.290  16.582 -0.2684  0.2936 -0.1547
19555TIP3    H180080   6.145   4.318  16.597 -0.3468 -0.5263  1.0338
19555TIP3    H280081   6.250   4.222  16.647  1.1831  0.3497 -0.3993
19556TIP3   OH280082   0.753   4.910   5.657 -0.1727  0.1689 -0.0233
19556TIP3    H180083   0.681   4.970   5.637 -0.0501  0.4928  0.4777
19556TIP3    H280084   0.809   4.960   5.716 -0.8908 -0.9905  1.7048
19557TIP3   OH280085   0.731   0.752  12.736  0.5650  0.0338  0.0627
19557TIP3    H180086   0.807   0.807  12.754  1.6158 -1.2741 -0.2734
19557TIP3    H280087   0.723   0.753  12.640  0.3281 -0.0621  0.0815
19558TIP3   OH280088   2.243   1.545   5.584  0.2552  0.3312  0.0210
19558TIP3    H180089   2.157   1.503   5.591  1.1703 -2.0852 -1.7873
19558TIP3    H280090   2.300   1.489   5.637  1.0163  0.9573 -0.1311
19559TIP3   OH280091   0.462   5.059   4.532 -0.3775 -0.0529 -0.2458
19559TIP3    H180092   0.526   5.035   4.465  1.4869 -1.3330  1.8512
19559TIP3    H280093   0.486   5.148   4.558 -0.4161  0.0326 -0.4990
19560TIP3   OH280094   4.834   1.089   6.195  0.1227 -0.0013  0.3478
19560TIP3    H180095   4.893   1.125   6.261  0.7348 -0.1949 -0.0876
19560TIP3    H280096   4.872   1.114   6.111 -1.2767  1.2669  0.0328
19561TIP3   OH280097   0.727   0.569   5.744 -0.0096 -0.1391 -0.0347
19561TIP3    H180098   0.649   0.516   5.757 -0.1123 -0.4386 -1.6729
19561TIP3    H280099   0.800   0.513   5.771 -0.3660  0.5269  2.5742
19562TIP3   OH280100   4.436   1.782  11.744 -0.0779 -0.0944  0.3896
19562TIP3    H180101   4.458   1.704  11.794 -0.3511 -0.8928 -0.6880
19562TIP3    H280102   4.426   1.751  11.654  1.8582  1.5157 -0.4669
19563TIP3   OH280103   1.373   5.197  12.748  0.0423  0.2170  0.3557
19563TIP3    H180104   1.309   5.255  12.707  0.8133  0.7928 -0.0742
19563TIP3    H280105   1.323   5.143  12.808 -0.9953 -0.0137 -0.6865
19564TIP3   OH280106   6.053   3.978   0.068  0.1683 -0.0039  0.3073
19564TIP3    H180107   5.991   4.036   0.024 -1.1600 -0.7862  1.1006
19564TIP3    H280108   6.073   4.023   0.150  0.0138 -0.1344  0.4157
19565TIP3   OH280109   1.770   6.608   2.117  0.2651 -0.1526 -0.1195
19565TIP3    H180110   1.731   6.556   2.047  2.3486  0.6424 -1.9741
19565TIP3    H280111   1.853   6.564   2.136 -0.0925 -0.1484  1.6523
19566TIP3   OH280112   6.263   0.938  13.362 -0.4765 -0.2276  0.1841
19566TIP3    H180113   6.191   0.914  13.420 -0.6488 -1.0282 -0.3348
19566TIP3    H280114   6.341   0.904  13.405 -0.2278  1.6890  1.3419
19567TIP3   OH280115   3.971   2.012   3.892  0.1049  0.0477  0.4923
19567TIP3    H180116   4.038   1.986   3.955  0.2849 -1.6594 -0.3423
19567TIP3    H280117   3.903   1.945   3.901  0.7218 -1.0351 -1.9945
19568TIP3   OH280118   4.271   5.363  13.783 -0.2450  0.9481  0.1908
19568TIP3    H180119   4.259   5.376  13.877  0.2704 -0.0580  0.4076
19568TIP3    H280120   4.184   5.340  13.750 -0.0891 -0.5865  0.7604
19569TIP3   OH280121   3.951   2.929   1.329  0.3603 -0.0821  0.6245
19569TIP3    H180122   4.044   2.932   1.305  0.4359 -0.7296  0.8209
19569TIP3    H280123   3.910   2.879   1.259  0.4458 -1.2781  1.4043
19570TIP3   OH280124   5.772   0.889  15.307 -0.3661  0.1892 -0.8373
19570TIP3    H180125   5.777   0.936  15.389  1.2753 -2.3172  0.6419
19570TIP3    H280126   5.820   0.943  15.245  1.4532  0.5169  0.7784
19571TIP3   OH280127   3.722   5.652  13.375 -0.3514 -0.2406  0.6197
19571TIP3    H180128   3.765   5.569  13.394 -0.5701 -0.1243  1.6755
19571TIP3    H280129   3.628   5.632  13.377 -0.4016 -0.6444 -2.3725
19572TIP3   OH280130   3.288   0.552   3.398 -0.1493 -0.4567  0.4221
19572TIP3    H180131   3.243   0.620   3.448  0.9773  0.0685  0.7501
19572TIP3    H280132   3.374   0.544   3.440  1.5649  1.2203 -2.4477
19573TIP3   OH280133   1.875   1.774  16.847 -0.3728  0.0736 -0.0292
19573TIP3    H180134   1.839   1.686  16.856 -0.6206  0.1853  0.1007
19573TIP3    H280135   1.807   1.823  16.800 -0.9612  0.6122  1.2962
19574TIP3   OH280136   1.986   4.151   1.341 -0.1839 -0.2856  0.0923
19574TIP3    H180137   1.991   4.059   1.317 -1.7560 -0.2505 -0.4356
19574TIP3    H280138   1.958   4.151   1.432  0.2920 -0.3222  0.2434
19575TIP3   OH280139   2.943   4.190   6.361  0.5747  0.4559 -0.1467
19575TIP3    H180140   2.891   4.147   6.293  0.5524  0.4892 -0.1504
19575TIP3    H280141   2.891   4.266   6.387  0.0634 -0.1594  0.6856
19576TIP3   OH280142   5.147   3.595   5.061  0.0747 -0.1431 -0.6441
19576TIP3    H180143   5.166   3.513   5.108  1.8295  0.0575 -0.9707
19576TIP3    H280144   5.210   3.658   5.095  0.6261  0.3239 -2.4198
19577TIP3   OH280145   6.627   1.979   5.357 -0.5820 -0.0488  0.6314
19577TIP3    H180146   6.661   1.911   5.416 -0.7084  0.4745  1.3146
19577TIP3    H280147   6.534   1.985   5.379 -0.4145  0.8911  1.1328
19578TIP3   OH280148   0.628   4.114   0.099  0.0246  0.3762 -0.4822
19578TIP3    H180149   0.582   4.043   0.055 -0.0168 -0.7034  1.2241
19578TIP3    H280150   0.678   4.157   0.030  0.9013 -1.9919 -1.3926
19579TIP3   OH280151   2.977   1.357   4.299 -0.8547 -0.5727  0.3509
19579TIP3    H180152   2.920   1.369   4.375 -0.4624 -1.4376  0.8016
19579TIP3    H280153   2.945   1.277   4.258 -0.4570 -0.6366  0.1616
19580TIP3   OH280154   3.001   2.732   4.984  0.4981 -0.2680 -0.4063
19580TIP3    H180155   2.942   2.703   4.915  0.7445 -0.1275 -0.6818
19580TIP3    H280156   3.084   2.688   4.965  0.5732 -0.2134 -0.2106
19581TIP3   OH280157   4.938   3.492  15.451 -0.0926 -0.1799  0.0000
19581TIP3    H180158   5.004   3.558  15.431 -0.0876 -0.3012 -0.3885
19581TIP3    H280159   4.856   3.540  15.458 -0.2602 -0.2494 -1.2546
19582TIP3   OH280160   6.274   0.840   2.314  0.1740  0.0176  0.2099
19582TIP3    H180161   6.207   0.885   2.366 -1.2262 -0.0059 -1.4972
19582TIP3    H280162   6.335   0.909   2.288  0.7379  0.0739  1.5997
19583TIP3   OH280163   0.727   5.211   5.239 -0.1251  0.0418 -0.0183
19583TIP3    H180164   0.761   5.249   5.321 -0.0964  1.5995 -0.7147
19583TIP3    H280165   0.654   5.156   5.267  0.2286  0.1115  1.1043
19584TIP3   OH280166   0.890   4.400   4.872 -0.1855  0.3372  0.0732
19584TIP3    H180167   0.979   4.401   4.907 -0.1667  0.6719  0.0218
19584TIP3    H280168   0.854   4.316   4.900  0.4627 -0.2204 -0.7075
19585TIP3   OH280169   6.628   0.059   2.035  0.0984 -0.5028  0.4052
19585TIP3    H180170   6.602   0.102   2.117  0.8326 -0.2070  0.4849
19585TIP3    H280171   6.600   0.120   1.966  1.7174  0.4567  0.5377
19586TIP3   OH280172   6.681   6.755  13.176  0.0284 -0.1561  0.8585
19586TIP3    H180173   6.669   6.765  13.271  0.9476  0.0779  0.9543
19586TIP3    H280174   6.684   6.845  13.143 -1.4537 -0.2343  0.4378
19587TIP3   OH280175   3.182   1.394   1.093 -0.3595 -0.4077  0.1037
19587TIP3    H180176   3.120   1.322   1.106  0.4901 -0.7899  2.5995
19587TIP3    H280177   3.133   1.472   1.117 -0.0009 -0.6790  1.8011
19588TIP3   OH280178   4.259   0.134   5.377  0.5520 -0.5976 -0.3489
19588TIP3    H180179   4.226   0.052   5.339  1.0450 -1.4766  1.0319
19588TIP3    H280180   4.198   0.201   5.347 -1.6991 -1.9365  0.9209
19589TIP3   OH280181   1.467   6.593   5.434  0.0496  0.6605 -0.2370
19589TIP3    H180182   1.489   6.522   5.495 -2.2881  1.0134  1.1385
19589TIP3    H280183   1.543   6.600   5.377 -0.1038 -3.9276 -1.3958
19590TIP3   OH280184   0.753   6.552   4.732  0.3493  0.1562  0.7435
19590TIP3    H180185   0.763   6.538   4.637 -0.2806  0.3012  0.6519
19590TIP3    H280186   0.808   6.484   4.772  1.1022  0.4782  0.2719
19591TIP3   OH280187   6.628   3.405   2.677 -0.4839 -0.5855 -0.2131
19591TIP3    H180188   6.656   3.496   2.671 -0.6340 -0.4848  0.5314
19591TIP3    H280189   6.672   3.371   2.755 -0.6598 -1.0653 -0.3182
19592TIP3   OH280190   1.512   2.667   1.067 -0.4431  0.1924 -0.3054
19592TIP3    H180191   1.517   2.724   0.991 -1.1607 -1.1641 -1.4325
19592TIP3    H280192   1.440   2.607   1.047 -1.5021  0.5818  2.0213
19593TIP3   OH280193   4.393   0.170   0.472 -0.1631 -0.4618  0.5293
19593TIP3    H180194   4.450   0.131   0.406 -0.2079 -1.7108  1.1922
19593TIP3    H280195   4.443   0.245   0.506 -0.5674  0.8334 -1.5838
19594TIP3   OH280196   3.009   3.372   4.344  0.5171  0.1139 -0.1749
19594TIP3    H180197   3.043   3.372   4.254 -0.3713 -0.0220 -0.5151
19594TIP3    H280198   3.087   3.382   4.398  1.1307 -0.3525 -0.9400
19595TIP3   OH280199   0.201   6.778   3.205  0.0218 -0.9438  0.3398
19595TIP3    H180200   0.261   6.753   3.135 -0.2091  0.3431 -0.3404
19595TIP3    H280201   0.115   6.752   3.173 -0.0035 -1.0053  0.4571
19596TIP3   OH280202   1.935   3.584  17.049  0.3373 -0.6349 -0.1363
19596TIP3    H180203   1.875   3.528  17.099  1.9792 -2.2306  0.1945
19596TIP3    H280204   1.965   3.649  17.112 -2.6923  1.6753 -0.8914
19597TIP3   OH280205   4.999   4.105  13.493 -0.1934 -0.1211  0.0588
19597TIP3    H180206   4.962   4.114  13.405  0.4293 -0.3240 -0.2336
19597TIP3    H280207   5.071   4.168  13.495 -0.2211 -0.0958  0.4392
19598TIP3   OH280208   6.440   2.914   0.671  0.6959  0.0342  0.9015
19598TIP3    H180209   6.502   2.976   0.632 -0.1071 -1.2467 -2.9186
19598TIP3    H280210   6.355   2.954   0.657  0.3418 -0.7570  0.7302
19599TIP3   OH280211   1.682   5.739  13.787  0.0558  0.5185 -0.1800
19599TIP3    H180212   1.652   5.825  13.816 -0.3926 -0.2117  1.6482
19599TIP3    H280213   1.692   5.688  13.868 -2.7129 -2.1195 -1.2862
19600TIP3   OH280214   3.418   0.546  11.454 -0.0963  0.3835  0.4053
19600TIP3    H180215   3.411   0.484  11.381 -3.0996  0.9611  0.0682
19600TIP3    H280216   3.487   0.606  11.428  2.2254 -2.1290  0.2926
19601TIP3   OH280217   0.191   2.085  13.219 -0.6031  0.2854 -0.6769
19601TIP3    H180218   0.152   2.015  13.271 -0.9737  0.7317 -0.3402
19601TIP3    H280219   0.121   2.149  13.210  0.1529  1.2927  0.2809
19602TIP3   OH280220   1.764   2.415  15.431  0.7866 -0.4901 -0.1247
19602TIP3    H180221   1.832   2.462  15.479  0.2314 -0.6916  0.8732
19602TIP3    H280222   1.684   2.464  15.449  0.0683 -2.1590  1.4947
19603TIP3   OH280223   3.516   1.694   4.060  0.3051 -0.2835 -0.0989
19603TIP3    H180224   3.473   1.666   4.141  0.7089  0.2997  0.3220
19603TIP3    H280225   3.451   1.747   4.015 -0.2806 -1.4476 -0.6504
19604TIP3   OH280226   6.259   6.511   4.347 -0.1338 -0.5552  0.5031
19604TIP3    H180227   6.306   6.582   4.303  1.0457 -0.8393  1.2575
19604TIP3    H280228   6.177   6.552   4.378 -0.2464  0.0374 -0.5319
19605TIP3   OH280229   4.942   0.568   2.933  0.0941  0.4676 -0.7306
19605TIP3    H180230   4.948   0.571   2.838 -2.0098  1.1688 -0.8777
19605TIP3    H280231   4.880   0.498   2.952 -0.2916  1.0164  0.0831
19606TIP3   OH280232   2.999   5.271  15.051  0.3724  0.1405 -0.7039
19606TIP3    H180233   2.945   5.337  15.007 -1.8958 -0.9031  0.3266
19606TIP3    H280234   3.002   5.300  15.142  0.9546 -0.2081 -0.6117
19607TIP3   OH280235   1.145   4.357  16.829 -0.0247  0.2904  0.0402
19607TIP3    H180236   1.144   4.365  16.734  1.9570 -0.7112 -0.1205
19607TIP3    H280237   1.131   4.263  16.845  1.4118  0.1549  0.6249
19608TIP3   OH280238   1.773   4.085  16.244  0.1855  0.1701 -0.2244
19608TIP3    H180239   1.711   4.148  16.278 -1.4535 -1.0173 -0.8582
19608TIP3    H280240   1.723   4.004  16.235  1.8902 -0.9161 -0.5497
19609TIP3   OH280241   2.436   1.443   6.333 -0.5761 -0.3147 -0.2592
19609TIP3    H180242   2.494   1.440   6.410 -0.6887  1.3725 -0.0674
19609TIP3    H280243   2.382   1.364   6.341 -0.4648 -0.2663  1.3114
19610TIP3   OH280244   3.764   2.131  15.133 -0.2187 -0.4467  0.0155
19610TIP3    H180245   3.673   2.110  15.114 -0.1603  0.3356 -1.3245
19610TIP3    H280246   3.761   2.211  15.185 -0.3000 -0.3049 -0.2060
19611TIP3   OH280247   2.581   4.636   4.300 -0.2436  0.7233 -0.3654
19611TIP3    H180248   2.640   4.602   4.233 -1.1339  1.5319 -1.5997
19611TIP3    H280249   2.542   4.714   4.260 -1.5800  0.6237  0.6984
19612TIP3   OH280250   1.311   3.226  12.353  0.0056 -0.5815 -0.5423
19612TIP3    H180251   1.379   3.226  12.286 -1.3480  1.7154 -2.0558
19612TIP3    H280252   1.302   3.318  12.378 -1.3595 -1.0451  0.8590
19613TIP3   OH280253   3.997   2.278  14.706  0.0417  0.0429  0.3023
19613TIP3    H180254   3.927   2.334  14.742 -0.0069 -0.6487  1.3144
19613TIP3    H280255   4.078   2.325  14.725  0.0046 -0.2467  1.2017
19614TIP3   OH280256   3.443   6.096  15.540 -0.4587 -0.5926 -0.1291
19614TIP3    H180257   3.383   6.161  15.503  1.3444  0.0609 -2.1129
19614TIP3    H280258   3.409   6.012  15.510 -0.3057 -0.2200 -1.3867
19615TIP3   OH280259   6.603   1.922  16.283 -1.2481 -0.4184 -0.2298
19615TIP3    H180260   6.662   1.895  16.353 -0.6695 -0.1637 -0.6177
19615TIP3    H280261   6.546   1.846  16.270 -1.6203 -0.3349  0.7710
19616TIP3   OH280262   4.241   1.096   0.522 -0.0742  0.3355 -0.0200
19616TIP3    H180263   4.254   1.107   0.616  1.2044  1.2085 -0.2861
19616TIP3    H280264   4.322   1.127   0.482  0.2592 -1.9721 -1.3131
19617TIP3   OH280265   5.665   5.235  14.695  0.1299  0.5785 -0.4620
19617TIP3    H180266   5.666   5.185  14.777 -0.2314 -0.1658 -0.8931
19617TIP3    H280267   5.595   5.299  14.707 -0.2999  0.1011 -0.3992
19618TIP3   OH280268   1.034   0.048   0.538 -0.3522  0.4121 -0.6214
19618TIP3    H180269   1.121   0.060   0.500 -0.6313  0.6732 -1.1849
19618TIP3    H280270   1.012   0.134   0.574 -1.2601  0.9583 -2.3633
19619TIP3   OH280271   3.014   4.329   3.432  0.2451  0.1370 -0.4504
19619TIP3    H180272   2.922   4.302   3.439  0.1560  0.1694 -1.4616
19619TIP3    H280273   3.015   4.398   3.366  0.8318  0.9929  0.4119
19620TIP3   OH280274   5.795   2.025  11.068 -0.3046 -0.0416  0.1722
19620TIP3    H180275   5.744   1.968  11.011 -0.6873 -0.3460  0.8152
19620TIP3    H280276   5.732   2.057  11.133  0.2406 -0.1635  0.7735
19621TIP3   OH280277   3.155   0.149  14.254 -0.5805 -0.1729  0.1230
19621TIP3    H180278   3.197   0.078  14.301 -1.2051 -0.5548  0.1106
19621TIP3    H280279   3.129   0.111  14.170  0.4968  0.4929 -0.5447
19622TIP3   OH280280   3.201   1.202   3.349 -0.0152  0.5036 -0.2871
19622TIP3    H180281   3.205   1.262   3.274 -0.4011 -0.0467 -0.7577
19622TIP3    H280282   3.292   1.191   3.376  0.6175 -2.0388 -2.9160
19623TIP3   OH280283   2.814   1.181   2.600 -0.2844  0.3585  0.0436
19623TIP3    H180284   2.733   1.133   2.613  0.8876 -1.5386  0.8531
19623TIP3    H280285   2.843   1.206   2.688  0.4716  0.1843 -0.1439
19624TIP3   OH280286   3.918   3.212   1.333 -0.5265  0.3220  0.0732
19624TIP3    H180287   3.904   3.229   1.240 -1.3184  1.6544  0.4112
19624TIP3    H280288   3.904   3.118   1.343 -1.5772  0.3532 -0.9547
19625TIP3   OH280289   6.516   1.167  15.258  0.3959 -0.6584  0.1640
19625TIP3    H180290   6.494   1.095  15.317 -0.7875  1.5587  2.6392
19625TIP3    H280291   6.611   1.162  15.248  0.3288 -2.6037  0.1269
19626TIP3   OH280292   4.439   3.067   3.566 -0.4681  0.0562 -0.6364
19626TIP3    H180293   4.360   3.013   3.575 -0.2347 -0.3533 -0.9995
19626TIP3    H280294   4.407   3.150   3.532 -0.4472 -1.1283 -3.9136
19627TIP3   OH280295   5.501   1.637   3.613  0.0828  0.5175  0.1663
19627TIP3    H180296   5.482   1.660   3.522  2.4163 -0.2842 -0.5855
19627TIP3    H280297   5.540   1.717   3.650  5.2430 -0.8878 -1.5417
19628TIP3   OH280298   3.229   6.594  14.535 -0.1322  0.3233  0.0263
19628TIP3    H180299   3.309   6.585  14.586  0.3163  0.8535 -0.5598
19628TIP3    H280300   3.247   6.546  14.454 -0.7504 -0.3208  0.2569
19629TIP3   OH280301   1.713   6.650   5.316  0.2937 -0.4312 -0.2544
19629TIP3    H180302   1.778   6.698   5.265  0.1927  0.5253  0.4837
19629TIP3    H280303   1.758   6.570   5.343  1.7266  0.8929  1.5360
19630TIP3   OH280304   6.025   6.105  15.445 -0.0216  0.0895 -0.2006
19630TIP3    H180305   5.966   6.048  15.494  0.9410  0.1930  1.1209
19630TIP3    H280306   6.071   6.156  15.512  0.0940  1.4787 -1.2899
19631TIP3   OH280307   2.707   4.813  13.974  0.3999 -0.6835 -0.0038
19631TIP3    H180308   2.628   4.865  13.959  0.3533  0.0909  2.5303
19631TIP3    H280309   2.723   4.819  14.068  2.8885 -1.7114 -0.2733
19632TIP3   OH280310   4.503   4.243   3.350  0.4627 -0.1196 -0.2928
19632TIP3    H180311   4.415   4.270   3.325  0.5324  1.4160  0.9708
19632TIP3    H280312   4.498   4.147   3.357 -1.0695 -0.0627 -0.3175
19633TIP3   OH280313   6.123   5.098   1.240 -0.2064 -0.1662 -0.1389
19633TIP3    H180314   6.033   5.066   1.231 -0.8998  1.7317 -0.4308
19633TIP3    H280315   6.154   5.107   1.150 -0.5620  1.2814 -0.1534
19634TIP3   OH280316   6.608   1.533  14.715  0.3525 -0.0533 -0.0168
19634TIP3    H180317   6.653   1.492  14.788 -1.2044 -2.8382 -0.4721
19634TIP3    H280318   6.676   1.547  14.649  1.4878  1.0731  1.3336
19635TIP3   OH280319   4.244   6.132  15.696 -0.1423  0.1909  0.0095
19635TIP3    H180320   4.287   6.114  15.780  0.5785  0.2169 -0.3431
19635TIP3    H280321   4.291   6.208  15.661 -0.4227  0.1667 -0.4231
19636TIP3   OH280322   3.843   4.196  13.283  0.6891 -0.1520  0.1694
19636TIP3    H180323   3.788   4.133  13.237 -1.8405  1.2850  1.0317
19636TIP3    H280324   3.843   4.166  13.374 -0.3745  0.9334  0.5497
19637TIP3   OH280325   1.742   1.362  11.261 -0.0716  0.1471 -0.7560
19637TIP3    H180326   1.709   1.301  11.194 -1.0924  0.7089 -0.7938
19637TIP3    H280327   1.753   1.445  11.214 -0.7284  0.5291 -0.2562
19638TIP3   OH280328   0.240   4.411  13.229  0.6574 -0.3624  0.5610
19638TIP3    H180329   0.286   4.407  13.312 -0.7727  2.7169  1.6702
19638TIP3    H280330   0.153   4.443  13.251 -1.0347 -2.8633 -1.8019
19639TIP3   OH280331   5.785   5.528  15.029 -0.0710  0.3130  0.1653
19639TIP3    H180332   5.871   5.488  15.015  0.1414  0.4231  1.0616
19639TIP3    H280333   5.793   5.617  14.994  0.1530  0.2905  0.1620
19640TIP3   OH280334   5.854   2.797   2.376 -0.4537 -0.6172 -0.1924
19640TIP3    H180335   5.823   2.831   2.460 -0.2697 -0.6933 -0.0911
19640TIP3    H280336   5.938   2.755   2.397 -0.0899 -0.0726 -0.5241
19641TIP3   OH280337   3.783   3.646   0.474  0.1277 -0.0825 -0.3475
19641TIP3    H180338   3.689   3.657   0.485  0.5316  2.9758  1.2912
19641TIP3    H280339   3.794   3.617   0.383 -2.3804 -1.4196 -0.3028
19642TIP3   OH280340   6.571   1.443   1.465 -0.3786  0.2995  0.1757
19642TIP3    H180341   6.634   1.444   1.538 -0.9019  0.5217  0.6380
19642TIP3    H280342   6.498   1.391   1.498  0.8236 -2.6328 -1.4824
19643TIP3   OH280343   5.914   3.125   5.059  0.4315  0.0550  0.3993
19643TIP3    H180344   5.827   3.088   5.080  0.6361 -0.6642  0.0262
19643TIP3    H280345   5.895   3.209   5.018 -0.1440 -0.5950 -0.7148
19644TIP3   OH280346   5.364   1.891   1.182 -0.7624 -0.1739 -0.0639
19644TIP3    H180347   5.333   1.910   1.094 -1.9329  0.5647  0.4688
19644TIP3    H280348   5.331   1.803   1.201  0.0986 -0.6180 -0.6139
19645TIP3   OH280349   5.614   4.087  15.805  0.2406 -0.3268  0.5831
19645TIP3    H180350   5.674   4.042  15.746 -2.3802  1.1310 -3.6386
19645TIP3    H280351   5.545   4.022  15.823  0.1134 -0.2131  0.5075
19646TIP3   OH280352   6.004   1.401   0.673 -0.1560 -0.0322 -0.3674
19646TIP3    H180353   5.982   1.474   0.730  1.4652 -0.7078  1.2252
19646TIP3    H280354   5.936   1.402   0.606 -2.2621  0.7177  1.6329
19647TIP3   OH280355   3.698   2.335  14.763 -0.0765  0.3732 -0.3856
19647TIP3    H180356   3.632   2.278  14.801  1.1158 -0.4955  0.4211
19647TIP3    H280357   3.658   2.367  14.682 -1.7565  0.4505  0.4406
19648TIP3   OH280358   6.459   3.866  14.097  0.2050  0.2403  0.1625
19648TIP3    H180359   6.537   3.835  14.052 -0.2942 -0.4908 -0.2310
19648TIP3    H280360   6.430   3.791  14.149  0.5201  0.9362  1.3782
19649TIP3   OH280361   6.571   0.273   0.086 -0.6139 -0.1045 -0.0678
19649TIP3    H180362   6.637   0.239   0.027 -1.6855 -2.2188 -0.1471
19649TIP3    H280363   6.538   0.351   0.043  1.7186  0.9754 -0.0456
19650TIP3   OH280364   1.320   2.008  10.856 -0.4051 -0.1773  0.1886
19650TIP3    H180365   1.384   1.955  10.807  1.0685  0.5616  1.2291
19650TIP3    H280366   1.364   2.092  10.869 -0.0819 -0.7434  3.9232
19651TIP3   OH280367   2.508   5.727   2.632 -0.3185  0.0639 -0.7990
19651TIP3    H180368   2.477   5.674   2.706  1.4995  0.4589  0.3038
19651TIP3    H280369   2.430   5.741   2.579 -2.2491  1.6121  2.1627
19652TIP3   OH280370   6.729   0.204  15.505  0.3557 -0.0158  0.3996
19652TIP3    H180371   6.702   0.294  15.523 -1.4496 -1.0063  3.4065
19652TIP3    H280372   6.782   0.180  15.582  0.9092 -1.5165 -0.4056
19653TIP3   OH280373   3.602   1.155  13.492  0.3745  0.2154 -0.1300
19653TIP3    H180374   3.570   1.119  13.409  1.7322 -2.3676  0.3445
19653TIP3    H280375   3.530   1.210  13.524 -0.4275  0.7704 -2.6731
19654TIP3   OH280376   3.177   3.528   0.023  0.1982  0.2247  0.1764
19654TIP3    H180377   3.125   3.490   0.094  2.2336 -0.2527  1.4894
19654TIP3    H280378   3.117   3.587  -0.022 -1.7581 -1.0960  0.9448
19655TIP3   OH280379   6.726   1.744  11.466 -0.1800  0.1125 -0.1741
19655TIP3    H180380   6.685   1.669  11.423 -1.5560  0.3959  0.5844
19655TIP3    H280381   6.666   1.817  11.450 -0.8397  0.2113  2.2684
19656TIP3   OH280382   3.914   6.447  14.447 -0.3022 -0.0049  0.3204
19656TIP3    H180383   3.918   6.457  14.352  0.4008  0.1338  0.3578
19656TIP3    H280384   3.951   6.360  14.464  0.4095  0.3357  0.5303
19657TIP3   OH280385   1.928   1.280  14.615 -0.1395  0.5816 -0.3280
19657TIP3    H180386   1.982   1.294  14.693  1.1937 -2.2378 -0.6270
19657TIP3    H280387   1.859   1.221  14.644  1.9675 -2.8921 -1.6616
19658TIP3   OH280388   0.793   5.176  16.705  0.1201 -0.8283 -0.5442
19658TIP3    H180389   0.790   5.081  16.713 -1.3878 -0.6853  1.1702
19658TIP3    H280390   0.857   5.204  16.771 -0.4484 -0.5888 -0.0840
19659TIP3   OH280391   1.484   6.524  10.720 -0.0207  0.3463 -0.1399
19659TIP3    H180392   1.468   6.614  10.749 -0.0278  0.7901 -1.4855
19659TIP3    H280393   1.444   6.519  10.633 -0.7259 -1.2006  0.2439
19660TIP3   OH280394   2.154   4.385  12.374  0.2600 -0.1174  0.2814
19660TIP3    H180395   2.077   4.384  12.430  0.0722 -0.2541  0.0187
19660TIP3    H280396   2.223   4.347  12.428 -0.1717 -1.2764  0.0552
19661TIP3   OH280397   2.437   4.576   3.962  0.4585  0.3977  0.7087
19661TIP3    H180398   2.348   4.576   3.996  0.0079  0.1305 -0.4092
19661TIP3    H280399   2.480   4.503   4.006 -0.5033 -0.7778 -0.2472
19662TIP3   OH280400   2.387   6.198  15.171  0.1381 -0.2720  0.1896
19662TIP3    H180401   2.424   6.213  15.084  2.1168 -0.8857  0.8725
19662TIP3    H280402   2.294   6.221  15.162 -0.0026 -1.5210 -2.3934
19663TIP3   OH280403   3.096   3.082  13.811  0.3583  0.3218 -0.0711
19663TIP3    H180404   3.178   3.121  13.781  2.0627 -0.7495  2.7531
19663TIP3    H280405   3.057   3.043  13.733  3.5987 -0.9059 -1.2466
19664TIP3   OH280406   2.855   4.271  13.710  0.0247  0.3922 -0.0414
19664TIP3    H180407   2.872   4.219  13.789  0.8835  0.1142 -0.3950
19664TIP3    H280408   2.772   4.237  13.676  0.4639 -0.6145 -0.1470
19665TIP3   OH280409   3.699   3.642  15.062  0.1439 -0.2744 -0.2644
19665TIP3    H180410   3.637   3.597  15.118 -1.0428  1.2212 -0.3026
19665TIP3    H280411   3.658   3.727  15.044  1.6569  0.2904 -1.2855
19666TIP3   OH280412   3.248   6.114   6.440  0.6422  0.1968  0.7432
19666TIP3    H180413   3.264   6.205   6.466  0.4261  0.1460  1.0595
19666TIP3    H280414   3.335   6.075   6.434  0.7932  0.6503 -0.2324
19667TIP3   OH280415   4.196   0.381  13.258 -0.6971 -0.6116 -0.6617
19667TIP3    H180416   4.161   0.456  13.306  1.0085  0.7836 -1.4617
19667TIP3    H280417   4.126   0.357  13.197 -1.8141 -0.6233  0.5838
19668TIP3   OH280418   3.992   1.407   3.234 -0.0558 -0.1818  0.2887
19668TIP3    H180419   4.045   1.330   3.215 -1.3491 -2.0486  3.4687
19668TIP3    H280420   4.044   1.457   3.298 -0.7953 -0.4666  1.1385
19669TIP3   OH280421   0.390   5.789  15.577  0.2963 -0.0853  0.0270
19669TIP3    H180422   0.403   5.821  15.667  1.2443  1.4309 -0.6228
19669TIP3    H280423   0.298   5.761  15.575  0.5750 -1.2960  1.7944
19670TIP3   OH280424   1.831   4.430   1.676  0.4144 -0.5303 -0.4645
19670TIP3    H180425   1.838   4.469   1.589 -0.1952  0.8718  0.0789
19670TIP3    H280426   1.800   4.341   1.660  0.5960 -0.3921 -1.6857
19671TIP3   OH280427   3.754   2.644   6.235  0.3406  0.1966 -0.0739
19671TIP3    H180428   3.817   2.575   6.253  0.3284  0.3064  0.4156
19671TIP3    H280429   3.788   2.688   6.157  0.1137 -0.6292 -0.6426
19672TIP3   OH280430   1.909   4.851  14.310 -0.2944  0.0390  0.1828
19672TIP3    H180431   1.847   4.912  14.270  0.4733 -0.5491 -2.0303
19672TIP3    H280432   1.893   4.768  14.266  1.9450 -0.1551 -0.3763
19673TIP3   OH280433   2.320   0.893   1.912 -0.5052 -0.3567 -0.2182
19673TIP3    H180434   2.367   0.820   1.951  0.8098  0.3665 -0.4055
19673TIP3    H280435   2.333   0.965   1.974 -0.1514  0.2393 -0.9717
19674TIP3   OH280436   5.310   6.371  11.458  0.4309 -0.0717 -0.7062
19674TIP3    H180437   5.364   6.349  11.535  0.6233 -0.1395 -0.8591
19674TIP3    H280438   5.373   6.406  11.395  0.0481  1.4937 -0.2432
19675TIP3   OH280439   3.970   2.036   4.672  0.4645 -0.2884  0.0865
19675TIP3    H180440   4.048   1.984   4.693  0.8732  0.7593  1.3252
19675TIP3    H280441   3.998   2.127   4.685 -0.5207  0.1984 -1.0301
19676TIP3   OH280442   3.131   5.742  13.462  0.2982  0.0300  0.4425
19676TIP3    H180443   3.093   5.693  13.390  0.3011 -1.0310  1.1349
19676TIP3    H280444   3.089   5.706  13.540  0.6901  0.7737  1.0101
19677TIP3   OH280445   3.583   4.465  14.520  0.2110 -0.0725 -0.7409
19677TIP3    H180446   3.503   4.444  14.471  0.2062  0.4162 -0.9486
19677TIP3    H280447   3.596   4.559  14.505  2.1689 -0.5809 -2.7767
19678TIP3   OH280448   5.552   4.352  12.984 -0.7655 -0.0814 -1.0294
19678TIP3    H180449   5.536   4.258  12.969 -0.1638 -0.1166 -1.5240
19678TIP3    H280450   5.466   4.392  12.978 -1.0687 -0.6398 -0.5294
19679TIP3   OH280451   3.727   5.025   5.696  0.1441  0.0892  0.2513
19679TIP3    H180452   3.733   4.957   5.763  0.9689  0.4055  0.5134
19679TIP3    H280453   3.774   4.989   5.621 -1.5129 -0.6271 -0.5103
19680TIP3   OH280454   3.477   1.438  15.235  0.2899 -0.2981 -0.0688
19680TIP3    H180455   3.485   1.358  15.183  0.5635 -0.6452  0.4923
19680TIP3    H280456   3.561   1.482  15.225  1.2729 -1.5298  1.9187
19681TIP3   OH280457   6.753   4.228   0.086 -1.1000 -0.3827  0.4173
19681TIP3    H180458   6.714   4.144   0.060  2.4150 -2.0664 -0.0010
19681TIP3    H280459   6.809   4.206   0.160  1.9471  0.9244 -1.3146
19682TIP3   OH280460   5.522   6.670  11.706 -1.2914  0.0377 -0.1056
19682TIP3    H180461   5.464   6.629  11.642 -1.4818 -0.1444  0.1794
19682TIP3    H280462   5.526   6.762  11.680 -1.1320 -0.0974 -0.5510
19683TIP3   OH280463   5.418   3.205   1.087  0.7269 -0.4965 -0.3252
19683TIP3    H180464   5.478   3.233   1.018 -0.6877  1.7643 -0.7520
19683TIP3    H280465   5.333   3.197   1.044 -0.0451  0.2070  0.9806
19684TIP3   OH280466   4.587   4.473  13.489 -0.7453  0.1092 -0.0383
19684TIP3    H180467   4.523   4.477  13.418 -0.7265 -0.9314 -0.1283
19684TIP3    H280468   4.569   4.550  13.542 -3.2134 -1.0113  0.8992
19685TIP3   OH280469   5.184   1.726  14.150  0.6302  0.4708 -0.3787
19685TIP3    H180470   5.142   1.713  14.065  0.6888  1.3915 -0.5640
19685TIP3    H280471   5.145   1.807  14.183 -0.0532 -0.3437  0.8842
19686TIP3   OH280472   4.044   3.577  14.043 -0.5928 -0.0756 -0.3940
19686TIP3    H180473   4.037   3.505  14.105 -1.2925  0.1200 -0.2373
19686TIP3    H280474   4.128   3.618  14.063 -0.9776  0.2250  0.6982
19687TIP3   OH280475   4.080   2.113  17.035  0.1817  0.0087  0.2243
19687TIP3    H180476   4.053   2.173  17.104  1.6718 -0.4170  1.2142
19687TIP3    H280477   3.999   2.096  16.985 -0.4065  2.3462  0.2454
19688TIP3   OH280478   3.139   0.158   0.095  0.5884  0.0545  0.5246
19688TIP3    H180479   3.117   0.238   0.048  0.5178 -0.0494  0.3801
19688TIP3    H280480   3.062   0.102   0.087  0.5836  0.0275  0.7467
19689TIP3   OH280481   1.411   1.143   6.603 -1.0613  0.6142 -0.0114
19689TIP3    H180482   1.397   1.236   6.585 -0.5020  1.2087  2.2975
19689TIP3    H280483   1.495   1.124   6.561 -0.2951  1.6671  0.9431
19690TIP3   OH280484   3.941   0.105   2.279 -0.0933 -0.6088  0.3108
19690TIP3    H180485   4.000   0.034   2.303 -1.4134 -2.1096 -0.6482
19690TIP3    H280486   3.960   0.174   2.342  1.5382 -1.6321  1.0191
19691TIP3   OH280487   2.352   3.149   3.948  0.8546  0.0400  0.6470
19691TIP3    H180488   2.443   3.127   3.929  0.6505  0.8072 -1.5758
19691TIP3    H280489   2.322   3.081   4.008  2.2046 -1.6455 -0.5029
19692TIP3   OH280490   6.042   5.347   0.313  0.2582 -0.3772 -0.0937
19692TIP3    H180491   5.971   5.390   0.359  1.3037  1.5100 -0.1769
19692TIP3    H280492   6.074   5.281   0.375 -0.7179 -0.3904  0.4218
19693TIP3   OH280493   3.594   5.378  11.740 -0.3919  0.3784 -0.1198
19693TIP3    H180494   3.516   5.358  11.689 -1.4929  2.4276  0.6643
19693TIP3    H280495   3.595   5.312  11.810 -1.5004  0.3883 -0.0755
19694TIP3   OH280496   1.548   0.991  13.968  0.2148  0.2884 -0.3232
19694TIP3    H180497   1.531   1.029  13.882  2.0778  0.5919 -0.5970
19694TIP3    H280498   1.483   1.033  14.025 -0.5040  0.7044 -1.4080
19695TIP3   OH280499   4.028   5.622   4.244 -0.2935  0.8414  0.1007
19695TIP3    H180500   3.996   5.701   4.200 -1.1916  0.7818  0.6198
19695TIP3    H280501   3.959   5.599   4.306  0.3238  0.1170  0.5471
19696TIP3   OH280502   0.171   5.323   5.820  0.3079  0.6657  0.2431
19696TIP3    H180503   0.122   5.364   5.890 -0.4248 -0.2432  0.2847
19696TIP3    H280504   0.141   5.367   5.740 -0.2725  0.3986  0.3118
19697TIP3   OH280505   5.624   0.305   2.705  0.0556 -0.0352  0.1564
19697TIP3    H180506   5.614   0.276   2.795  1.8290  0.0924  0.4333
19697TIP3    H280507   5.537   0.334   2.679 -0.5209 -0.2420  1.7681
19698TIP3   OH280508   3.053   0.226  16.898  0.2020 -0.2271 -0.0256
19698TIP3    H180509   3.024   0.139  16.927  0.9803 -0.7405 -0.7167
19698TIP3    H280510   2.975   0.265  16.858 -0.2109 -0.5172  0.4792
19699TIP3   OH280511   3.163   6.544   2.377 -0.0358  0.0556 -0.0931
19699TIP3    H180512   3.246   6.582   2.347 -0.2703  1.2673  0.7110
19699TIP3    H280513   3.183   6.510   2.465 -0.5691  1.1370  0.4728
19700TIP3   OH280514   5.173   3.564  16.794  0.1845 -0.0744  0.2296
19700TIP3    H180515   5.175   3.577  16.889  0.4800  0.2777  0.1753
19700TIP3    H280516   5.214   3.642  16.758 -0.9728  0.3420 -0.2490
19701TIP3   OH280517   3.433   3.955   2.729  0.2924  0.0067 -0.0024
19701TIP3    H180518   3.434   3.883   2.792  0.0840  0.2768  0.3176
19701TIP3    H280519   3.340   3.977   2.720  0.2270 -0.7136 -1.2093
19702TIP3   OH280520   0.531   1.618   6.143  0.7142  0.1425  0.1838
19702TIP3    H180521   0.550   1.549   6.206  0.9716  0.3026  0.2860
19702TIP3    H280522   0.502   1.692   6.196  0.7635  0.2210  0.1011
19703TIP3   OH280523   5.677   1.472  13.607 -0.3173  0.7583 -0.0484
19703TIP3    H180524   5.646   1.448  13.695 -0.8280 -0.9819 -0.6461
19703TIP3    H280525   5.607   1.442  13.549 -0.7464  3.3415 -0.9935
19704TIP3   OH280526   1.139   4.177  11.399 -0.0587  0.0139 -0.3257
19704TIP3    H180527   1.091   4.100  11.429  0.6617 -1.0413 -1.7627
19704TIP3    H280528   1.072   4.234  11.362 -0.4610 -0.4756 -0.3587
19705TIP3   OH280529   1.939   5.012  12.317  0.4075  0.3492 -0.2238
19705TIP3    H180530   1.890   4.976  12.244  0.3955  1.7410 -0.9251
19705TIP3    H280531   1.881   5.078  12.356  0.6528  0.0593  0.6590
19706TIP3   OH280532   4.944   6.310  15.859 -0.0975 -0.2553  0.4469
19706TIP3    H180533   4.984   6.370  15.923  0.5735  0.0672 -0.2585
19706TIP3    H280534   4.891   6.250  15.912  1.2409 -0.6328  1.4120
19707TIP3   OH280535   0.402   4.298  13.432 -0.5420  0.0234  0.1950
19707TIP3    H180536   0.459   4.371  13.457  0.5831 -0.3331 -1.2426
19707TIP3    H280537   0.453   4.220  13.451 -0.7535 -0.3193 -0.6114
19708TIP3   OH280538   1.351   0.445   5.516  0.1959  0.5579  0.5142
19708TIP3    H180539   1.392   0.412   5.436  0.1627  2.8871 -0.5371
19708TIP3    H280540   1.287   0.378   5.539  0.9895 -0.7002 -0.7524
19709TIP3   OH280541   5.835   5.628   0.555  0.8257 -0.5300 -0.1962
19709TIP3    H180542   5.749   5.624   0.513  0.5495  0.9227  0.1846
19709TIP3    H280543   5.888   5.683   0.497  0.8791  0.2650  0.5851
19710TIP3   OH280544   2.349   3.318   0.977 -0.4403 -0.2614 -0.7861
19710TIP3    H180545   2.257   3.339   0.993 -0.0733  0.1109  1.1742
19710TIP3    H280546   2.354   3.222   0.983 -0.6288 -0.2470 -0.3943
19711TIP3   OH280547   6.189   1.162  15.404 -0.4866  0.4744 -0.0283
19711TIP3    H180548   6.159   1.077  15.371 -2.3593  0.3503  1.7435
19711TIP3    H280549   6.156   1.226  15.341  1.3312 -0.0822 -1.6228
19712TIP3   OH280550   4.729   4.815  12.968  0.0821  0.3571  0.1126
19712TIP3    H180551   4.821   4.838  12.986 -0.1642  1.3213  0.2018
19712TIP3    H280552   4.732   4.723  12.940  0.6618 -0.9986  3.9571
19713TIP3   OH280553   4.297   3.116  14.606  0.1016 -0.0876  0.3056
19713TIP3    H180554   4.379   3.104  14.558 -1.0203 -1.3158 -1.4016
19713TIP3    H280555   4.302   3.205  14.640  2.1650 -0.1585  0.3177
19714TIP3   OH280556   6.199   1.643   2.789 -0.5197  0.0191  0.0396
19714TIP3    H180557   6.160   1.579   2.729 -0.9033 -0.1329  0.4481
19714TIP3    H280558   6.228   1.591   2.864  0.1278  0.1843 -0.0942
19715TIP3   OH280559   1.973   1.783   0.732 -0.3599  0.1621 -0.7392
19715TIP3    H180560   1.926   1.865   0.746  0.9005  0.6039  1.3224
19715TIP3    H280561   1.905   1.716   0.736 -1.1262  0.9395 -0.2148
19716TIP3   OH280562   1.377   6.631   2.721  0.4125  0.8885  0.6480
19716TIP3    H180563   1.433   6.667   2.791 -0.0439  2.0174  0.4453
19716TIP3    H280564   1.434   6.626   2.645  0.2623  1.9923  0.4556
19717TIP3   OH280565   0.329   6.264  16.031  0.0493  0.1197 -0.8170
19717TIP3    H180566   0.363   6.175  16.014  0.2336 -0.2849  1.3687
19717TIP3    H280567   0.251   6.250  16.084  0.8610  1.2867  0.7510
19718TIP3   OH280568   0.087   5.288  10.714 -0.3295 -0.1520 -0.0884
19718TIP3    H180569   0.142   5.310  10.640 -0.8651  0.5738 -0.2811
19718TIP3    H280570   0.107   5.354  10.780  0.0748 -0.7361  0.3826
19719TIP3   OH280571   3.492   5.687  15.335 -0.5919 -0.1780  0.2396
19719TIP3    H180572   3.490   5.610  15.391  0.6276 -0.8467 -0.5878
19719TIP3    H280573   3.579   5.723  15.347  0.2865 -1.2067 -2.2813
19720TIP3   OH280574   1.616   1.032  11.477 -0.0150 -0.5826 -0.3686
19720TIP3    H180575   1.635   1.115  11.434 -0.0811  0.2468  1.1136
19720TIP3    H280576   1.696   1.011  11.526 -1.3757  0.9405  2.7975
19721TIP3   OH280577   3.899   1.168   3.532  0.3554 -0.0338 -0.5538
19721TIP3    H180578   3.986   1.181   3.570  0.2949  3.6641 -1.3746
19721TIP3    H280579   3.840   1.176   3.607  0.5769  0.5917 -0.4383
19722TIP3   OH280580   0.310   3.401   3.727 -0.0694 -0.7285 -0.6847
19722TIP3    H180581   0.355   3.483   3.708 -0.1682 -0.5146 -0.0326
19722TIP3    H280582   0.255   3.421   3.803  1.3156 -1.8723  0.6827
19723TIP3   OH280583   3.425   6.106   0.766 -0.3302  0.2487  0.0255
19723TIP3    H180584   3.436   6.197   0.741  2.1316  0.3636  1.1561
19723TIP3    H280585   3.506   6.084   0.813 -1.9551 -1.7276  2.1616
19724TIP3   OH280586   2.898   3.748   1.726  0.1225 -0.0258  0.8822
19724TIP3    H180587   2.981   3.723   1.686  0.0823  0.1886  0.6624
19724TIP3    H280588   2.870   3.825   1.677 -0.1294 -0.0042  1.0577
19725TIP3   OH280589   3.429   0.924   4.234  0.3126 -0.0469 -0.1259
19725TIP3    H180590   3.513   0.967   4.251  1.4236 -1.3737 -1.9545
19725TIP3    H280591   3.379   0.988   4.184 -0.5712  1.4600  2.4744
19726TIP3   OH280592   5.634   2.461   3.308 -0.4341 -0.3596 -0.1935
19726TIP3    H180593   5.573   2.507   3.251  0.9776  0.7071 -0.9117
19726TIP3    H280594   5.718   2.502   3.291  0.4104 -1.4454  1.1328
19727TIP3   OH280595   6.153   6.164   4.053  0.1975  0.5481  0.6102
19727TIP3    H180596   6.184   6.211   4.131  1.5627  3.1841 -1.3924
19727TIP3    H280597   6.227   6.107   4.029  1.9654  3.4455 -1.4960
19728TIP3   OH280598   4.317   4.732   4.957 -0.5767 -0.3191  0.4762
19728TIP3    H180599   4.380   4.783   5.009 -0.5997 -0.3368  0.5208
19728TIP3    H280600   4.372   4.685   4.894  0.0203 -3.8628  3.2909
19729TIP3   OH280601   5.102   0.700   3.854  0.1031 -0.4663 -0.4582
19729TIP3    H180602   5.159   0.625   3.872  1.0071  0.2316 -0.3159
19729TIP3    H280603   5.108   0.712   3.760 -0.5052 -0.9275 -0.5580
19730TIP3   OH280604   0.693   3.856   2.452 -0.2091 -0.2048  0.1640
19730TIP3    H180605   0.649   3.941   2.456 -0.8213 -0.4851 -0.4430
19730TIP3    H280606   0.646   3.801   2.515 -0.6258 -0.4493 -0.3489
19731TIP3   OH280607   4.564   2.496   5.462 -0.0255  0.0020  0.0041
19731TIP3    H180608   4.638   2.448   5.500  1.2978  0.4454 -1.8736
19731TIP3    H280609   4.537   2.444   5.386 -1.7959 -0.2254  0.7358
19732TIP3   OH280610   6.256   5.659   5.104  0.0122 -0.3258 -0.3803
19732TIP3    H180611   6.286   5.657   5.194  0.1166  0.1940 -0.3955
19732TIP3    H280612   6.308   5.729   5.063 -0.9667  0.3573 -0.4982
19733TIP3   OH280613   4.950   5.908   2.182  0.4527  0.3127  0.6139
19733TIP3    H180614   4.893   5.982   2.202 -0.6256  0.3272 -2.0867
19733TIP3    H280615   4.903   5.831   2.214 -0.7250  0.4228 -0.7295
19734TIP3   OH280616   0.118   0.402   5.576 -0.0593  0.0188 -0.2629
19734TIP3    H180617   0.043   0.437   5.527  0.1365  0.2497 -0.4008
19734TIP3    H280618   0.193   0.450   5.541 -0.0279  0.8352  0.8919
19735TIP3   OH280619   6.473   6.465  16.441 -0.2359 -0.0063 -0.9037
19735TIP3    H180620   6.482   6.480  16.347  2.8084  0.5694 -0.6159
19735TIP3    H280621   6.512   6.379  16.456 -0.9124 -0.1982 -0.1926
19736TIP3   OH280622   2.933   6.438   4.403  0.7188 -0.2031 -0.3414
19736TIP3    H180623   2.945   6.525   4.365  0.5907  1.0043  2.1842
19736TIP3    H280624   3.003   6.429   4.467  0.1061 -1.5387  0.1912
19737TIP3   OH280625   1.177   6.578   0.713  0.0760 -0.0551 -0.3210
19737TIP3    H180626   1.092   6.534   0.708  0.0656 -0.2336  1.0742
19737TIP3    H280627   1.156   6.671   0.708 -0.3304 -0.0480  1.1922
19738TIP3   OH280628   5.196   6.598   4.892 -0.1445 -0.4445 -0.1589
19738TIP3    H180629   5.159   6.616   4.979  0.7546 -2.4710  0.7033
19738TIP3    H280630   5.149   6.521   4.861 -1.4130  1.0465 -2.1314
19739TIP3   OH280631   1.418   5.076   5.246  0.3269  0.4832 -0.1879
19739TIP3    H180632   1.363   5.001   5.270  0.8615  0.0094 -0.4099
19739TIP3    H280633   1.454   5.052   5.160 -0.4677  1.5442 -0.8318
19740TIP3   OH280634   3.106   2.523   2.602  0.3284 -0.4657  0.2164
19740TIP3    H180635   3.114   2.431   2.578  0.5983 -0.9098  1.8720
19740TIP3    H280636   3.194   2.547   2.633  0.4762  0.5937 -0.9615
19741TIP3   OH280637   1.312   3.177  14.901 -0.0523  0.1799 -0.1154
19741TIP3    H180638   1.328   3.247  14.838 -1.6867  0.5327 -0.1636
19741TIP3    H280639   1.318   3.096  14.850  0.2859  0.3587 -0.3655
19742TIP3   OH280640   2.587   2.019  15.833  0.3088 -0.5928 -0.1532
19742TIP3    H180641   2.561   1.981  15.917 -0.4351  1.7799  0.7677
19742TIP3    H280642   2.561   1.954  15.768 -1.0148 -1.5963  1.3173
19743TIP3   OH280643   0.143   4.855   2.142  0.0937 -0.1918  0.3198
19743TIP3    H180644   0.076   4.902   2.194  1.8598  0.5243  2.1072
19743TIP3    H280645   0.225   4.895   2.170  1.7151 -3.9613  1.5605
19744TIP3   OH280646   0.405   1.929   1.699  0.4810 -0.1382  0.2594
19744TIP3    H180647   0.464   1.868   1.744  0.3416 -0.4238  0.0563
19744TIP3    H280648   0.463   1.990   1.654  0.6307 -0.7900 -0.4504
19745TIP3   OH280649   2.998   5.039   1.285  0.4724  0.0708  0.5364
19745TIP3    H180650   2.967   5.000   1.366 -0.1683  1.6731  1.0977
19745TIP3    H280651   2.951   4.991   1.216 -0.9399  0.3865  1.2433
19746TIP3   OH280652   3.138   6.149   0.620 -0.3278  0.1191 -0.5311
19746TIP3    H180653   3.213   6.174   0.674 -0.8491 -1.0636  0.7763
19746TIP3    H280654   3.062   6.176   0.671 -0.8193  0.5291 -1.4623
19747TIP3   OH280655   5.166   6.293   1.701 -0.3357 -0.1053  0.0827
19747TIP3    H180656   5.183   6.262   1.790  0.8137  0.4882  0.0819
19747TIP3    H280657   5.111   6.225   1.662  1.1255 -1.5637  0.4754
19748TIP3   OH280658   6.382   1.213  15.590  0.2292 -0.2154 -0.2730
19748TIP3    H180659   6.339   1.266  15.657  1.3722  1.1791 -0.5913
19748TIP3    H280660   6.326   1.223  15.512  1.0395  1.5614 -0.6793
19749TIP3   OH280661   0.309   0.684  15.904  0.3093 -0.1736 -0.3305
19749TIP3    H180662   0.347   0.706  15.820  0.5832  0.6053 -0.0143
19749TIP3    H280663   0.246   0.755  15.921  2.2075  1.2035  1.3508
19750TIP3   OH280664   5.169   6.253  16.662 -0.2422 -0.0006  0.2188
19750TIP3    H180665   5.225   6.263  16.738 -0.1348 -1.0215  0.2926
19750TIP3    H280666   5.192   6.326  16.605  0.6447  0.0123  0.5766
19751TIP3   OH280667   3.705   6.268   5.209  0.0672 -0.2677  0.0929
19751TIP3    H180668   3.800   6.265   5.217  0.0836 -0.0501  0.0039
19751TIP3    H280669   3.682   6.191   5.156  0.0730 -1.0196  1.1632
19752TIP3   OH280670   4.675   2.364  15.344  0.1441  0.1920  0.6124
19752TIP3    H180671   4.601   2.423  15.328 -0.1926 -0.0496  1.2252
19752TIP3    H280672   4.749   2.421  15.364 -0.3054  0.4085  1.7307
19753TIP3   OH280673   3.988   3.495  14.865 -0.4500  0.1483  0.3598
19753TIP3    H180674   4.057   3.501  14.800  0.0108  0.9569  0.9082
19753TIP3    H280675   3.910   3.528  14.821 -0.6693 -1.3950 -0.4793
19754TIP3   OH280676   3.853   1.519  14.924  0.3918  0.3576 -0.1362
19754TIP3    H180677   3.805   1.543  14.846  0.3974 -2.6770 -1.2330
19754TIP3    H280678   3.910   1.593  14.942 -1.3841  2.1384 -1.5087
19755TIP3   OH280679   0.679   3.194  13.176 -0.3978  0.7982  0.0584
19755TIP3    H180680   0.694   3.217  13.267  1.9820 -1.0501  0.2519
19755TIP3    H280681   0.597   3.145  13.175 -1.9917  3.3223  0.6588
19756TIP3   OH280682   0.493   6.525   5.238 -0.1000  0.7858 -0.3646
19756TIP3    H180683   0.492   6.461   5.310  0.0404  0.7916 -0.3560
19756TIP3    H280684   0.481   6.609   5.281  0.3714  0.8277 -0.3028
19757TIP3   OH280685   2.335   2.912   6.399  0.0680 -0.1209  0.1321
19757TIP3    H180686   2.267   2.903   6.466 -0.1424  0.7071  0.0450
19757TIP3    H280687   2.379   2.827   6.398 -1.7649 -1.1230 -0.6953
19758TIP3   OH280688   0.194   3.356  11.415 -0.1254  0.2720 -0.1333
19758TIP3    H180689   0.209   3.335  11.323 -0.9683 -0.4639 -0.1079
19758TIP3    H280690   0.273   3.405  11.441  0.8671 -0.9262 -0.7978
19759TIP3   OH280691   6.015   5.584   4.749  0.4849 -0.0734 -0.0888
19759TIP3    H180692   5.993   5.582   4.656  3.2373  1.2896 -0.8764
19759TIP3    H280693   6.027   5.677   4.768  0.9282 -0.4139  1.3967
19760TIP3   OH280694   5.969   4.430  16.423  0.5527  0.4765  0.0033
19760TIP3    H180695   5.898   4.479  16.381  0.2221 -0.9138 -1.1427
19760TIP3    H280696   6.044   4.444  16.366  0.7293  0.4532  0.2285
19761TIP3   OH280697   5.401   0.505  12.043 -0.2380 -1.1595  0.3339
19761TIP3    H180698   5.388   0.494  12.137  1.3259  1.6484  1.0038
19761TIP3    H280699   5.481   0.557  12.036 -0.1888 -1.4592 -2.5791
19762TIP3   OH280700   5.573   6.060   3.161 -0.0387 -0.0495 -0.0697
19762TIP3    H180701   5.494   6.006   3.162 -0.8517  1.0291  2.2870
19762TIP3    H280702   5.645   5.997   3.162 -0.8340 -1.0530 -2.0307
19763TIP3   OH280703   4.143   5.950   0.483 -0.4121  0.5585 -0.3432
19763TIP3    H180704   4.226   5.920   0.447 -0.4582 -0.4931  0.3685
19763TIP3    H280705   4.165   6.027   0.535  0.1463  0.2174 -0.0639
19764TIP3   OH280706   1.230   2.493  16.138 -0.3882 -0.0402  0.0999
19764TIP3    H180707   1.184   2.427  16.190  0.7525  1.1824  2.8287
19764TIP3    H280708   1.320   2.493  16.172 -0.0993  2.2093 -0.4868
19765TIP3   OH280709   1.583   3.647  12.208 -0.7321 -1.0608 -0.4611
19765TIP3    H180710   1.514   3.708  12.183 -0.1044 -0.7994 -1.6285
19765TIP3    H280711   1.586   3.584  12.136  1.0359 -0.3721 -1.0445
19766TIP3   OH280712   3.126   6.189  12.455  0.1392  0.3205  0.4140
19766TIP3    H180713   3.048   6.179  12.509 -0.1556  0.3382  0.0001
19766TIP3    H280714   3.198   6.196  12.517 -0.2738  1.0618  0.8248
19767TIP3   OH280715   3.049   3.158   0.369  0.1296 -0.5059 -0.3444
19767TIP3    H180716   3.033   3.203   0.286 -0.2073 -0.1289 -0.0824
19767TIP3    H280717   3.092   3.076   0.345  0.6933 -0.0728 -0.8365
19768TIP3   OH280718   0.297   1.863   1.458  0.2922  0.1789  0.5372
19768TIP3    H180719   0.365   1.797   1.449 -0.9688 -1.2601  0.9584
19768TIP3    H280720   0.291   1.879   1.552 -0.2429 -0.0844  0.5591
19769TIP3   OH280721   0.788   0.479   1.619  0.1732  0.0362  0.2416
19769TIP3    H180722   0.826   0.428   1.690 -1.5734 -1.9521 -0.1780
19769TIP3    H280723   0.857   0.482   1.553  1.4418  1.0241  1.5446
19770TIP3   OH280724   4.976   0.583  16.518 -0.0802  0.0224  0.2199
19770TIP3    H180725   4.890   0.584  16.475  0.2190 -0.0730 -0.3953
19770TIP3    H280726   5.016   0.502  16.488  0.0120 -0.1987  0.9421
19771TIP3   OH280727   0.934   1.523  14.358 -0.0836 -0.2712 -0.1254
19771TIP3    H180728   0.986   1.444  14.375  0.2302  0.1213  0.7929
19771TIP3    H280729   0.857   1.491  14.311  0.0897 -1.1137  0.1477
19772TIP3   OH280730   0.744   3.513   0.199  0.1095  0.1953  0.0488
19772TIP3    H180731   0.710   3.603   0.195 -1.1885 -0.3051 -1.1952
19772TIP3    H280732   0.669   3.461   0.227  0.5658 -0.6267 -0.2450
19773TIP3   OH280733   3.321   3.835  14.035 -0.2269 -0.1915 -0.2490
19773TIP3    H180734   3.226   3.842  14.037 -0.2497 -0.4698 -0.3303
19773TIP3    H280735   3.351   3.920  14.002 -0.4082  0.1636  0.4974
19774TIP3   OH280736   2.726   1.530  14.248  0.3453 -0.1940  0.1680
19774TIP3    H180737   2.666   1.506  14.177 -0.1834  0.8075  0.2533
19774TIP3    H280738   2.686   1.491  14.326 -0.7414  1.2407  0.3746
19775TIP3   OH280739   3.758   3.158  17.013 -0.1637  0.4151 -0.0814
19775TIP3    H180740   3.684   3.169  17.072  0.2007  2.8693  0.0123
19775TIP3    H280741   3.828   3.124  17.068 -0.9347 -1.1897 -0.0164
19776TIP3   OH280742   1.661   6.340   4.867 -0.3862 -0.6121 -0.4263
19776TIP3    H180743   1.736   6.302   4.913  1.2273  0.7613 -1.7844
19776TIP3    H280744   1.630   6.410   4.924 -0.2963 -0.8394 -0.0972
19777TIP3   OH280745   4.506   1.774   0.730  0.1088  0.8780  0.1219
19777TIP3    H180746   4.568   1.707   0.703 -1.1554 -0.3736  0.2222
19777TIP3    H280747   4.537   1.854   0.687  1.6597  0.2693  0.0291
19778TIP3   OH280748   1.673   6.281  11.862  0.4275  0.0811 -0.2524
19778TIP3    H180749   1.661   6.376  11.857  0.4886  0.0390 -2.4958
19778TIP3    H280750   1.610   6.246  11.798 -0.3846 -1.5024  1.3253
19779TIP3   OH280751   2.891   0.273   1.240  0.3584  0.1309  0.0688
19779TIP3    H180752   2.846   0.330   1.304 -1.6113 -1.6777  0.3929
19779TIP3    H280753   2.897   0.188   1.284  1.4070 -0.4578 -1.1669
19780TIP3   OH280754   2.469   2.054  13.544 -0.4377 -0.3771  1.2626
19780TIP3    H180755   2.406   1.985  13.564 -0.7944 -0.5623 -0.4189
19780TIP3    H280756   2.415   2.127  13.513  0.1791 -0.7356 -0.7533
19781TIP3   OH280757   6.210   5.674   1.910  0.6134 -0.5433  0.3120
19781TIP3    H180758   6.252   5.648   1.992  0.2185 -0.9798  0.3786
19781TIP3    H280759   6.120   5.698   1.935  0.8740  0.5893  0.2059
19782TIP3   OH280760   0.283   4.200   5.444 -0.0522  0.1759 -0.1935
19782TIP3    H180761   0.346   4.267   5.418  0.0180 -0.0659 -0.6525
19782TIP3    H280762   0.197   4.236   5.422  0.1021 -1.2068 -3.6610
19783TIP3   OH280763   2.513   0.998  17.036  0.0564 -0.3350  0.0910
19783TIP3    H180764   2.443   0.943  17.071 -0.0883  0.0130  0.3554
19783TIP3    H280765   2.560   0.942  16.975 -0.2160 -0.6892  0.2065
19784TIP3   OH280766   0.641   3.745  16.308  0.7368 -0.0366 -0.1048
19784TIP3    H180767   0.695   3.729  16.231  0.0964  1.2631 -0.8439
19784TIP3    H280768   0.701   3.785  16.371  1.1653 -0.7445 -0.0435
19785TIP3   OH280769   3.813   1.878  16.021  0.4552 -0.4451  0.0108
19785TIP3    H180770   3.863   1.925  16.088 -0.1057 -0.7420  0.6468
19785TIP3    H280771   3.759   1.816  16.070 -0.8627  0.1741 -0.6178
19786TIP3   OH280772   6.742   0.987  15.102 -0.0169 -0.0732 -0.3758
19786TIP3    H180773   6.776   1.072  15.073  1.3401  0.2001  1.8218
19786TIP3    H280774   6.797   0.923  15.057 -0.5226  0.1962 -1.4194
19787TIP3   OH280775   1.140   4.928  15.117 -0.0798  0.6540 -0.1820
19787TIP3    H180776   1.105   4.850  15.161 -1.7762  0.8223 -1.1286
19787TIP3    H280777   1.176   4.895  15.035 -0.5822  0.8216 -0.4748
19788TIP3   OH280778   2.970   6.794  14.531  0.3325  0.1451  0.1959
19788TIP3    H180779   3.062   6.816  14.520  0.1525  0.8770  0.1120
19788TIP3    H280780   2.946   6.750  14.449  0.7068 -0.4138  0.3823
19789TIP3   OH280781   1.945   1.460   0.439  0.3404  0.4530  0.1321
19789TIP3    H180782   1.960   1.366   0.452  1.1152  0.6398  0.6594
19789TIP3    H280783   2.024   1.491   0.396 -0.1763  0.7606 -0.6182
19790TIP3   OH280784   3.634   2.638  14.684 -0.3631  0.0538  0.4574
19790TIP3    H180785   3.555   2.597  14.719 -2.1917  1.4117 -1.7872
19790TIP3    H280786   3.602   2.714  14.636  2.0442 -0.7341 -2.7011
19791TIP3   OH280787   5.607   0.400   2.091 -0.2089  0.0256 -0.1681
19791TIP3    H180788   5.596   0.392   2.186 -0.6441  0.3548 -0.1877
19791TIP3    H280789   5.699   0.377   2.075  0.3528  1.6793  0.5294
19792TIP3   OH280790   5.902   6.164   4.989  0.5583 -0.5126 -0.2652
19792TIP3    H180791   5.836   6.099   5.012  0.7223 -0.5664  0.0541
19792TIP3    H280792   5.985   6.121   5.004  0.6684 -0.3198 -0.3150
19793TIP3   OH280793   5.005   4.027  10.852 -0.7994  0.4599  0.2440
19793TIP3    H180794   4.960   4.079  10.919 -0.1231  1.4690 -0.0780
19793TIP3    H280795   4.935   3.973  10.813 -1.2298 -0.0591  1.6591
19794TIP3   OH280796   1.742   3.967   3.191  0.5952 -0.7226 -0.0668
19794TIP3    H180797   1.770   4.058   3.193  0.7109 -0.7487  2.3848
19794TIP3    H280798   1.759   3.939   3.101  0.7806  1.5741 -0.8148
19795TIP3   OH280799   0.029   6.045   0.989  0.1771  0.3024  0.8456
19795TIP3    H180800   0.044   6.012   1.078  0.2625  2.3850  1.6731
19795TIP3    H280801   0.089   6.120   0.981 -0.4642  0.7035 -0.6433
19796TIP3   OH280802   4.665   5.460   3.751 -0.1687 -0.2277  0.0319
19796TIP3    H180803   4.744   5.437   3.800 -0.2444 -0.5819 -0.0080
19796TIP3    H280804   4.605   5.387   3.767 -0.1552 -0.3975 -0.6708
19797TIP3   OH280805   3.771   4.494   2.355  0.3266 -0.0844 -0.1112
19797TIP3    H180806   3.715   4.514   2.281  0.9999  1.8646 -0.1410
19797TIP3    H280807   3.772   4.398   2.359 -1.9984 -0.1942 -0.8249
19798TIP3   OH280808   1.058   4.140  14.038  0.0599 -0.4293  0.1761
19798TIP3    H180809   1.093   4.081  14.105 -0.3397 -0.9952 -0.1057
19798TIP3    H280810   1.021   4.213  14.088 -0.7751 -1.1360  0.6163
19799TIP3   OH280811   5.036   1.551   5.276 -0.0382 -0.0302 -0.6560
19799TIP3    H180812   5.073   1.522   5.192  0.7115  0.5317 -0.5345
19799TIP3    H280813   5.034   1.647   5.269 -1.2907 -0.0387 -0.5711
19800TIP3   OH280814   6.685   1.153  16.034  0.8064  0.7517  0.2167
19800TIP3    H180815   6.745   1.189  15.968 -0.5486  1.3184 -0.7462
19800TIP3    H280816   6.643   1.079  15.990 -1.4195  2.2004 -0.2654
19801TIP3   OH280817   0.291   3.683   1.518  0.1016  0.4967 -0.1641
19801TIP3    H180818   0.264   3.685   1.426  1.5636 -0.6123 -0.6536
19801TIP3    H280819   0.211   3.662   1.566 -0.4234 -0.2207 -1.3072
19802TIP3   OH280820   4.094   5.732   0.648  0.0158 -0.1240 -0.5060
19802TIP3    H180821   4.103   5.798   0.579  1.3126 -0.5000 -0.7157
19802TIP3    H280822   4.066   5.653   0.602 -0.7237  0.0423 -0.3628
19803TIP3   OH280823   6.724   2.779   3.867 -0.6184 -0.6672 -0.1730
19803TIP3    H180824   6.787   2.851   3.862 -0.2034 -1.0187 -0.0609
19803TIP3    H280825   6.676   2.796   3.948 -0.2409 -0.7417  0.0691
19804TIP3   OH280826   1.806   4.875   2.965  0.3051 -0.6753  0.2139
19804TIP3    H180827   1.778   4.896   2.876 -0.4112  0.9119  0.7865
19804TIP3    H280828   1.760   4.793   2.985  1.6844 -1.9204 -1.3912
19805TIP3   OH280829   1.939   3.575   2.333 -0.7475  0.0318 -0.1917
19805TIP3    H180830   1.957   3.551   2.424 -1.5684  1.2172  0.3172
19805TIP3    H280831   1.956   3.669   2.329 -2.5235  0.3772 -0.7450
19806TIP3   OH280832   4.709   0.985  14.102 -0.5795 -0.6640  0.0131
19806TIP3    H180833   4.659   0.928  14.161 -0.7992  0.0686  0.5479
19806TIP3    H280834   4.793   0.940  14.091 -0.6647 -0.9852  0.6155
19807TIP3   OH280835   6.223   6.787   6.971  0.0916  0.4685 -0.6338
19807TIP3    H180836   6.209   6.694   6.991  0.9914  0.6893  1.1973
19807TIP3    H280837   6.231   6.789   6.875 -2.1383 -1.0021 -0.9493
19808TIP3   OH280838   3.953   4.000  14.948 -0.1192  0.3135 -0.5010
19808TIP3    H180839   3.887   4.052  14.901 -0.1911  0.4457 -0.2550
19808TIP3    H280840   3.993   3.946  14.880 -0.1755  0.5537 -0.7274
19809TIP3   OH280841   5.421   2.392  16.154  0.1934 -0.7143  0.2087
19809TIP3    H180842   5.463   2.462  16.203  1.2879 -2.3936  1.7864
19809TIP3    H280843   5.441   2.312  16.203 -1.0156 -2.1573 -1.4944
19810TIP3   OH280844   1.444   6.634  12.347  0.0035  0.5314 -0.5338
19810TIP3    H180845   1.511   6.604  12.409  1.1348  0.7363 -1.5962
19810TIP3    H280846   1.372   6.664  12.401  0.3976 -0.5830  0.6339
19811TIP3   OH280847   0.353   6.789   2.994 -0.3845  0.3243  0.1966
19811TIP3    H180848   0.430   6.778   2.937 -1.5192 -0.4733 -1.2288
19811TIP3    H280849   0.314   6.872   2.965 -0.2636  0.5587  0.6942
19812TIP3   OH280850   1.239   6.618   3.001  0.3252 -0.0682 -0.0241
19812TIP3    H180851   1.288   6.615   2.920  0.6915  0.3942  0.1749
19812TIP3    H280852   1.155   6.657   2.977  0.5633  0.3916 -0.1212
19813TIP3   OH280853   3.615   0.954   0.029 -0.2027  0.1098 -0.0735
19813TIP3    H180854   3.692   0.966   0.085 -1.7409 -0.5452  2.3207
19813TIP3    H280855   3.562   1.032   0.043 -1.2947 -0.7114  0.6203
19814TIP3   OH280856   6.717   1.254   2.990 -0.0221 -0.2492 -0.3190
19814TIP3    H180857   6.632   1.288   2.963 -0.7433 -0.4091  1.5630
19814TIP3    H280858   6.773   1.332   2.996 -0.3029 -0.0224 -0.6274
19815TIP3   OH280859   5.112   2.003   1.276 -0.0999  0.1455  0.0008
19815TIP3    H180860   5.162   1.924   1.255  1.6818  1.4899 -1.1729
19815TIP3    H280861   5.151   2.071   1.221 -0.9554  2.0479  1.6142
19816TIP3   OH280862   5.271   6.303   5.896 -0.1585  0.2602 -0.0106
19816TIP3    H180863   5.285   6.394   5.869 -2.5267  0.3997 -1.0867
19816TIP3    H280864   5.278   6.305   5.991  1.1238  1.2907 -0.1029
19817TIP3   OH280865   6.449   6.622  12.475  0.7496  0.0658  0.6408
19817TIP3    H180866   6.353   6.621  12.480  0.6704 -1.9540 -0.3087
19817TIP3    H280867   6.469   6.700  12.423 -0.4670 -0.0608 -0.0759
19818TIP3   OH280868   4.797   4.362   4.885  0.2475  0.1442 -0.6263
19818TIP3    H180869   4.806   4.314   4.803  1.2551  0.6761 -0.8390
19818TIP3    H280870   4.801   4.454   4.861 -0.6137  0.3395 -0.0996
19819TIP3   OH280871   0.634   5.322   0.481 -0.4952 -0.0292  0.1685
19819TIP3    H180872   0.667   5.237   0.512 -1.4459  0.7469  3.8568
19819TIP3    H280873   0.713   5.372   0.460  0.0790 -1.7908 -2.2862
19820TIP3   OH280874   5.876   6.042   2.559 -0.1024  0.3176  0.1266
19820TIP3    H180875   5.871   5.998   2.644  1.3235  0.8595  0.5355
19820TIP3    H280876   5.888   5.971   2.496  0.3231 -0.0050  0.5608
19821TIP3   OH280877   3.293   3.323   6.237  0.1857  0.0224 -0.1762
19821TIP3    H180878   3.340   3.390   6.188  1.9591 -0.1056  1.2395
19821TIP3    H280879   3.230   3.287   6.174 -0.0371  2.2081 -1.2891
19822TIP3   OH280880   1.196   6.300  15.497  0.1708 -0.1152  0.1824
19822TIP3    H180881   1.163   6.388  15.479 -1.4825 -0.8186 -0.4222
19822TIP3    H280882   1.136   6.242  15.450  1.8117 -1.5322 -0.2557
19823TIP3   OH280883   5.561   0.490   2.999 -0.0410 -0.2012  0.3284
19823TIP3    H180884   5.655   0.494   3.018  0.2009 -1.3980 -0.5111
19823TIP3    H280885   5.519   0.521   3.079  1.0890  3.5364 -0.3274
19824TIP3   OH280886   4.147   0.220  11.369 -0.1825 -0.3742  0.5484
19824TIP3    H180887   4.087   0.287  11.401 -1.1881 -0.7020 -0.5669
19824TIP3    H280888   4.124   0.209  11.276  2.2715  0.1806 -0.1943
19825TIP3   OH280889   2.506   2.501  13.301  0.3838 -0.7154 -0.2113
19825TIP3    H180890   2.470   2.588  13.283 -1.2408 -0.8555  1.8818
19825TIP3    H280891   2.487   2.450  13.222  0.9967  0.6890 -1.3062
19826TIP3   OH280892   2.787   3.103  12.510 -0.0749 -0.0076  0.1129
19826TIP3    H180893   2.867   3.152  12.493 -1.1823  1.6506 -0.5639
19826TIP3    H280894   2.728   3.166  12.551 -1.0195 -1.2164  0.7054
19827TIP3   OH280895   3.404   3.827  16.029  0.7820 -0.2071 -0.2516
19827TIP3    H180896   3.484   3.861  15.989  0.1790  1.6513  0.0272
19827TIP3    H280897   3.333   3.863  15.977  0.0782 -1.5222 -0.2650
19828TIP3   OH280898   4.778   2.432  14.067  0.1684 -0.1040 -0.5168
19828TIP3    H180899   4.839   2.363  14.042  0.7120  0.7105 -1.5327
19828TIP3    H280900   4.775   2.429  14.162  0.7364 -1.0486 -0.5168
19829TIP3   OH280901   3.013   3.091  11.453 -0.5515 -0.2054  0.4323
19829TIP3    H180902   2.999   3.145  11.375 -1.3388 -0.5982  0.2986
19829TIP3    H280903   2.973   3.141  11.524 -0.9368 -0.4265  0.3733
19830TIP3   OH280904   4.914   2.292   0.993 -0.2993 -0.1942 -0.0744
19830TIP3    H180905   4.879   2.297   1.082 -0.1897  0.9876 -0.0840
19830TIP3    H280906   5.008   2.306   1.004 -0.2985  0.0542 -0.3742
19831TIP3   OH280907   5.495   2.890   5.624 -0.7676  0.5714  0.5571
19831TIP3    H180908   5.429   2.953   5.653 -1.1572 -0.3336  1.7171
19831TIP3    H280909   5.444   2.819   5.585 -0.5750 -0.4831  2.1260
19832TIP3   OH280910   1.813   3.369   1.064  0.1516 -0.2011 -0.1005
19832TIP3    H180911   1.822   3.461   1.037  0.2347 -0.0098  0.5551
19832TIP3    H280912   1.733   3.368   1.116  1.3426 -0.0064  1.8559
19833TIP3   OH280913   0.748   2.344   0.742  0.1572  0.4795 -0.1278
19833TIP3    H180914   0.766   2.418   0.800 -1.3915  1.8125 -1.2510
19833TIP3    H280915   0.790   2.368   0.659  2.7139 -1.5882  0.4312
19834TIP3   OH280916   3.342   5.822   1.142  0.3556 -0.2277 -0.6247
19834TIP3    H180917   3.333   5.886   1.071 -0.1239 -0.2145 -0.5564
19834TIP3    H280918   3.436   5.805   1.147  0.4811  0.4159 -0.6955
19835TIP3   OH280919   3.003   0.605  12.825 -0.0870  0.2214  0.2828
19835TIP3    H180920   3.062   0.646  12.762 -0.0026 -1.1031 -0.5274
19835TIP3    H280921   3.061   0.567  12.891 -0.0458 -0.6193 -0.2291
19836TIP3   OH280922   4.656   5.593  15.770 -0.3390  0.0209 -0.0269
19836TIP3    H180923   4.716   5.581  15.696  0.9265 -0.1806  1.0020
19836TIP3    H280924   4.580   5.540  15.747  1.3850 -2.8051  0.2514
19837TIP3   OH280925   6.492   6.046  15.068 -0.9147 -0.5374  0.0874
19837TIP3    H180926   6.416   6.024  15.121  0.0290  1.7374  2.6686
19837TIP3    H280927   6.549   5.969  15.074 -1.7267 -1.1104  0.6349
19838TIP3   OH280928   0.462   1.536  10.792  0.3755 -0.0619 -0.0548
19838TIP3    H180929   0.411   1.614  10.772  0.1810  0.1501  1.1997
19838TIP3    H280930   0.419   1.466  10.743 -1.1351  0.1128  0.9661
19839TIP3   OH280931   1.025   3.978  14.885 -0.5160 -0.2372  0.2343
19839TIP3    H180932   1.091   3.942  14.944  1.8008 -0.0510 -2.0628
19839TIP3    H280933   1.030   4.073  14.899 -0.3411 -0.2303  0.1338
19840TIP3   OH280934   4.825   6.410  16.172  0.1373  0.2703  0.3787
19840TIP3    H180935   4.898   6.463  16.139 -0.3629  0.9205  0.3054
19840TIP3    H280936   4.751   6.471  16.176 -0.0301  0.0090  1.9025
19841TIP3   OH280937   1.225   1.759  12.600 -0.2717  0.2869  0.1294
19841TIP3    H180938   1.140   1.718  12.585 -1.1127  1.7430  0.7415
19841TIP3    H280939   1.225   1.836  12.542  1.0994 -0.3008 -0.6933
19842TIP3   OH280940   2.515   0.502  13.682  0.6244  0.3026  0.0025
19842TIP3    H180941   2.606   0.510  13.655  0.7659  0.1825  0.4351
19842TIP3    H280942   2.505   0.409  13.705  0.1019  0.0786 -1.0724
19843TIP3   OH280943   0.070   1.555   5.642 -0.0418  0.2783  0.2583
19843TIP3    H180944   0.092   1.558   5.735 -0.6473 -1.2738  0.4860
19843TIP3    H280945   0.124   1.484   5.608 -1.4872 -0.6996 -0.0670
19844TIP3   OH280946   0.792   3.593   4.282  0.0185  0.0243  0.0954
19844TIP3    H180947   0.779   3.680   4.319 -0.2563 -0.6500  1.6743
19844TIP3    H280948   0.885   3.590   4.260  0.1872  0.4630  0.7227
19845TIP3   OH280949   6.264   0.241   2.215  0.3657  0.4100 -0.3736
19845TIP3    H180950   6.258   0.180   2.289  0.5360  0.0883 -0.6238
19845TIP3    H280951   6.195   0.305   2.231 -0.2889 -0.2583 -0.4858
19846TIP3   OH280952   5.128   4.560  16.547  0.3672  0.5272  0.0916
19846TIP3    H180953   5.162   4.477  16.512  0.3596  1.1233 -1.4222
19846TIP3    H280954   5.093   4.605  16.470  1.8912  2.6580  0.5736
19847TIP3   OH280955   4.058   1.535   0.331 -0.3030  0.4697  0.3475
19847TIP3    H180956   4.023   1.447   0.341  0.5079  0.1964  0.8366
19847TIP3    H280957   3.993   1.591   0.376 -0.3043  0.0088  0.9375
19848TIP3   OH280958   6.401   1.945   1.445  0.1929 -0.1051 -0.0747
19848TIP3    H180959   6.456   2.009   1.489  2.6997 -0.2986 -2.7115
19848TIP3    H280960   6.418   1.863   1.492 -1.1274  0.5545  1.7070
19849TIP3   OH280961   2.117   3.114   5.352 -0.5994 -0.0005  0.1865
19849TIP3    H180962   2.119   3.059   5.274 -0.2923 -1.8809  1.4442
19849TIP3    H280963   2.195   3.170   5.344 -0.7975  0.1264 -1.0307
19850TIP3   OH280964   0.091   5.589   3.407 -0.1853 -0.0990  0.5157
19850TIP3    H180965   0.116   5.573   3.316 -1.3818  3.1436 -0.5333
19850TIP3    H280966   0.104   5.504   3.450  1.9477 -1.3762 -2.2600
19851TIP3   OH280967   5.841   6.317   4.734 -0.2254  0.1534  0.4603
19851TIP3    H180968   5.815   6.409   4.734  1.9798  0.8313  1.1370
19851TIP3    H280969   5.843   6.293   4.826  2.6734  0.5540  0.5856
19852TIP3   OH280970   5.277   5.450   0.679 -0.2152 -0.1104  0.1543
19852TIP3    H180971   5.290   5.544   0.671 -1.8431  0.0352 -1.2002
19852TIP3    H280972   5.360   5.418   0.715  0.7064  1.7072 -0.2205
19853TIP3   OH280973   0.508   3.414  15.009  0.3560  0.2403  0.0470
19853TIP3    H180974   0.481   3.448  15.095  1.7634 -0.0872  0.6542
19853TIP3    H280975   0.583   3.469  14.984  0.3226 -0.0473 -0.7063
19854TIP3   OH280976   6.210   2.356   5.867  0.0158  0.0739 -0.2188
19854TIP3    H180977   6.290   2.332   5.915 -0.3929  1.4230  1.2317
19854TIP3    H280978   6.234   2.438   5.822  0.5947 -1.4868 -2.9625
19855TIP3   OH280979   5.404   2.982  14.529 -0.8735  0.7045  0.1703
19855TIP3    H180980   5.391   2.892  14.558 -1.1259  1.1884  1.6346
19855TIP3    H280981   5.373   2.983  14.439 -0.3556 -0.7920 -0.0544
19856TIP3   OH280982   4.528   3.766  16.035 -0.8173  0.1800  0.2330
19856TIP3    H180983   4.482   3.833  16.086  1.8521  1.1622  1.5454
19856TIP3    H280984   4.615   3.804  16.018  0.6011 -2.6734  0.4965
19857TIP3   OH280985   5.449   2.135  15.562  0.6332 -0.0176  0.1478
19857TIP3    H180986   5.408   2.189  15.494  1.5941  0.7262  0.1313
19857TIP3    H280987   5.538   2.122  15.531  1.5904  1.6641  1.9533
19858TIP3   OH280988   2.551   6.635   0.115 -0.2531 -0.5978  0.1097
19858TIP3    H180989   2.513   6.643   0.202 -0.1400 -0.4819  0.1494
19858TIP3    H280990   2.635   6.590   0.129 -0.2538 -0.6169  0.0553
19859TIP3   OH280991   2.153   4.517   2.799  0.1819 -0.0762 -0.2699
19859TIP3    H180992   2.152   4.599   2.848  2.5719 -0.4108  0.4686
19859TIP3    H280993   2.168   4.542   2.708  0.6375  0.3298 -0.0853
19860TIP3   OH280994   3.940   4.600  15.035  0.2269 -0.1254 -0.5011
19860TIP3    H180995   4.009   4.657  15.001 -0.0201  0.0125 -0.7793
19860TIP3    H280996   3.980   4.513  15.038  1.4334  0.4122  2.2707
19861TIP3   OH280997   4.755   4.529   1.069  0.3025 -0.0894  0.1031
19861TIP3    H180998   4.695   4.485   1.009  1.6024  0.8649 -2.0348
19861TIP3    H280999   4.788   4.460   1.126 -1.1595 -0.9998 -0.1275
19862TIP3   OH281000   0.832   3.108   2.456 -0.1476 -0.0756 -0.1673
19862TIP3    H181001   0.770   3.074   2.391 -0.1429  0.0780 -0.2523
19862TIP3    H281002   0.808   3.063   2.537 -1.3818  1.1114  0.1754
19863TIP3   OH281003   1.354   2.171  16.938 -0.2546 -0.4334 -0.7290
19863TIP3    H181004   1.314   2.086  16.954 -0.5354  0.1020  1.9745
19863TIP3    H281005   1.308   2.230  16.998  0.9677  1.3068 -1.4262
19864TIP3   OH281006   0.829   1.667   2.213 -0.0542 -0.4350 -0.3453
19864TIP3    H181007   0.852   1.592   2.267 -1.4829 -0.3302  0.4474
19864TIP3    H281008   0.914   1.704   2.186  0.7009 -0.6474  1.5781
19865TIP3   OH281009   1.052   6.132  15.336 -0.1833  0.1137  0.1400
19865TIP3    H181010   1.004   6.210  15.308 -0.2381  0.4789  1.2059
19865TIP3    H281011   1.068   6.084  15.255  2.5303  2.6752 -1.0320
19866TIP3   OH281012   5.909   4.757  16.585 -0.1602 -0.2573  0.1675
19866TIP3    H181013   5.922   4.728  16.675  0.0953 -0.7063 -0.0116
19866TIP3    H281014   5.950   4.844  16.581  0.5160 -0.5635  0.2842
19867TIP3   OH281015   6.753   4.527  14.350 -0.0738  0.4226  0.2334
19867TIP3    H181016   6.686   4.459  14.348 -1.5184  1.7924 -0.7493
19867TIP3    H281017   6.729   4.583  14.424 -0.2415  1.0871 -0.3036
19868TIP3   OH281018   4.831   2.340  16.519 -0.1672  0.0037  0.0437
19868TIP3    H181019   4.748   2.305  16.486 -0.5554 -0.5147  1.4830
19868TIP3    H281020   4.805   2.403  16.586  0.5813  1.5471 -1.0683
19869TIP3   OH281021   5.906   2.377   0.002 -0.5500  0.1611  0.6170
19869TIP3    H181022   5.994   2.407  -0.021 -0.6201 -0.5175 -0.6153
19869TIP3    H281023   5.911   2.360   0.096  0.4386  0.7760  0.6958
19870TIP3   OH281024   0.847   2.042   1.357  0.3721 -0.0126  0.4146
19870TIP3    H181025   0.755   2.018   1.347  0.4403  0.2855 -1.0671
19870TIP3    H281026   0.892   1.996   1.286  0.7928  2.8158 -1.3147
19871TIP3   OH281027   0.274   1.722  14.798 -0.2784 -0.0454 -0.4786
19871TIP3    H181028   0.211   1.766  14.855 -0.3927 -0.7744 -0.0319
19871TIP3    H281029   0.355   1.772  14.808 -0.8748  1.1581 -1.3792
19872TIP3   OH281030   0.536   3.063   0.437  0.2154  0.2899  0.2421
19872TIP3    H181031   0.616   3.024   0.472  0.5553 -0.0472 -0.8682
19872TIP3    H281032   0.486   2.988   0.403 -2.0232  0.0652  3.5570
19873TIP3   OH281033   6.549   3.083  12.639 -0.1308  0.2806  0.0948
19873TIP3    H181034   6.581   3.131  12.562  2.4964  2.0283  2.1192
19873TIP3    H281035   6.567   2.991  12.619  1.3385  0.7754 -1.0274
19874TIP3   OH281036   1.561   0.363  16.759 -0.2126  0.2658 -0.0532
19874TIP3    H181037   1.631   0.311  16.720 -1.9605 -0.3502 -2.6137
19874TIP3    H281038   1.578   0.453  16.729  0.5925  0.4826  1.0317
19875TIP3   OH281039   3.231   1.353  10.892  0.1801 -1.3027 -0.1604
19875TIP3    H181040   3.279   1.270  10.887  1.1818 -0.6916 -1.4285
19875TIP3    H281041   3.139   1.329  10.881  0.5060 -2.1978 -1.0624
19876TIP3   OH281042   4.620   2.215  17.122 -0.4161 -0.0600 -0.1363
19876TIP3    H181043   4.629   2.167  17.205 -0.2975 -0.5444 -0.4239
19876TIP3    H281044   4.538   2.264  17.132  0.8609  1.9586  1.2790
19877TIP3   OH281045   4.453   3.014   0.320 -0.2990  0.4164 -0.2977
19877TIP3    H181046   4.386   3.053   0.263 -0.9488  2.1286  1.5152
19877TIP3    H281047   4.524   2.990   0.261 -2.1011 -0.6140 -2.1796
19878TIP3   OH281048   0.987   0.335  12.258  0.2517 -0.0514 -0.8686
19878TIP3    H181049   1.031   0.420  12.265  0.5121 -0.2872  0.6164
19878TIP3    H281050   1.051   0.273  12.292 -0.9675 -0.4831  0.7137
19879TIP3   OH281051   6.247   0.881   2.977 -0.1349 -0.3154  0.1937
19879TIP3    H181052   6.202   0.950   3.026 -1.2355 -0.2468 -0.8672
19879TIP3    H281053   6.335   0.915   2.964 -0.4629  0.6010  0.2681
19880TIP3   OH281054   1.589   0.655   2.550 -0.2453 -0.2405 -0.5389
19880TIP3    H181055   1.558   0.611   2.628  0.8682 -2.0700 -1.0716
19880TIP3    H281056   1.575   0.748   2.568 -0.6922 -0.6546  1.5102
19881TIP3   OH281057   2.444   0.874   3.597 -0.2224  0.0119  0.5115
19881TIP3    H181058   2.428   0.860   3.504 -0.6462 -1.1144  0.7424
19881TIP3    H281059   2.374   0.934   3.625  0.6196  1.3388 -0.1316
19882TIP3   OH281060   6.490   1.352  13.521 -0.3104 -0.2187  0.3067
19882TIP3    H181061   6.526   1.263  13.512 -0.2678 -0.2664  0.9361
19882TIP3    H281062   6.534   1.389  13.597 -0.1142  0.4549 -0.1227
19883TIP3   OH281063   5.101   4.435   2.757 -0.1583  0.3300  0.2257
19883TIP3    H181064   5.052   4.398   2.830  0.3542 -0.6683  0.0830
19883TIP3    H281065   5.044   4.424   2.681  0.7840 -2.1728 -0.2208
19884TIP3   OH281066   4.940   5.104  16.216 -0.2560 -0.3277 -0.5377
19884TIP3    H181067   4.926   5.044  16.143 -3.1912 -0.5874  0.1185
19884TIP3    H281068   4.855   5.147  16.229  1.4996  3.6814 -0.6248
19885TIP3   OH281069   2.899   5.666  12.395 -0.2175 -0.0969  0.1240
19885TIP3    H181070   2.815   5.682  12.437 -1.7265 -1.3495 -2.1572
19885TIP3    H281071   2.909   5.571  12.398  0.8927  0.0055 -0.0256
19886TIP3   OH281072   2.588   5.183  15.065 -0.3180 -0.2412 -0.5954
19886TIP3    H181073   2.629   5.269  15.059 -0.5638  0.0549  1.3921
19886TIP3    H281074   2.556   5.178  15.155 -1.2010 -2.0165 -0.9701
19887TIP3   OH281075   3.747   6.525   5.869 -0.2039  0.4790 -0.3853
19887TIP3    H181076   3.728   6.435   5.893  1.4881  0.2672  0.3151
19887TIP3    H281077   3.692   6.578   5.926 -1.0718 -0.0899 -0.6753
19888TIP3   OH281078   4.198   0.893  13.303  0.9496  0.5593 -0.2172
19888TIP3    H181079   4.125   0.887  13.365  0.9399 -1.4085 -0.3635
19888TIP3    H281080   4.271   0.924  13.356  0.2776  1.5934  0.1452
19889TIP3   OH281081   1.334   6.611   6.433  0.3040 -0.1258  0.1531
19889TIP3    H181082   1.417   6.658   6.420 -1.4371  2.6607 -2.1539
19889TIP3    H281083   1.320   6.565   6.350 -1.6389  1.6225 -0.5610
19890TIP3   OH281084   1.396   1.552  14.133 -0.4864 -0.2588  0.3948
19890TIP3    H181085   1.481   1.540  14.090 -1.1773 -0.9328 -0.8276
19890TIP3    H281086   1.349   1.471  14.115 -2.3112  1.0395 -1.1047
19891TIP3   OH281087   2.910   3.638   4.411  0.0763 -0.6967  0.5088
19891TIP3    H181088   2.983   3.683   4.453  2.7122 -1.0141 -3.2768
19891TIP3    H281089   2.951   3.571   4.357 -3.0952 -1.2626 -1.4392
19892TIP3   OH281090   1.869   2.044   0.278 -0.1584  0.1295 -0.5777
19892TIP3    H181091   1.880   1.983   0.205 -0.9075  0.7549 -1.2322
19892TIP3    H281092   1.825   1.993   0.346 -2.4282  0.3638 -1.7742
19893TIP3   OH281093   0.533   6.678  15.881  0.1960 -0.2319  0.0470
19893TIP3    H181094   0.532   6.702  15.788  1.1033  0.8702  0.2959
19893TIP3    H281095   0.508   6.586  15.883 -0.0653 -0.2009 -1.2729
19894TIP3   OH281096   2.190   6.276  14.741  0.2689  0.5768 -0.1208
19894TIP3    H181097   2.098   6.301  14.743 -0.0753 -0.5736  2.6210
19894TIP3    H281098   2.236   6.349  14.782  0.3390  0.3145  0.2656
19895TIP3   OH281099   2.045   6.309  13.115  0.2754  0.2520 -0.0236
19895TIP3    H181100   1.951   6.314  13.100  0.3815 -0.6973 -1.1382
19895TIP3    H281101   2.082   6.379  13.061  0.3803 -1.0195 -1.6983
19896TIP3   OH281102   2.683   0.084   2.538 -0.5149  0.0048  0.4854
19896TIP3    H181103   2.639  -0.002   2.543 -0.0966 -0.1506  2.6870
19896TIP3    H281104   2.623   0.143   2.583  0.3877  0.2917  1.3448
19897TIP3   OH281105   6.567   4.675  13.131  0.9151 -0.6848 -0.5050
19897TIP3    H181106   6.569   4.752  13.074 -3.4279  0.0706  0.0324
19897TIP3    H281107   6.584   4.711  13.219 -0.3151 -0.3911 -0.3634
19898TIP3   OH281108   5.698   5.748   4.679 -0.5811 -0.1143  0.4255
19898TIP3    H181109   5.762   5.812   4.646 -0.5303  0.9896  2.4865
19898TIP3    H281110   5.621   5.801   4.702 -0.7486 -0.8483  1.6583
19899TIP3   OH281111   0.889   4.042   4.097  0.1011 -0.0717 -0.3017
19899TIP3    H181112   0.984   4.045   4.099  0.2017  2.4689 -2.9212
19899TIP3    H281113   0.868   3.975   4.031  0.2661  1.4991 -2.0438
19900TIP3   OH281114   0.899   5.876  13.866 -0.6714  0.0697 -0.1429
19900TIP3    H181115   0.894   5.801  13.926  1.1197 -1.3044 -1.5711
19900TIP3    H281116   0.831   5.858  13.800  0.9315 -1.3641 -1.5042
19901TIP3   OH281117   0.467   4.236  14.210  0.0518  0.0139  0.1609
19901TIP3    H181118   0.498   4.152  14.176  0.8836  1.0654 -1.8837
19901TIP3    H281119   0.513   4.247  14.293  0.6579 -1.1201 -0.0077
19902TIP3   OH281120   2.789   5.406  13.688 -0.2109 -0.1876 -0.6062
19902TIP3    H181121   2.734   5.463  13.742 -0.5499 -0.5126 -0.6027
19902TIP3    H281122   2.728   5.367  13.625 -0.4616 -2.4084  0.9000
19903TIP3   OH281123   5.847   0.273  14.981  0.2016  0.4157 -0.2797
19903TIP3    H181124   5.899   0.275  14.901  0.5294 -0.1820 -0.0854
19903TIP3    H281125   5.800   0.357  14.981  0.2159  0.4305 -1.0780
19904TIP3   OH281126   0.448   0.502   2.790 -0.6557 -0.4626 -0.6664
19904TIP3    H181127   0.425   0.428   2.846 -1.5078 -0.4207 -0.9449
19904TIP3    H281128   0.365   0.546   2.773 -0.3729 -0.2948 -1.7155
19905TIP3   OH281129   0.027   0.185  10.600 -0.0227  0.3485 -0.0477
19905TIP3    H181130   0.060   0.210  10.513  0.1912 -0.7309 -0.2954
19905TIP3    H281131   0.070   0.246  10.660 -0.6602  1.5312 -0.7426
19906TIP3   OH281132   4.076   1.858   1.644  0.8277  0.4609  0.0665
19906TIP3    H181133   4.171   1.866   1.634  0.9071  0.9793  1.1333
19906TIP3    H281134   4.051   1.937   1.692 -0.3036  0.8925 -1.1644
19907TIP3   OH281135   2.215   5.542   2.295 -0.1390 -0.4028  0.1433
19907TIP3    H181136   2.303   5.511   2.275 -0.3183 -1.6149  1.1101
19907TIP3    H281137   2.170   5.465   2.330 -1.4527  0.3035  0.0610
19908TIP3   OH281138   0.410   6.675   4.976  0.8701 -0.2838  0.2926
19908TIP3    H181139   0.404   6.608   5.045  0.6753 -1.0901 -0.4942
19908TIP3    H281140   0.469   6.741   5.013  0.2283 -0.3528  1.5135
19909TIP3   OH281141   3.361   0.653  16.727  0.3998  0.3454  0.4021
19909TIP3    H181142   3.393   0.720  16.787 -1.1122  2.8129 -1.3750
19909TIP3    H281143   3.279   0.624  16.765 -0.0267  1.1237  0.0890
19910TIP3   OH281144   1.004   1.296   2.867  0.3944 -0.2397  0.1963
19910TIP3    H181145   1.091   1.324   2.838  0.2555 -0.5429 -0.5316
19910TIP3    H281146   0.952   1.377   2.866  0.2701 -0.3185 -0.8780
19911TIP3   OH281147   4.508   1.769  11.364 -0.4361  0.0072  0.2794
19911TIP3    H181148   4.422   1.727  11.370 -0.7146 -0.1722 -3.0607
19911TIP3    H281149   4.567   1.710  11.411 -1.9966  0.0167  2.4463
19912TIP3   OH281150   5.083   6.633   3.476  0.2992  0.5773 -0.1066
19912TIP3    H181151   5.106   6.706   3.533  1.2479 -1.0204  1.6578
19912TIP3    H281152   5.144   6.640   3.403  1.7132  0.4707  1.0191
19913TIP3   OH281153   6.387   1.664   5.494  0.1177  0.2581 -0.0482
19913TIP3    H181154   6.474   1.635   5.467  0.7916  1.1786  1.0391
19913TIP3    H281155   6.371   1.743   5.443 -0.0740  0.0958 -0.2384
19914TIP3   OH281156   4.646   0.906   2.675 -0.5193 -0.5539  0.1317
19914TIP3    H181157   4.690   0.876   2.596 -1.3714 -0.4682 -0.3854
19914TIP3    H281158   4.679   0.994   2.689 -0.0996 -0.7015  0.0767
19915TIP3   OH281159   0.366   1.268   0.979 -0.2672 -0.5358  0.3831
19915TIP3    H181160   0.438   1.330   0.993 -0.4497  0.0340 -1.0422
19915TIP3    H281161   0.343   1.279   0.886 -0.9179 -2.0866  0.3414
19916TIP3   OH281162   4.357   3.401   0.233 -0.0609 -0.3477  0.0912
19916TIP3    H181163   4.265   3.388   0.213 -0.4777 -0.1298  1.7732
19916TIP3    H281164   4.403   3.378   0.152 -1.5851 -0.3381 -0.7999
19917TIP3   OH281165   5.113   1.715   2.079 -0.6550  0.2308 -0.2479
19917TIP3    H181166   5.091   1.623   2.091 -1.5659  0.6287  1.6694
19917TIP3    H281167   5.205   1.721   2.106 -1.2313  0.2002  1.9585
19918TIP3   OH281168   0.373   6.693  10.611  0.4451 -0.5041  0.0657
19918TIP3    H181169   0.424   6.774  10.614 -1.0675  0.5061 -0.2427
19918TIP3    H281170   0.317   6.696  10.689 -0.4700 -0.6365 -0.5598
19919TIP3   OH281171   6.101   4.310  15.506 -0.5827  0.1933  0.4990
19919TIP3    H181172   6.020   4.346  15.543 -0.8512 -0.2682  0.3762
19919TIP3    H281173   6.088   4.315  15.411 -1.1938 -1.4224  0.4620
19920TIP3   OH281174   2.495   1.607  10.857 -0.3377  0.2207 -0.4286
19920TIP3    H181175   2.515   1.700  10.843 -1.3219  0.8610  1.8847
19920TIP3    H281176   2.439   1.583  10.783  0.6005  1.2131 -1.5074
19921TIP3   OH281177   1.992   4.784  11.997 -0.1786 -0.3847  0.0709
19921TIP3    H181178   2.053   4.857  12.009 -0.0545 -0.5490  0.4664
19921TIP3    H281179   1.905   4.824  12.003 -0.1118 -0.2979  0.5100
19922TIP3   OH281180   5.640   4.140   5.752  0.0346  0.2169  0.7872
19922TIP3    H181181   5.547   4.119   5.762 -0.3239  1.8996  1.3911
19922TIP3    H281182   5.643   4.236   5.748  1.5514  0.1541 -1.4729
19923TIP3   OH281183   2.192   6.486   3.983 -0.4087 -0.0492  0.6705
19923TIP3    H181184   2.270   6.437   4.010  0.4907  0.7463 -0.3524
19923TIP3    H281185   2.151   6.514   4.064 -0.3729 -1.5934  1.2550
19924TIP3   OH281186   5.014   4.111  12.458  0.2571  0.5007  0.0863
19924TIP3    H181187   4.925   4.140  12.440 -0.0954  0.3286  1.4380
19924TIP3    H281188   5.069   4.185  12.430 -0.3466  0.8358 -0.2328
19925TIP3   OH281189   1.759   1.089  11.922 -0.0843 -0.4280 -0.0455
19925TIP3    H181190   1.808   1.016  11.885  0.2895 -0.2275  0.0521
19925TIP3    H281191   1.791   1.166  11.875  0.3162 -0.1822  0.6211
19926TIP3   OH281192   5.399   6.725   5.211  0.1935 -0.2780  0.5521
19926TIP3    H181193   5.480   6.744   5.259  0.6482  2.2678 -1.0631
19926TIP3    H281194   5.335   6.704   5.280  1.9354 -1.4821  1.9137
19927TIP3   OH281195   4.657   4.083  14.722 -0.1483  0.4087 -0.3039
19927TIP3    H181196   4.727   4.097  14.658  0.1761 -0.7297 -0.2249
19927TIP3    H281197   4.667   3.991  14.748 -0.9204  0.5717  0.6100
19928TIP3   OH281198   5.888   3.629  10.709  0.7922 -0.6978 -0.4293
19928TIP3    H181199   5.859   3.539  10.718  3.3603 -1.4943  0.8044
19928TIP3    H281200   5.939   3.630  10.628  0.2479 -0.1729 -0.7744
19929TIP3   OH281201   6.424   2.584  12.850 -0.3533 -0.5408  0.5086
19929TIP3    H181202   6.338   2.593  12.891  0.4423  0.9788  2.0336
19929TIP3    H281203   6.445   2.672  12.818  1.3226 -0.4272  1.7529
19930TIP3   OH281204   0.810   1.488   5.762 -0.0003  0.2162  0.0278
19930TIP3    H181205   0.750   1.551   5.801 -0.9948 -0.2491 -0.6861
19930TIP3    H281206   0.755   1.413   5.740  0.5487  0.3331 -1.9473
19931TIP3   OH281207   4.787   4.967   1.517 -0.2177 -0.3775 -0.2925
19931TIP3    H181208   4.790   4.977   1.612 -0.7865 -1.2990 -0.1656
19931TIP3    H281209   4.703   4.924   1.499 -0.3347  0.2051 -1.2583
19932TIP3   OH281210   2.323   4.267   3.448  0.3473 -0.0574 -0.2080
19932TIP3    H181211   2.378   4.344   3.430  1.3363 -0.5853  0.4608
19932TIP3    H281212   2.310   4.269   3.542 -3.0764  1.5449 -0.5888
19933TIP3   OH281213   0.913   2.690  10.631  0.5643 -0.2786  0.0430
19933TIP3    H181214   0.847   2.752  10.599  1.1174 -0.6398 -1.9849
19933TIP3    H281215   0.862   2.612  10.654  0.2328 -0.5970 -1.6097
19934TIP3   OH281216   4.470   4.605  11.374 -0.2548 -0.0995  0.5343
19934TIP3    H181217   4.551   4.656  11.367 -0.5279  0.1446 -1.1913
19934TIP3    H281218   4.443   4.616  11.465  1.3741  0.2235  1.0193
19935TIP3   OH281219   5.885   3.910  12.577  0.0315  0.0731  0.6760
19935TIP3    H181220   5.841   3.966  12.640 -0.1365  1.1751 -0.3959
19935TIP3    H281221   5.978   3.919  12.599 -0.1185 -0.8056  1.7576
19936TIP3   OH281222   1.649   2.590   5.711  0.0603 -0.5117  0.5367
19936TIP3    H181223   1.672   2.516   5.767  2.3211  1.5293  2.5758
19936TIP3    H281224   1.598   2.648   5.768 -0.4941  0.1338 -0.5797
19937TIP3   OH281225   4.932   5.544   6.178  0.1150 -0.0916 -0.2136
19937TIP3    H181226   4.952   5.542   6.272 -0.9827  0.3456  0.0454
19937TIP3    H281227   4.882   5.625   6.165  0.6405  0.0825 -1.2628
19938TIP3   OH281228   2.753   3.213   4.061  0.5174  0.3690 -0.1733
19938TIP3    H181229   2.704   3.294   4.048  0.3240  0.1729 -0.7168
19938TIP3    H281230   2.716   3.152   3.996  0.2523 -0.3343  0.6256
19939CLA    CLA81231   0.564   5.860   2.820  0.1503  0.3164  0.3145
19940LIG     O181232   3.526   3.414   2.921 -0.0741 -0.6838 -0.1194
19940LIG     O281233   3.453   3.629   2.904 -0.5959  0.7513  0.2395
19940LIG     O381234   3.550   3.551   3.204 -0.2113 -0.2644 -0.2165
19940LIG     O481235   3.271   2.771   3.036 -0.4850  0.0219  0.0159
19940LIG      N81236   3.695   3.242   2.621  0.2253  0.2477 -0.1984
19940LIG     C181237   3.608   3.351   2.571 -0.5644  0.2176  0.9165
19940LIG     C281238   3.790   3.312   2.711  0.1193  0.1684  0.4549
19940LIG     C381239   3.701   3.459   2.525  0.0407  0.3154  0.1256
19940LIG     C481240   3.820   3.439   2.625  0.5112 -0.6025  0.3541
19940LIG     C581241   3.534   3.412   2.693  0.2972 -0.1935 -0.5216
19940LIG     C681242   3.743   3.352   2.839  0.2482  0.0708  0.3550
19940LIG     C781243   3.615   3.438   2.819  0.1634 -0.1181 -0.9646
19940LIG     C881244   3.611   3.137   2.696 -1.0053  0.3997 -0.0060
19940LIG     C981245   3.775   3.163   2.516  0.3290 -0.3903  0.8960
19940LIG    C1081246   3.687   3.018   2.757  0.0383 -0.4223  0.6480
19940LIG    C1181247   3.598   2.943   2.833 -0.6743 -0.6187  0.1611
19940LIG    C1281248   3.451   3.519   2.958  0.6516 -0.0573  0.3676
19940LIG    C1381249   3.586   2.963   2.977  0.8427 -0.0296  0.1771
19940LIG    C1481250   3.499   2.874   2.763 -0.5102  1.8904 -0.0025
19940LIG    C1581251   3.368   3.478   3.076 -0.2971 -0.1394 -0.1329
19940LIG    C1681252   3.470   2.910   3.033  0.5373  0.2178 -0.0052
19940LIG    C1781253   3.397   2.807   2.832  0.1396  0.0047 -0.3534
19940LIG    C1881254   3.456   3.450   3.190  0.1145 -0.1518  0.5009
19940LIG    C1981255   3.270   3.370   3.047 -0.3947 -0.5557  0.5767
19940LIG    C2081256   3.373   2.838   2.967 -0.1756  0.4298  0.8123
19940LIG    C2181257   3.241   3.333   2.916 -0.1469  0.7696  0.7307
19940LIG    C2281258   3.224   3.289   3.154 -0.1013 -0.4734 -0.6311
19940LIG    C2381259   3.169   3.217   2.892 -0.0702  0.5611  0.1452
19940LIG    C2481260   3.152   3.175   3.128 -0.6840 -0.2260  0.9338
19940LIG    C2581261   3.206   2.656   2.986 -0.2187 -0.0722 -0.0782
19940LIG    C2681262   3.121   3.138   2.997 -0.5508  0.0682 -0.5654
19940LIG    C2781263   3.268   2.524   3.023 -0.6106 -0.0765  0.5354
19940LIG    C2881264   3.205   2.390   2.985  0.7288 -0.9803  0.2609
19940LIG    C2981265   3.055   2.385   3.034 -0.1270 -0.6261  0.0454
19940LIG     H181266   3.536   3.315   2.494 -0.4037  1.8408 -0.0262
19940LIG     H281267   3.885   3.254   2.720 -0.3732 -1.1467 -1.9236
19940LIG     H381268   3.664   3.563   2.525  0.9996  0.6879  1.2072
19940LIG     H481269   3.728   3.442   2.420  0.7549  0.8769  0.2077
19940LIG     H581270   3.915   3.430   2.569  0.8731 -0.3486  0.9214
19940LIG     H681271   3.834   3.530   2.686 -0.2192  1.3090 -2.1397
19940LIG     H781272   3.448   3.344   2.709 -0.9158  1.2440 -0.6808
19940LIG     H881273   3.496   3.510   2.658 -1.3485 -0.9079 -0.8245
19940LIG     H981274   3.817   3.415   2.893  0.3858  0.8939 -0.7604
19940LIG    H1081275   3.718   3.270   2.910  2.2124 -0.8699  0.0361
19940LIG    H1181276   3.645   3.545   2.808  0.3894  0.0016  0.6375
19940LIG    H1281277   3.531   3.105   2.631 -0.1471  0.9568 -1.3813
19940LIG    H1381278   3.572   3.188   2.783 -0.1033  1.6840 -0.3319
19940LIG    H1481279   3.852   3.103   2.564  0.0407 -1.0895  0.4986
19940LIG    H1581280   3.823   3.220   2.438  1.6767 -1.8929  0.5557
19940LIG    H1681281   3.709   3.083   2.486  0.7826 -0.4512  0.0447
19940LIG    H1781282   3.768   3.052   2.825 -0.4677 -1.6390  1.9206
19940LIG    H1881283   3.726   2.949   2.680  0.3677  0.8927 -0.4048
19940LIG    H1981284   3.652   3.026   3.035 -0.4122  0.8959  0.6419
19940LIG    H2081285   3.513   2.847   2.660 -0.9235 -0.9223  0.5895
19940LIG    H2181286   3.304   3.564   3.106  0.3757 -0.6555  3.0629
19940LIG    H2281287   3.455   2.927   3.139 -2.1256 -0.2113 -0.2652
19940LIG    H2381288   3.321   2.745   2.786 -1.5751  0.1463  2.1207
19940LIG    H2481289   3.404   3.453   3.288 -0.0236 -1.7530  0.5094
19940LIG    H2581290   3.508   3.353   3.173  1.4636  0.4809  0.8872
19940LIG    H2681291   3.271   3.385   2.827 -1.6782 -0.2759 -0.4374
19940LIG    H2781292   3.247   3.309   3.258  0.6328  4.0518 -1.4619
19940LIG    H2881293   3.594   3.531   3.287 -0.2788  1.2746  0.2322
19940LIG    H2981294   3.146   3.181   2.793 -1.5742 -2.1020  1.3357
19940LIG    H3081295   3.113   3.122   3.214 -0.5418  0.4631  1.4304
19940LIG    H3181296   3.181   2.658   2.877  2.6058  0.0270 -0.8036
19940LIG    H3281297   3.108   2.660   3.038 -1.4154  0.9536 -2.2230
19940LIG    H3381298   3.069   3.045   2.981 -1.9468  0.8818 -0.9659
19940LIG    H3481299   3.282   2.510   3.132  2.0172 -1.5494  0.0929
19940LIG    H3581300   3.371   2.522   2.982 -0.5803 -3.0157  0.5450
19940LIG    H3681301   3.261   2.310   3.039  0.8900 -0.4186  0.9301
19940LIG    H3781302   3.207   2.377   2.875 -3.1585  2.1686 -0.3975
19940LIG    H3881303   3.022   2.286   2.996  3.5711 -1.4009 -1.6057
19940LIG    H3981304   2.991   2.465   2.991 -1.5454 -1.7363  0.0035
19940LIG    H4081305   3.055   2.393   3.144 -1.9732  1.8919 -0.0360
   6.80145   6.80145  17.16569
